Control file title. For DL_FIELD 4.10
49760
    1MOL     C1    1   2.682   4.870   4.317 -0.6659  0.3123  0.0094
    1MOL     O2    2   2.551   4.824   4.329  0.8661 -0.3648  0.0894
    1MOL     C3    3   2.510   4.725   4.240  0.2065  0.1512 -0.1088
    1MOL     C4    4   2.359   4.681   4.276 -0.2318 -0.6526  0.3877
    1MOL     C5    5   2.345   4.653   4.438  0.2739 -0.2147 -0.2803
    1MOL     C6    6   2.213   4.573   4.469 -0.0599 -0.5129  0.0554
    1MOL     C7    7   2.224   4.495   4.597  0.0456  0.6660  0.0069
    1MOL     C8    8   2.085   4.427   4.628 -0.0013 -0.4994  0.0808
    1MOL     C9    9   2.049   4.304   4.529  0.3760  0.2451  0.2574
    1MOL    C10   10   1.913   4.250   4.581  0.3456 -0.2041 -0.3700
    1MOL    C11   11   2.690   4.993   4.404 -0.5891  0.0915 -0.3152
    1MOL    H12   12   2.752   4.790   4.342 -1.8173 -1.3119 -1.7309
    1MOL    H13   13   2.580   4.644   4.261  1.1649  0.8884 -0.3969
    1MOL    H14   14   2.522   4.749   4.134  3.8203  0.6404  0.3335
    1MOL    H15   15   2.336   4.590   4.220 -1.5232  1.0872 -1.9997
    1MOL    H16   16   2.290   4.760   4.247  0.6497  0.5290  1.4338
    1MOL    H17   17   2.434   4.599   4.471 -0.2588 -1.0988 -0.2741
    1MOL    H18   18   2.352   4.749   4.490  0.2788 -1.1370  1.4712
    1MOL    H19   19   2.132   4.646   4.467  0.6723  0.2981 -2.7720
    1MOL    H20   20   2.204   4.492   4.397 -2.2161  0.6187 -0.9815
    1MOL    H21   21   2.307   4.425   4.599  1.2677  2.0517 -0.6445
    1MOL    H22   22   2.243   4.570   4.674 -0.4965  0.8046  0.0078
    1MOL    H23   23   1.999   4.494   4.635 -0.5753 -1.3170  1.0844
    1MOL    H24   24   2.088   4.378   4.725 -1.1692 -0.1663  0.3006
    1MOL    H25   25   2.045   4.325   4.422  2.2588 -2.0121 -0.3104
    1MOL    H26   26   2.120   4.221   4.533  0.2112  0.0757 -0.2261
    1MOL    H27   27   1.839   4.330   4.581  2.4077  1.8126  3.6332
    1MOL    H28   28   1.931   4.233   4.687  3.0463  0.3675 -0.6997
    1MOL    H29   29   1.878   4.155   4.540 -1.3051 -0.2401  1.1131
    1MOL    H30   30   2.783   5.048   4.391 -0.2710 -0.1321  0.9421
    1MOL    H31   31   2.609   5.056   4.369  1.6104  2.0029 -2.1071
    1MOL    H32   32   2.696   4.894   4.212 -0.1872  0.3354  0.0766
    1MOL    C33   33   2.659   4.974   4.551  0.0273 -0.2130  0.3724
    1MOL    O34   34   2.648   5.104   4.614 -0.1572  0.9163  0.2294
    1MOL    C35   35   2.525   5.163   4.594 -0.1910 -0.0934 -0.1171
    1MOL    C36   36   2.519   5.297   4.662  0.7058 -0.2480 -0.2182
    1MOL    C37   37   2.616   5.401   4.595  0.0113 -0.4923  0.5917
    1MOL    C38   38   2.580   5.550   4.591  0.3126 -0.1892 -0.2849
    1MOL    C39   39   2.696   5.630   4.529 -0.0205  0.0457 -0.0904
    1MOL    C40   40   2.683   5.784   4.538 -0.9271 -0.3921 -1.0003
    1MOL    C41   41   2.725   5.837   4.673 -0.0596 -0.6547 -0.5032
    1MOL    C42   42   2.759   5.986   4.679  0.7830 -0.1356 -0.0339
    1MOL    C43   43   2.755   4.885   4.623 -0.0166  0.2696  0.3350
    1MOL    H44   44   2.562   4.924   4.558  0.1036 -0.8764 -2.6062
    1MOL    H45   45   2.454   5.094   4.641  0.6174 -1.2286 -0.5422
    1MOL    H46   46   2.499   5.169   4.489  0.4834  0.0405 -0.2743
    1MOL    H47   47   2.536   5.296   4.769  0.5313  1.8766 -0.1529
    1MOL    H48   48   2.418   5.333   4.647  0.4655 -1.6125 -2.0401
    1MOL    H49   49   2.715   5.382   4.638  1.6637  1.1471 -2.2978
    1MOL    H50   50   2.624   5.375   4.490 -2.7864  0.5078  0.1105
    1MOL    H51   51   2.507   5.575   4.514  1.1113  1.1274 -0.6346
    1MOL    H52   52   2.560   5.596   4.688  1.2837  0.8828 -0.5749
    1MOL    H53   53   2.785   5.594   4.582 -1.0625 -0.8396  1.0949
    1MOL    H54   54   2.706   5.607   4.423 -2.7688 -1.7055 -0.0075
    1MOL    H55   55   2.586   5.831   4.527 -1.6749 -1.8582 -0.8424
    1MOL    H56   56   2.751   5.819   4.460 -1.9965 -0.5326 -2.0111
    1MOL    H57   57   2.650   5.818   4.750 -0.4425  1.3114 -0.3749
    1MOL    H58   58   2.809   5.774   4.701  0.9514  0.2187 -1.5420
    1MOL    H59   59   2.671   6.050   4.674  0.0816 -1.0083  1.0408
    1MOL    H60   60   2.813   6.015   4.589 -0.4689  1.9420 -0.1387
    1MOL    H61   61   2.816   6.009   4.769  0.1959 -0.2373  0.3623
    1MOL    H62   62   2.808   4.807   4.568  1.3985  0.8085  0.9084
    1MOL    H63   63   2.829   4.961   4.648 -0.0685 -0.0084  1.3684
    1MOL    C64   64   2.706   4.822   4.764 -0.0188 -0.0200  0.0780
    1MOL    O65   65   2.816   4.757   4.825 -0.4014 -0.4188  0.4294
    1MOL    C66   66   2.916   4.841   4.877 -0.5185 -0.1336 -0.4987
    1MOL    C67   67   2.946   4.822   5.032  0.6997 -0.1906  0.2311
    1MOL    C68   68   3.042   4.926   5.090  0.0778 -0.0375 -0.2617
    1MOL    C69   69   3.073   4.900   5.235 -0.1776 -0.4714 -0.0045
    1MOL    C70   70   2.953   4.919   5.332 -0.4540 -0.4530 -0.1824
    1MOL    C71   71   2.995   4.878   5.472  0.8397 -0.3138 -0.8281
    1MOL    C72   72   2.878   4.856   5.576  0.0967  0.3892 -0.0849
    1MOL    C73   73   2.933   4.784   5.700 -0.0494  0.4294  0.5044
    1MOL    C74   74   2.598   4.717   4.750 -0.2083  0.1971 -0.2769
    1MOL    H75   75   2.666   4.904   4.825 -0.1692  0.7550 -1.0527
    1MOL    H76   76   2.880   4.943   4.866  0.0228 -0.0170 -1.2306
    1MOL    H77   77   3.008   4.842   4.819  0.9977  2.0462  1.8089
    1MOL    H78   78   2.974   4.721   5.060  1.6847  0.4943  1.7992
    1MOL    H79   79   2.847   4.838   5.075  0.9855 -1.5950  1.4419
    1MOL    H80   80   3.132   4.910   5.031  0.5654 -1.0672  0.7630
    1MOL    H81   81   3.016   5.031   5.078  1.1633  0.1602 -0.9802
    1MOL    H82   82   3.123   4.803   5.240 -2.9576 -1.8722  2.7352
    1MOL    H83   83   3.144   4.977   5.263 -1.6306  1.6837 -2.1040
    1MOL    H84   84   2.927   5.024   5.347 -1.6194 -0.3763 -2.5791
    1MOL    H85   85   2.865   4.860   5.309 -1.1179 -0.1855  1.5635
    1MOL    H86   86   3.078   4.940   5.504  0.5021  0.9816 -2.4333
    1MOL    H87   87   3.031   4.776   5.459 -0.3072 -0.7466 -0.6750
    1MOL    H88   88   2.833   4.950   5.609 -2.0122 -0.5528 -0.2213
    1MOL    H89   89   2.796   4.799   5.532 -2.0276  2.5754  0.9575
    1MOL    H90   90   2.872   4.799   5.789 -1.3350  0.4885 -0.3787
    1MOL    H91   91   3.031   4.828   5.718  0.6941 -1.5455  1.5067
    1MOL    H92   92   2.955   4.677   5.694 -2.3935 -0.0955  0.9467
    1MOL    H93   93   2.534   4.749   4.668 -0.5912 -1.6130 -0.7035
    1MOL    H94   94   2.645   4.626   4.715 -0.8717 -0.6187  0.9259
    1MOL    C95   95   2.512   4.683   4.873 -0.3334  0.7910  0.2122
    1MOL    O96   96   2.452   4.557   4.869 -0.2105 -0.2925  0.5021
    1MOL    C97   97   2.522   4.443   4.831  0.2809  0.0443  0.2853
    1MOL    C98   98   2.463   4.310   4.898 -0.1678 -0.3647 -0.0175
    1MOL    C99   99   2.537   4.178   4.860 -0.5806  0.0844  0.3695
    1MOL   C100  100   2.691   4.177   4.881  0.2594  0.1748 -0.4934
    1MOL   C101  101   2.751   4.042   4.830 -0.2763 -0.0374  0.5191
    1MOL   C102  102   2.904   4.031   4.868  0.1818 -0.1135 -0.2553
    1MOL   C103  103   2.962   3.883   4.856 -0.9502 -0.1804  0.1054
    1MOL   C104  104   3.111   3.866   4.889 -0.0046  0.3613 -0.6746
    1MOL   C105  105   2.404   4.791   4.911  0.1506  0.2787 -0.9621
    1MOL   H106  106   2.587   4.682   4.952 -0.2509 -2.0296  0.1226
    1MOL   H107  107   2.625   4.470   4.856  0.3725 -1.7205  1.9524
    1MOL   H108  108   2.521   4.434   4.722 -3.4458 -0.2126  0.2820
    1MOL   H109  109   2.355   4.304   4.884 -0.1320 -1.2281  0.0890
    1MOL   H110  110   2.476   4.317   5.006 -1.2804 -0.2934  0.1217
    1MOL   H111  111   2.493   4.093   4.913 -0.0052  0.0510  0.7920
    1MOL   H112  112   2.532   4.165   4.752  2.3804 -0.2146  0.2308
    1MOL   H113  113   2.734   4.263   4.829 -0.4361  0.8833  0.0975
    1MOL   H114  114   2.709   4.191   4.987  1.1469 -1.1481 -0.4553
    1MOL   H115  115   2.688   3.971   4.883 -1.4530  0.4924 -0.1615
    1MOL   H116  116   2.731   4.039   4.723 -2.0752  1.0609  0.8067
    1MOL   H117  117   2.919   4.055   4.973  0.8348 -0.8401 -0.1793
    1MOL   H118  118   2.956   4.103   4.805  0.2480  0.1287  0.0720
    1MOL   H119  119   2.896   3.816   4.911 -1.7493 -0.7221 -1.5025
    1MOL   H120  120   2.948   3.854   4.752  1.3823 -0.7788 -0.0771
    1MOL   H121  121   3.128   3.911   4.987 -3.3670 -2.0552  1.0992
    1MOL   H122  122   3.172   3.924   4.820  0.0318 -1.0070 -1.8303
    1MOL   H123  123   3.149   3.764   4.884 -0.5063  0.1369 -0.0617
    1MOL   H124  124   2.345   4.783   4.820  0.3343 -1.4170 -0.9601
    1MOL   H125  125   2.339   4.756   4.992 -0.3176 -2.3526 -2.3984
    1MOL   C126  126   2.433   4.933   4.944 -0.1287  0.1565 -0.0139
    1MOL   O127  127   2.508   4.952   5.062  0.1148  0.6252 -0.2553
    1MOL   C128  128   2.582   5.077   5.052 -0.3073  0.2213 -0.4520
    1MOL   C129  129   2.653   5.098   5.189 -0.8111  0.1869  0.1783
    1MOL   C130  130   2.712   5.238   5.210 -0.6410  0.1698  0.6891
    1MOL   C131  131   2.806   5.287   5.097  0.2144 -0.2558 -0.3891
    1MOL   C132  132   2.837   5.437   5.108  0.6756 -0.0337 -0.9863
    1MOL   C133  133   2.939   5.482   5.000 -0.1903  0.2534  0.0999
    1MOL   C134  134   2.960   5.628   5.008  0.5341 -0.2491  0.2594
    1MOL   C135  135   3.077   5.686   4.942  0.5023 -0.9356 -0.3040
    1MOL   C136  136   2.293   5.006   4.984  0.4121  0.2816  1.0464
    1MOL   H137  137   2.473   4.993   4.862  0.3063 -1.2400 -0.8381
    1MOL   H138  138   2.524   5.169   5.043 -0.7217 -0.1582 -1.6808
    1MOL   H139  139   2.651   5.066   4.970  0.2050 -1.7456  0.2227
    1MOL   H140  140   2.735   5.027   5.199  0.4315  1.7164  0.9269
    1MOL   H141  141   2.594   5.075   5.277 -0.0475 -0.0058  0.6404
    1MOL   H142  142   2.628   5.307   5.223 -1.1815  0.0267 -1.8076
    1MOL   H143  143   2.772   5.238   5.300  0.5149 -0.1656 -0.0684
    1MOL   H144  144   2.901   5.237   5.118  0.5510  1.0071  1.1745
    1MOL   H145  145   2.779   5.257   4.996  0.5478  0.3532 -0.6620
    1MOL   H146  146   2.744   5.490   5.089  0.7336  0.2559 -0.4752
    1MOL   H147  147   2.883   5.460   5.204  0.2810 -1.4060 -0.4505
    1MOL   H148  148   2.892   5.455   4.906 -0.7305 -3.9958  1.5026
    1MOL   H149  149   3.035   5.432   5.006 -0.3028  0.1445  0.9825
    1MOL   H150  150   2.869   5.683   4.986  0.7235  0.3121  0.8208
    1MOL   H151  151   2.993   5.635   5.112 -1.2448  0.6267  0.7739
    1MOL   H152  152   3.170   5.657   4.990 -0.9111 -3.7559  0.8836
    1MOL   H153  153   3.064   5.793   4.933  1.6315 -0.8593 -1.0927
    1MOL   H154  154   3.085   5.646   4.840  0.3547  1.4424 -1.2677
    1MOL   H155  155   2.260   4.973   5.082 -1.5069  0.3983  0.4601
    1MOL   H156  156   2.321   5.111   4.993  0.4158  0.1638  2.5333
    1MOL   C157  157   2.163   4.978   4.885  0.1705  0.5357 -0.3397
    1MOL   O158  158   2.193   5.042   4.765  0.3282 -0.4421  0.4125
    1MOL   C159  159   2.142   4.969   4.649 -0.2290  0.0781 -0.5145
    1MOL   C160  160   2.177   5.042   4.518  0.6204 -0.2442 -0.3910
    1MOL   C161  161   2.058   5.022   4.416 -0.0536 -0.0433 -0.0332
    1MOL   C162  162   2.078   5.081   4.279  0.0318  0.3244 -0.4697
    1MOL   C163  163   1.963   5.099   4.192  0.3521 -0.1380 -0.2487
    1MOL   C164  164   1.903   4.965   4.151 -0.7960  1.0675 -0.1383
    1MOL   C165  165   1.778   4.975   4.064  0.5485  1.5184  1.4916
    1MOL   C166  166   1.752   4.854   3.968  0.5812  0.2104 -0.2301
    1MOL   C167  167   2.037   5.050   4.951  0.1162 -0.1187 -0.4439
    1MOL   H168  168   2.142   4.871   4.875  2.1780 -0.1742  2.2932
    1MOL   H169  169   2.034   4.956   4.655 -0.5968  3.3207  0.6069
    1MOL   H170  170   2.193   4.873   4.652 -3.3851 -1.6711  0.3274
    1MOL   H171  171   2.265   4.993   4.476  1.5674  0.4244  0.7707
    1MOL   H172  172   2.216   5.141   4.540  1.0059 -0.2808 -0.9201
    1MOL   H173  173   2.035   4.917   4.397 -1.1215 -0.0368  1.1569
    1MOL   H174  174   1.961   5.056   4.453  1.3479  2.9688  0.9697
    1MOL   H175  175   2.131   5.177   4.283  0.8139 -0.1433  0.6182
    1MOL   H176  176   2.148   5.017   4.225  1.6626  1.7571 -0.1220
    1MOL   H177  177   1.881   5.156   4.235 -0.0495 -0.7967 -0.1272
    1MOL   H178  178   1.984   5.165   4.108  0.4278 -1.2615 -1.1232
    1MOL   H179  179   1.886   4.902   4.239  2.1934 -0.6341 -0.7025
    1MOL   H180  180   1.979   4.913   4.092 -1.0616  0.5332 -0.0149
    1MOL   H181  181   1.699   4.969   4.139 -1.2079 -3.1632 -0.5467
    1MOL   H182  182   1.769   5.068   4.008 -4.4120  0.3434  0.1052
    1MOL   H183  183   1.839   4.838   3.904  0.6789  2.5578 -0.7394
    1MOL   H184  184   1.672   4.876   3.899  0.1711 -2.0403 -0.4927
    1MOL   H185  185   1.739   4.759   4.021  1.6395  0.4026  0.4042
    1MOL   H186  186   2.064   5.155   4.961  0.2954 -0.3807  2.2775
    1MOL   H187  187   1.957   5.042   4.877 -0.5852 -2.9357  0.5335
    1MOL   C188  188   1.984   4.983   5.081 -0.2014  0.1685 -0.0445
    1MOL   O189  189   1.921   4.858   5.037 -0.7889  0.1529  0.5901
    1MOL   C190  190   1.935   4.750   5.125 -0.0379  0.4155  0.1503
    1MOL   C191  191   2.062   4.668   5.089 -0.1347 -0.1823  0.9826
    1MOL   C192  192   2.086   4.537   5.165 -0.7214  0.2494 -0.6941
    1MOL   C193  193   2.201   4.455   5.113  0.3241  0.2575  0.0711
    1MOL   C194  194   2.221   4.321   5.186 -0.5748 -0.1759  0.8672
    1MOL   C195  195   2.328   4.323   5.294  0.5226 -0.1303 -0.0391
    1MOL   C196  196   2.343   4.189   5.355 -0.2771  1.1229  0.2586
    1MOL   C197  197   2.475   4.192   5.438  0.0453 -0.5159 -0.1436
    1MOL   C198  198   1.874   5.071   5.136 -1.2902 -0.7708 -0.2269
    1MOL   H199  199   2.064   4.958   5.150  0.5347 -1.5979 -1.4840
    1MOL   H200  200   1.929   4.780   5.230  1.3985 -0.1496  0.4151
    1MOL   H201  201   1.851   4.681   5.114  0.5687 -0.3636  0.3600
    1MOL   H202  202   2.156   4.721   5.107 -0.1696  0.2792 -0.1992
    1MOL   H203  203   2.077   4.638   4.986 -0.1520  0.7934  0.6863
    1MOL   H204  204   2.111   4.556   5.269 -0.2345 -0.0028 -0.7613
    1MOL   H205  205   1.995   4.477   5.168 -0.7819  0.4086  0.8503
    1MOL   H206  206   2.179   4.439   5.008  2.4247  2.2595 -0.7182
    1MOL   H207  207   2.297   4.504   5.094  1.6067 -2.4285 -0.5885
    1MOL   H208  208   2.125   4.280   5.217 -0.9220  0.8478  1.1659
    1MOL   H209  209   2.256   4.245   5.115  1.7515  0.1278  1.6630
    1MOL   H210  210   2.302   4.390   5.376 -0.5431  0.5707 -0.9301
    1MOL   H211  211   2.421   4.363   5.253  0.6733  0.6036  0.9924
    1MOL   H212  212   2.255   4.177   5.419 -0.6046  1.3709 -0.1394
    1MOL   H213  213   2.345   4.113   5.277  0.8363  1.0919  0.3110
    1MOL   H214  214   2.494   4.134   5.529  0.3538  0.6587  0.5539
    1MOL   H215  215   2.489   4.297   5.465 -0.2232 -0.7131  0.8078
    1MOL   H216  216   2.561   4.166   5.377  0.8401 -2.0351  1.5694
    1MOL   H217  217   1.810   5.081   5.048 -0.1624 -0.6276 -1.0519
    1MOL   H218  218   1.819   5.018   5.214 -1.7644  0.8291  0.5600
    1MOL   C219  219   1.919   5.202   5.201  0.4556 -0.3887 -0.2060
    1MOL   O220  220   2.016   5.178   5.303 -0.1196 -0.1980  0.3451
    1MOL   C221  221   2.120   5.276   5.326 -0.6412  0.7697 -0.1817
    1MOL   C222  222   2.203   5.229   5.444 -0.1827  0.1287 -0.7766
    1MOL   C223  223   2.354   5.254   5.444  0.9292  0.1218 -0.0950
    1MOL   C224  224   2.420   5.207   5.572  0.0385 -0.1169  0.8063
    1MOL   C225  225   2.567   5.242   5.586 -0.2164  0.1415 -1.1117
    1MOL   C226  226   2.618   5.249   5.731 -0.3053 -0.3439 -0.5506
    1MOL   C227  227   2.771   5.245   5.762 -0.7757  0.0756 -0.7312
    1MOL   C228  228   2.806   5.265   5.909 -0.2987 -0.3630 -0.7666
    1MOL   C229  229   1.795   5.267   5.267  0.1909  0.5630 -0.2491
    1MOL   H230  230   1.967   5.267   5.128  0.7239  1.1868  1.3509
    1MOL   H231  231   2.094   5.381   5.339  0.2249  0.9630  0.0600
    1MOL   H232  232   2.188   5.276   5.241  2.4854 -0.0088  2.2210
    1MOL   H233  233   2.196   5.120   5.449  1.1923  0.1252  2.3745
    1MOL   H234  234   2.160   5.273   5.533 -2.2460 -0.1011 -1.6309
    1MOL   H235  235   2.388   5.216   5.348 -0.0511 -2.1332  0.4359
    1MOL   H236  236   2.371   5.362   5.435 -0.2413  0.5022  2.0003
    1MOL   H237  237   2.371   5.265   5.651 -1.8351 -1.8671  0.9667
    1MOL   H238  238   2.389   5.108   5.606 -1.7668 -0.3303 -1.3457
    1MOL   H239  239   2.622   5.159   5.543  0.2896  0.9677 -2.0756
    1MOL   H240  240   2.586   5.324   5.517 -0.6789  2.9184  1.9053
    1MOL   H241  241   2.567   5.174   5.792 -2.0315 -0.3851 -2.0200
    1MOL   H242  242   2.585   5.346   5.766 -0.9902 -0.6068 -0.4479
    1MOL   H243  243   2.817   5.148   5.741 -1.6878 -0.1800 -1.5728
    1MOL   H244  244   2.823   5.320   5.703  2.1863 -2.0629 -0.9842
    1MOL   H245  245   2.807   5.373   5.919 -0.1975 -0.5304  1.4453
    1MOL   H246  246   2.910   5.253   5.938 -0.5552 -2.4537 -0.5992
    1MOL   H247  247   2.749   5.205   5.981  2.9179 -1.9339  0.5786
    1MOL   H248  248   1.773   5.213   5.359 -0.1440  0.5933 -0.3130
    1MOL   H249  249   1.826   5.362   5.313 -0.3626  0.8169 -0.3951
    1MOL   C250  250   1.681   5.307   5.168 -0.1971  0.0220 -0.3699
    1MOL   O251  251   1.744   5.367   5.055 -0.5345 -0.2051 -0.0991
    1MOL   C252  252   1.675   5.350   4.933  0.5922  0.8250  0.0535
    1MOL   C253  253   1.743   5.438   4.824  0.0652  0.7174 -0.2008
    1MOL   C254  254   1.892   5.399   4.807  0.7685  0.3132 -0.3371
    1MOL   C255  255   1.957   5.472   4.686  0.1533 -0.3183  0.0979
    1MOL   C256  256   2.104   5.430   4.669  0.4122  0.5642 -0.3811
    1MOL   C257  257   2.154   5.462   4.529  0.1339 -0.1897 -0.1255
    1MOL   C258  258   2.174   5.612   4.500 -0.2800 -0.5988 -0.2967
    1MOL   C259  259   2.237   5.637   4.366 -0.7336  0.4709 -0.4159
    1MOL   C260  260   1.562   5.378   5.226 -0.6541  0.1076  0.0914
    1MOL   H261  261   1.653   5.211   5.125  0.6535  0.8928 -2.9653
    1MOL   H262  262   1.570   5.371   4.956  0.2925 -2.1901  1.8182
    1MOL   H263  263   1.676   5.245   4.901 -1.3528  0.2479  1.7156
    1MOL   H264  264   1.734   5.542   4.857  1.6532  0.7715  0.0707
    1MOL   H265  265   1.682   5.422   4.735  0.9423  2.6367 -1.1883
    1MOL   H266  266   1.942   5.414   4.903 -0.2783 -1.9478  0.5898
    1MOL   H267  267   1.896   5.294   4.778 -0.3165  0.3335 -0.5567
    1MOL   H268  268   1.900   5.457   4.595  0.9510  2.1483 -0.8418
    1MOL   H269  269   1.943   5.580   4.698  0.9632 -0.1029 -0.8424
    1MOL   H270  270   2.177   5.467   4.741  1.5215 -1.3950 -0.4641
    1MOL   H271  271   2.110   5.325   4.696 -0.7784  1.1670  2.3897
    1MOL   H272  272   2.074   5.422   4.466 -1.1210  1.1931  0.5517
    1MOL   H273  273   2.246   5.410   4.506 -0.7405 -0.6655 -2.7512
    1MOL   H274  274   2.080   5.666   4.515 -0.1100 -0.1438 -0.8394
    1MOL   H275  275   2.241   5.645   4.579 -1.6468 -0.6383  0.9052
    1MOL   H276  276   2.158   5.629   4.292 -0.6073 -2.3306 -0.3077
    1MOL   H277  277   2.322   5.575   4.336  1.2542  2.2390  1.3398
    1MOL   H278  278   2.278   5.738   4.367 -0.9972  0.5964 -1.7937
    1MOL   H279  279   1.590   5.466   5.284 -1.9239 -0.4492  1.6170
    1MOL   H280  280   1.499   5.425   5.150  2.1362  0.3923 -2.1221
    1MOL   C281  281   1.458   5.299   5.304 -0.5963 -0.2047  0.1766
    1MOL   O282  282   1.334   5.364   5.274 -0.0072  0.5364  0.3005
    1MOL   C283  283   1.214   5.307   5.323  0.1553  0.7147 -0.4373
    1MOL   C284  284   1.090   5.354   5.245  0.2898  0.1913  0.2221
    1MOL   C285  285   1.119   5.331   5.088 -0.2965 -0.1271 -0.0787
    1MOL   C286  286   1.003   5.383   4.998  0.0172 -0.5648 -0.2149
    1MOL   C287  287   0.862   5.327   5.029  0.0918 -0.1668 -0.4274
    1MOL   C288  288   0.748   5.395   4.958  1.1400  0.3555  0.5631
    1MOL   C289  289   0.614   5.351   4.997 -0.2339 -0.2247  0.5101
    1MOL   C290  290   0.507   5.438   4.946  0.1174 -0.1943  0.1538
    1MOL   C291  291   1.488   5.308   5.457  0.6679 -0.1614  0.4894
    1MOL   H292  292   1.463   5.192   5.280  1.3072 -0.1279  0.1609
    1MOL   H293  293   1.207   5.346   5.424  1.2995  0.6763 -0.3397
    1MOL   H294  294   1.221   5.199   5.341 -0.7501  0.8317  0.6148
    1MOL   H295  295   1.101   5.462   5.263  1.5923 -0.2415  2.2433
    1MOL   H296  296   0.998   5.316   5.289  0.8515 -0.2475  1.0364
    1MOL   H297  297   1.217   5.374   5.065 -0.5697 -0.0250 -1.0897
    1MOL   H298  298   1.133   5.224   5.074 -1.0732 -0.2039 -0.2916
    1MOL   H299  299   1.003   5.492   5.004 -0.9131 -0.6057  0.6395
    1MOL   H300  300   1.021   5.343   4.899 -0.2180 -2.1217  0.3586
    1MOL   H301  301   0.859   5.218   5.035 -1.5835 -0.1800 -0.9892
    1MOL   H302  302   0.833   5.346   5.132  1.0006 -0.1457 -0.1745
    1MOL   H303  303   0.753   5.383   4.850  0.6307 -2.0312  0.7914
    1MOL   H304  304   0.739   5.503   4.974 -2.9169 -0.1611  2.3255
    1MOL   H305  305   0.616   5.249   4.960 -0.2096  0.3700 -1.1697
    1MOL   H306  306   0.609   5.338   5.105  0.3987  0.6036  0.6458
    1MOL   H307  307   0.505   5.435   4.837 -0.3110 -2.4531  0.1996
    1MOL   H308  308   0.513   5.540   4.984  2.2292  0.6060 -2.1906
    1MOL   H309  309   0.416   5.383   4.970 -0.4014 -0.5477 -2.4479
    1MOL   H310  310   1.595   5.318   5.472  0.6912  0.7716 -0.2353
    1MOL   H311  311   1.444   5.403   5.485  1.7523  0.3082  0.6198
    1MOL   C312  312   1.455   5.185   5.548 -0.9316 -0.0858 -0.0846
    1MOL   O313  313   1.495   5.214   5.683  0.3199  0.5297  0.3519
    1MOL   C314  314   1.396   5.257   5.779 -0.3072 -0.0980 -0.4160
    1MOL   C315  315   1.478   5.336   5.885 -0.1400  0.6864 -0.3309
    1MOL   C316  316   1.573   5.242   5.961  0.3377 -0.1224 -0.3729
    1MOL   C317  317   1.643   5.314   6.087  0.2370  0.1507 -0.3630
    1MOL   C318  318   1.748   5.217   6.146  0.2907 -0.5845 -0.7125
    1MOL   C319  319   1.684   5.090   6.205 -0.1830  0.1923  0.5170
    1MOL   C320  320   1.611   5.118   6.345  0.3771  0.1879  0.4070
    1MOL   C321  321   1.562   4.992   6.408  0.6444  0.1782 -0.2286
    1MOL   C322  322   1.520   5.048   5.510  0.3940 -0.8425  0.1000
    1MOL   H323  323   1.349   5.161   5.539 -1.0612  0.5790 -0.3787
    1MOL   H324  324   1.321   5.188   5.818  0.3674 -0.8343 -0.4257
    1MOL   H325  325   1.331   5.314   5.712  2.1211 -0.2315 -2.9310
    1MOL   H326  326   1.408   5.379   5.956  1.1592  0.0546  1.3670
    1MOL   H327  327   1.537   5.418   5.843 -0.5779  1.5498  0.7205
    1MOL   H328  328   1.516   5.159   6.001  3.2992 -2.5696 -1.0101
    1MOL   H329  329   1.639   5.200   5.885  1.1902  0.0980  0.2294
    1MOL   H330  330   1.695   5.403   6.051 -2.1329  1.0383 -1.7180
    1MOL   H331  331   1.568   5.349   6.157  0.2278  1.3599 -0.9607
    1MOL   H332  332   1.808   5.196   6.057  1.5629 -1.5987  0.3798
    1MOL   H333  333   1.807   5.278   6.213 -1.2953  0.4363 -0.2190
    1MOL   H334  334   1.759   5.013   6.218  2.0031  2.4343  1.5147
    1MOL   H335  335   1.606   5.049   6.142 -0.8419 -0.9325  2.0318
    1MOL   H336  336   1.681   5.155   6.419  0.5675 -2.1269  1.4313
    1MOL   H337  337   1.528   5.188   6.334 -0.7146 -1.2301 -0.6480
    1MOL   H338  338   1.503   4.925   6.345  0.1928  1.0040 -0.7034
    1MOL   H339  339   1.495   5.017   6.491 -0.6313 -0.4211 -1.0550
    1MOL   H340  340   1.649   4.940   6.449 -0.3905 -1.2533  0.2069
    1MOL   H341  341   1.494   5.019   5.408 -0.1298  3.2463 -1.0166
    1MOL   H342  342   1.625   5.075   5.496 -0.4713  3.2766  0.9905
    1MOL   C343  343   1.506   4.937   5.610  0.5333 -0.2189 -0.5963
    1MOL   O344  344   1.604   4.841   5.571 -0.7840 -0.7437 -0.2860
    1MOL   C345  345   1.728   4.871   5.637 -0.2582  0.0737  0.3819
    1MOL   C346  346   1.847   4.800   5.580  0.6230 -0.3835  0.9491
    1MOL   C347  347   1.867   4.662   5.642 -0.0920 -0.1941 -0.2090
    1MOL   C348  348   1.980   4.577   5.584 -0.4304 -0.1401  0.1736
    1MOL   C349  349   2.001   4.438   5.642  0.0428  0.4646 -1.0010
    1MOL   C350  350   1.900   4.334   5.599 -0.1787 -0.0248 -0.1492
    1MOL   C351  351   1.906   4.217   5.695  0.3789 -0.6617  0.1448
    1MOL   C352  352   1.799   4.118   5.647  0.4917 -1.1880  0.1254
    1MOL   C353  353   1.368   4.861   5.614 -0.7323 -0.6686  0.3262
    1MOL   H354  354   1.529   4.970   5.711  0.4528 -1.3915 -0.1910
    1MOL   H355  355   1.721   4.862   5.745  1.9791  0.5448  0.5809
    1MOL   H356  356   1.746   4.977   5.623 -0.5666  0.0626 -0.1223
    1MOL   H357  357   1.940   4.856   5.577 -0.0573  0.8812  2.4423
    1MOL   H358  358   1.821   4.779   5.477 -1.6532  0.2222  1.3729
    1MOL   H359  359   1.878   4.673   5.750 -0.4339 -1.4544 -0.0424
    1MOL   H360  360   1.773   4.607   5.633 -2.1966  3.2188 -0.0475
    1MOL   H361  361   1.959   4.561   5.478  1.3989 -5.0420  0.4207
    1MOL   H362  362   2.069   4.638   5.594  0.2029 -0.9069 -0.7137
    1MOL   H363  363   2.101   4.415   5.607  0.6678 -1.4512  1.9277
    1MOL   H364  364   2.019   4.446   5.749  0.6633 -2.1233 -0.8892
    1MOL   H365  365   1.940   4.298   5.504  1.1948 -0.2350  0.5030
    1MOL   H366  366   1.798   4.368   5.585  0.2171  1.0696 -0.4463
    1MOL   H367  367   2.005   4.172   5.702  1.0841  0.8649  0.3164
    1MOL   H368  368   1.897   4.250   5.799  0.9076 -0.4591  0.1329
    1MOL   H369  369   1.813   4.028   5.707 -1.1541 -0.9718  0.8598
    1MOL   H370  370   1.807   4.088   5.542  2.4654 -0.1830 -0.0338
    1MOL   H371  371   1.697   4.152   5.665  0.9345 -0.6238  1.6320
    1MOL   H372  372   1.372   4.788   5.695 -4.0534 -0.9639  0.2681
    1MOL   H373  373   1.276   4.919   5.625 -0.3330 -0.1619  1.0318
    1MOL   C374  374   1.343   4.783   5.479  0.0374 -0.0914 -0.3824
    1MOL   O375  375   1.276   4.868   5.383 -0.1673 -0.3883 -0.4217
    1MOL   C376  376   1.327   4.855   5.253  0.6499 -0.4532  0.2665
    1MOL   C377  377   1.233   4.918   5.156  0.2692  0.0665 -1.2546
    1MOL   C378  378   1.306   4.952   5.025 -0.2402 -0.4092 -0.7743
    1MOL   C379  379   1.221   4.987   4.903 -0.4385  0.0666 -0.5220
    1MOL   C380  380   1.303   4.991   4.771  0.4887 -0.0696  0.3727
    1MOL   C381  381   1.364   5.136   4.757 -0.3962  0.3524  0.5394
    1MOL   C382  382   1.361   5.182   4.612  0.3167  0.2927  0.3005
    1MOL   C383  383   1.425   5.318   4.591 -0.2631  0.5813 -0.1208
    1MOL   C384  384   1.255   4.652   5.499 -0.3226 -0.2541  0.0402
    1MOL   H385  385   1.438   4.758   5.432 -0.0883  3.1568 -2.4674
    1MOL   H386  386   1.343   4.751   5.224  0.4245 -1.2505  2.8913
    1MOL   H387  387   1.428   4.894   5.238  0.6405 -0.9776 -1.3514
    1MOL   H388  388   1.183   5.008   5.192 -0.4176 -0.2773 -1.3397
    1MOL   H389  389   1.162   4.839   5.133 -0.7707  0.5018  0.3636
    1MOL   H390  390   1.380   5.030   5.046 -1.1088  0.9979 -2.7674
    1MOL   H391  391   1.368   4.870   4.989 -1.2192 -0.5200 -2.2399
    1MOL   H392  392   1.144   4.912   4.885  1.0658 -1.5226 -0.4955
    1MOL   H393  393   1.164   5.079   4.918 -0.7007 -0.1011 -0.4991
    1MOL   H394  394   1.369   4.905   4.764  0.5270 -0.0909  0.9563
    1MOL   H395  395   1.242   4.968   4.685  1.4211  1.6128 -0.7802
    1MOL   H396  396   1.464   5.125   4.800  0.6115  1.5203 -1.3945
    1MOL   H397  397   1.313   5.209   4.819  1.5168  2.8837 -0.7777
    1MOL   H398  398   1.412   5.107   4.551  2.3103  2.2729 -0.5386
    1MOL   H399  399   1.259   5.195   4.574  0.3471 -1.3665 -0.4067
    1MOL   H400  400   1.533   5.312   4.604 -0.1778  1.7346 -0.2539
    1MOL   H401  401   1.386   5.388   4.665  1.2186  1.3260 -0.0343
    1MOL   H402  402   1.418   5.348   4.486  0.2460  1.7870  0.1779
    1MOL   H403  403   1.169   4.685   5.557 -0.8088 -0.1766 -0.7176
    1MOL   H404  404   1.211   4.618   5.405 -0.0294  0.2468 -0.2815
    1MOL   C405  405   1.330   4.541   5.569 -0.1584  0.0006 -0.0327
    1MOL   O406  406   1.399   4.471   5.463  0.9149 -0.0680 -0.1687
    1MOL   C407  407   1.514   4.408   5.512  0.0090 -0.4339 -0.0711
    1MOL   C408  408   1.576   4.332   5.398 -0.2716 -0.1332  0.5655
    1MOL   C409  409   1.634   4.427   5.295  0.1588  0.2141 -0.3792
    1MOL   C410  410   1.666   4.346   5.167 -0.1843  0.2500 -0.0227
    1MOL   C411  411   1.786   4.251   5.191  0.3536 -0.5969 -0.4303
    1MOL   C412  412   1.844   4.220   5.055 -0.5837  0.2555  0.2880
    1MOL   C413  413   1.929   4.087   5.050 -0.0698 -0.0008 -0.4268
    1MOL   C414  414   2.006   4.078   4.921 -0.4813  0.5419  0.0466
    1MOL   C415  415   1.241   4.441   5.647 -0.1776 -0.1983 -0.0264
    1MOL   H416  416   1.403   4.595   5.630 -0.5814  0.5082  0.0296
    1MOL   H417  417   1.485   4.334   5.588  1.4397 -2.3731 -1.3631
    1MOL   H418  418   1.579   4.482   5.558 -1.3694  0.5905  0.2817
    1MOL   H419  419   1.498   4.270   5.354  0.9656 -0.5367 -1.1093
    1MOL   H420  420   1.645   4.258   5.437  2.1326  0.3975 -2.4489
    1MOL   H421  421   1.562   4.507   5.275 -2.0411 -1.9385 -1.3432
    1MOL   H422  422   1.719   4.483   5.334  0.0478  0.2906 -0.2427
    1MOL   H423  423   1.577   4.287   5.145 -0.6100  1.2350 -0.9890
    1MOL   H424  424   1.682   4.416   5.084 -0.9393 -0.2446 -0.5875
    1MOL   H425  425   1.860   4.295   5.257  2.2398 -1.4344 -1.9605
    1MOL   H426  426   1.750   4.157   5.233  0.1559  0.2954  1.4901
    1MOL   H427  427   1.894   4.304   5.006 -1.1481 -0.6304 -1.8720
    1MOL   H428  428   1.752   4.199   5.001 -0.3461  1.4996 -0.6161
    1MOL   H429  429   2.006   4.091   5.127 -0.7878 -0.0164  0.3034
    1MOL   H430  430   1.862   4.003   5.069 -0.2025 -0.1443 -1.5207
    1MOL   H431  431   1.941   4.055   4.837 -0.6800  1.4834 -0.0546
    1MOL   H432  432   2.090   4.008   4.927 -0.2791  0.8588  0.9117
    1MOL   H433  433   2.061   4.170   4.903  0.1652  0.0167 -0.7228
    1MOL   H434  434   1.134   4.454   5.632 -0.0353 -0.4245 -1.2409
    1MOL   H435  435   1.263   4.342   5.607  3.3873  0.7180 -0.5516
    1MOL   C436  436   1.278   4.449   5.801 -0.1117 -0.1164 -0.2915
    1MOL   O437  437   1.258   4.323   5.862 -0.5158 -0.6017  0.3440
    1MOL   C438  438   1.377   4.244   5.869 -0.5774  0.5318  0.4313
    1MOL   C439  439   1.350   4.101   5.900 -0.0142  0.8931 -0.4757
    1MOL   C440  440   1.305   4.081   6.051 -0.5063 -0.0853  0.0592
    1MOL   C441  441   1.288   3.936   6.083  0.3679  0.1656 -0.4004
    1MOL   C442  442   1.255   3.880   6.232 -0.2184 -0.5863 -0.4106
    1MOL   C443  443   1.342   3.948   6.338  0.1879  0.1507 -0.8490
    1MOL   C444  444   1.496   3.925   6.340 -0.3308  0.4004 -0.1643
    1MOL   C445  445   1.536   3.779   6.348  0.7856  0.0842 -0.2430
    1MOL   C446  446   1.184   4.545   5.879 -0.2205 -0.6449 -0.1061
    1MOL   H447  447   1.377   4.491   5.812  0.2888 -1.5030  1.7213
    1MOL   H448  448   1.426   4.243   5.772 -0.1375  1.9742  0.6291
    1MOL   H449  449   1.446   4.276   5.947  0.8594 -0.1916 -0.5375
    1MOL   H450  450   1.436   4.045   5.863 -0.8929 -1.1957  0.5937
    1MOL   H451  451   1.267   4.073   5.835 -1.0973  0.9201  0.8970
    1MOL   H452  452   1.382   4.129   6.111 -0.4374 -0.5978  0.3827
    1MOL   H453  453   1.221   4.145   6.077  1.9400  3.2885 -0.0012
    1MOL   H454  454   1.209   3.896   6.019  1.1003 -0.9606 -0.6089
    1MOL   H455  455   1.381   3.893   6.049  0.3421  0.0164 -0.2825
    1MOL   H456  456   1.149   3.905   6.242  0.3634  1.6872  0.2263
    1MOL   H457  457   1.265   3.772   6.234  2.7604 -0.3230  0.4025
    1MOL   H458  458   1.294   3.912   6.429 -2.4655  1.4909 -1.6803
    1MOL   H459  459   1.333   4.056   6.331 -2.4892 -0.1516 -3.1692
    1MOL   H460  460   1.549   3.967   6.255 -2.6717  0.2881 -1.7292
    1MOL   H461  461   1.538   3.974   6.427  1.2623  0.5766 -1.0211
    1MOL   H462  462   1.519   3.738   6.249  0.3323 -2.7634  0.9701
    1MOL   H463  463   1.484   3.708   6.412 -1.4418 -0.0069 -2.1171
    1MOL   H464  464   1.643   3.763   6.360  0.4932 -2.1335 -0.4184
    1MOL   H465  465   1.179   4.641   5.828  1.3353  0.9354  2.5637
    1MOL   H466  466   1.079   4.517   5.875  0.2831 -2.8059  1.0563
    1MOL   C467  467   1.223   4.573   6.029 -0.3746 -0.0933 -0.8574
    1MOL   O468  468   1.159   4.478   6.112  0.2766  0.3452  0.0847
    1MOL   C469  469   1.236   4.418   6.221  0.2282 -0.8468 -0.1222
    1MOL   C470  470   1.149   4.341   6.325 -0.0489 -0.3390  1.1005
    1MOL   C471  471   1.031   4.429   6.382  0.1655  0.0177 -0.3401
    1MOL   C472  472   0.940   4.353   6.475  0.3820 -0.4535  0.2381
    1MOL   C473  473   0.803   4.419   6.481  0.0605 -0.5259  0.1595
    1MOL   C474  474   0.694   4.358   6.566  0.8084 -0.4345 -0.0773
    1MOL   C475  475   0.565   4.438   6.581  0.0543 -0.1383  0.0919
    1MOL   C476  476   0.461   4.370   6.671  0.1788  0.4622  0.0158
    1MOL   C477  477   1.182   4.710   6.081  0.4839  0.3447  0.5219
    1MOL   H478  478   1.332   4.566   6.036 -0.1697  2.5385 -0.8484
    1MOL   H479  479   1.280   4.504   6.273  0.1155 -1.4845  1.0533
    1MOL   H480  480   1.322   4.361   6.187  0.8935 -2.9014  4.5381
    1MOL   H481  481   1.215   4.311   6.406 -0.2100 -2.9588  0.3188
    1MOL   H482  482   1.112   4.247   6.282  1.3075 -1.0231  1.3939
    1MOL   H483  483   1.064   4.523   6.427  0.0544 -0.1867  0.1704
    1MOL   H484  484   0.973   4.465   6.297  0.8427 -1.6714 -1.5689
    1MOL   H485  485   0.936   4.251   6.438 -1.2457 -0.7367  1.1737
    1MOL   H486  486   0.990   4.346   6.571 -1.0745  3.3778  1.3666
    1MOL   H487  487   0.820   4.519   6.520 -0.0215 -0.1356 -0.7871
    1MOL   H488  488   0.762   4.435   6.381 -1.1238 -0.0512  0.7066
    1MOL   H489  489   0.730   4.346   6.668  0.9566  1.8472  0.1617
    1MOL   H490  490   0.667   4.261   6.524 -2.6525 -0.6223  2.3911
    1MOL   H491  491   0.599   4.532   6.624  1.4833 -0.7434  0.3136
    1MOL   H492  492   0.529   4.456   6.480  1.0369 -1.8501 -0.5843
    1MOL   H493  493   0.385   4.439   6.708  0.4865  1.6020 -1.4121
    1MOL   H494  494   0.514   4.331   6.758 -0.0703  0.8594  0.3466
    1MOL   H495  495   0.405   4.286   6.631  2.6634 -0.9727 -0.5927
    1MOL   H496  496   1.079   4.738   6.060  1.0339  1.0347 -1.2902
    1MOL   H497  497   1.171   4.693   6.189  2.6490 -3.1359  0.2626
    1MOL   C498  498   1.278   4.820   6.033 -0.7411  0.7160 -0.7948
    1MOL   O499  499   1.400   4.788   6.094 -0.5923 -0.1329 -0.1544
    1MOL   C500  500   1.506   4.824   6.006  0.0847  0.1246 -0.4834
    1MOL   C501  501   1.635   4.756   6.056 -0.3886  0.2487 -0.4069
    1MOL   C502  502   1.642   4.605   6.029 -0.1576  0.2982 -0.5231
    1MOL   C503  503   1.777   4.548   6.072  0.6709 -0.6553 -0.6823
    1MOL   C504  504   1.790   4.402   6.029  0.2458  0.1449  0.3138
    1MOL   C505  505   1.707   4.299   6.111 -0.7141  0.8345 -0.2133
    1MOL   C506  506   1.697   4.158   6.035 -0.4949 -0.6076  0.1989
    1MOL   C507  507   1.816   4.072   6.068  0.0687  0.3670  0.1988
    1MOL   C508  508   1.248   4.956   6.105  0.6950  0.1499 -0.0462
    1MOL   H509  509   1.273   4.826   5.924 -1.8151 -0.9973 -0.8605
    1MOL   H510  510   1.514   4.931   5.987 -1.0985  0.7624  2.2805
    1MOL   H511  511   1.483   4.775   5.912 -0.0044 -1.2567  0.2408
    1MOL   H512  512   1.636   4.772   6.164 -0.4969 -0.6764 -0.2661
    1MOL   H513  513   1.716   4.816   6.014  0.9878  0.6062  2.6227
    1MOL   H514  514   1.560   4.555   6.081 -0.3801  2.2393  1.0441
    1MOL   H515  515   1.628   4.589   5.922  1.1600 -0.1653 -0.6303
    1MOL   H516  516   1.851   4.609   6.021 -0.8301  1.5828 -0.2308
    1MOL   H517  517   1.798   4.549   6.179 -3.7452  0.1973  0.2804
    1MOL   H518  518   1.764   4.395   5.923  0.4001 -0.2035  0.3003
    1MOL   H519  519   1.892   4.364   6.032  0.6393  1.0385 -1.0100
    1MOL   H520  520   1.603   4.332   6.115 -0.3496  2.1105 -0.7734
    1MOL   H521  521   1.737   4.280   6.214 -2.4133 -1.0789 -0.0566
    1MOL   H522  522   1.598   4.115   6.052 -0.5072 -0.0668  1.5688
    1MOL   H523  523   1.698   4.183   5.929 -2.0090  0.3460  0.3954
    1MOL   H524  524   1.837   4.076   6.175 -1.3054 -0.6271  0.5271
    1MOL   H525  525   1.902   4.108   6.013 -0.1609  1.5510  0.6038
    1MOL   H526  526   1.795   3.970   6.035 -0.3171  1.4424 -3.0270
    1MOL   H527  527   1.258   4.931   6.211  2.1620  1.5232  0.1598
    1MOL   H528  528   1.332   5.023   6.086 -0.0862  1.1344 -0.0707
    1MOL   C529  529   1.117   5.030   6.073 -0.0554 -0.7581  0.1873
    1MOL   O530  530   1.127   5.060   5.932 -0.2178 -0.1490  0.0641
    1MOL   C531  531   1.005   5.111   5.871  0.2426 -0.0522 -0.0019
    1MOL   C532  532   1.007   5.065   5.727 -0.1084  0.4619 -0.6494
    1MOL   C533  533   0.972   4.914   5.715  0.0970 -0.7682 -0.9611
    1MOL   C534  534   0.946   4.869   5.579 -0.1897  0.2365 -0.7043
    1MOL   C535  535   0.890   4.728   5.573  0.0880  0.1539  0.0209
    1MOL   C536  536   0.887   4.676   5.428  0.1605  0.6045  0.0608
    1MOL   C537  537   0.862   4.523   5.438 -0.0942 -0.1109 -0.5886
    1MOL   C538  538   0.889   4.451   5.304 -0.3178 -0.6231 -0.3890
    1MOL   C539  539   1.105   5.168   6.145  0.1088  0.3681 -0.3204
    1MOL   H540  540   1.030   4.966   6.086  0.1925 -0.9842  0.7665
    1MOL   H541  541   0.918   5.083   5.929 -0.0725 -0.5147 -0.6871
    1MOL   H542  542   1.003   5.220   5.880  1.1691  0.0491 -0.9006
    1MOL   H543  543   1.108   5.086   5.690 -0.9251  1.7226 -2.2618
    1MOL   H544  544   0.940   5.125   5.665 -2.4584  0.6630  1.9986
    1MOL   H545  545   1.057   4.865   5.763  0.7648  0.3301 -0.9962
    1MOL   H546  546   0.890   4.891   5.784  1.2600 -0.8869  0.4189
    1MOL   H547  547   0.879   4.941   5.534 -0.9792 -0.3614 -0.4945
    1MOL   H548  548   1.042   4.875   5.527  1.5185  0.2080  2.3449
    1MOL   H549  549   0.956   4.662   5.631 -1.0289  0.7309  1.9902
    1MOL   H550  550   0.789   4.730   5.613  0.1935 -0.9902  0.3770
    1MOL   H551  551   0.980   4.694   5.375  0.7601  0.6281  1.1105
    1MOL   H552  552   0.817   4.731   5.365 -1.9374 -2.4148 -0.3469
    1MOL   H553  553   0.925   4.485   5.518  0.3831  3.5055  0.8420
    1MOL   H554  554   0.763   4.506   5.479 -0.4510  3.3927  0.1888
    1MOL   H555  555   0.867   4.519   5.221 -1.6705 -0.1734  0.3411
    1MOL   H556  556   0.837   4.356   5.298  0.1682 -1.0509  1.9384
    1MOL   H557  557   0.994   4.423   5.293 -0.3684 -0.6163 -0.9367
    1MOL   H558  558   1.194   5.225   6.117  1.5064  0.0561  3.1976
    1MOL   H559  559   1.028   5.235   6.108 -0.8861 -0.3804  0.3571
    1MOL   C560  560   1.090   5.165   6.297  0.2643  0.3008  0.3846
    1MOL   O561  561   0.969   5.095   6.323  0.1166  0.5223 -0.0190
    1MOL   C562  562   0.974   5.002   6.426  0.1546  0.5105 -0.0599
    1MOL   C563  563   0.838   4.923   6.438 -0.0251  0.1642  0.5275
    1MOL   C564  564   0.732   5.019   6.484  0.1817  0.3040 -0.1196
    1MOL   C565  565   0.589   4.963   6.476  0.0124 -0.1276  0.0179
    1MOL   C566  566   0.490   5.029   6.573  0.3154 -0.7604 -0.1135
    1MOL   C567  567   0.455   5.171   6.524  0.3239 -0.0190 -0.3351
    1MOL   C568  568   0.331   5.231   6.605 -0.1244 -0.3367 -0.4364
    1MOL   C569  569   0.205   5.145   6.577  0.1529  0.3354 -0.1186
    1MOL   C570  570   1.087   5.308   6.365  0.0302  0.0338 -0.6555
    1MOL   H571  571   1.187   5.125   6.325  0.4596  0.7516  0.3501
    1MOL   H572  572   1.005   5.050   6.519 -0.5739  0.6271  0.1267
    1MOL   H573  573   1.049   4.925   6.408 -0.5094  0.3005 -2.0409
    1MOL   H574  574   0.844   4.838   6.505 -0.5058 -0.2906  0.0030
    1MOL   H575  575   0.807   4.880   6.343  0.6227 -2.4837  1.4891
    1MOL   H576  576   0.759   5.055   6.583  0.5579  1.0609 -0.4887
    1MOL   H577  577   0.737   5.112   6.427 -2.4566  0.0828 -0.7715
    1MOL   H578  578   0.564   4.970   6.370 -1.9444 -0.1895  0.4621
    1MOL   H579  579   0.583   4.859   6.506  1.1640  0.4798  2.5160
    1MOL   H580  580   0.403   4.964   6.579 -0.1321 -0.2473 -0.9872
    1MOL   H581  581   0.536   5.037   6.671  1.1414  0.9917 -0.6197
    1MOL   H582  582   0.433   5.163   6.417 -0.4348  2.7416 -0.4156
    1MOL   H583  583   0.543   5.235   6.526  0.9345 -0.8916  1.8331
    1MOL   H584  584   0.346   5.232   6.713 -0.7063  0.3114 -0.3595
    1MOL   H585  585   0.318   5.333   6.569 -0.9681 -1.1016 -2.3241
    1MOL   H586  586   0.112   5.194   6.606 -0.2003 -1.4814  2.0137
    1MOL   H587  587   0.212   5.055   6.638 -1.3284 -0.2997 -0.8618
    1MOL   H588  588   0.209   5.117   6.472  0.2761  0.7799 -0.2324
    1MOL   H589  589   1.160   5.363   6.306  0.3136 -1.6279 -1.9073
    1MOL   H590  590   0.991   5.356   6.345 -1.3980 -1.5936  1.9793
    1MOL   C591  591   1.128   5.318   6.519  0.6765 -0.2431  0.2479
    1MOL   O592  592   1.131   5.462   6.542  0.0833 -0.1338 -0.3350
    1MOL   C593  593   1.007   5.504   6.601  0.4820 -0.7446 -0.1834
    1MOL   C594  594   1.012   5.657   6.627  0.2681 -0.4347 -0.5537
    1MOL   C595  595   0.882   5.715   6.682 -0.4623  0.0156  0.3336
    1MOL   C596  596   0.879   5.865   6.716  0.0829  0.4119  0.2923
    1MOL   C597  597   0.751   5.914   6.778  0.5576  0.0515  0.0912
    1MOL   C598  598   0.626   5.880   6.691 -0.7674 -0.2370  0.2469
    1MOL   C599  599   0.500   5.941   6.755 -0.9536 -0.3410  0.2661
    1MOL   C600  600   0.475   6.072   6.679  0.5760  0.5605  0.6437
    1MOL   C601  601   1.271   5.272   6.552 -0.0404  0.2167 -0.7613
    1MOL   H602  602   1.059   5.262   6.582  1.3732  0.5362  1.7054
    1MOL   H603  603   0.997   5.458   6.699 -1.0564 -3.0664 -1.3928
    1MOL   H604  604   0.913   5.493   6.546  1.3293 -0.9311 -1.6187
    1MOL   H605  605   1.039   5.719   6.542 -1.5573  1.2123  0.0492
    1MOL   H606  606   1.095   5.681   6.694 -0.9109 -1.3562  1.2563
    1MOL   H607  607   0.807   5.694   6.606  0.9312 -1.4279 -0.6761
    1MOL   H608  608   0.836   5.662   6.766 -3.2406 -1.0783 -1.7967
    1MOL   H609  609   0.967   5.891   6.775  0.5802  2.0024 -1.1163
    1MOL   H610  610   0.883   5.924   6.625  0.3352  1.8814  1.2462
    1MOL   H611  611   0.741   5.876   6.879 -1.8034 -1.4239 -0.6529
    1MOL   H612  612   0.743   6.023   6.771 -2.0631 -0.1155  0.1745
    1MOL   H613  613   0.617   5.772   6.677  2.0856 -0.3531 -1.0919
    1MOL   H614  614   0.646   5.918   6.591 -0.2157  2.5470  1.3832
    1MOL   H615  615   0.417   5.871   6.747  0.1277 -1.5581 -0.5222
    1MOL   H616  616   0.524   5.966   6.858  0.6909 -1.9086  0.2855
    1MOL   H617  617   0.379   6.118   6.701  0.5056  1.7651 -1.9537
    1MOL   H618  618   0.456   6.045   6.575 -0.7168  0.9138  0.7772
    1MOL   H619  619   0.553   6.147   6.692  2.7175 -1.3504 -0.7415
    1MOL   H620  620   1.285   5.165   6.533  1.5625 -0.1192  2.1566
    1MOL   H621  621   1.352   5.330   6.509  2.2508 -1.0972  1.6414
    1MOL   H622  622   1.277   5.271   6.660  0.4578 -0.4227 -0.7906
    2MOL     C1  623   7.074   7.573   5.669 -0.0353  0.4932  0.0873
    2MOL     O2  624   6.949   7.608   5.610  0.6802  0.2302  0.1333
    2MOL     C3  625   6.971   7.682   5.494 -0.5222 -0.3146  0.4108
    2MOL     C4  626   6.832   7.747   5.452 -0.1350 -0.3566  0.0166
    2MOL     C5  627   6.774   0.068   5.557 -0.2412 -0.4039 -0.5795
    2MOL     C6  628   6.629   0.104   5.532 -0.0874  0.0891 -0.5869
    2MOL     C7  629   6.584   0.229   5.605 -0.2458  1.1976  1.0444
    2MOL     C8  630   6.442   0.262   5.556 -0.5064 -0.3682 -0.1914
    2MOL     C9  631   6.390   0.395   5.613  0.1471  0.5683 -1.1326
    2MOL    C10  632   6.234   0.422   5.580  0.0232 -0.1820  0.3591
    2MOL    C11  633   7.052   7.519   5.813 -0.3154  0.4564 -0.5438
    2MOL    H12  634   7.118   7.492   5.611  2.5097  0.2848  2.1951
    2MOL    H13  635   7.018   7.626   5.414  2.4243 -0.8647  2.4110
    2MOL    H14  636   7.043   7.760   5.523  0.6724 -1.8339  1.6256
    2MOL    H15  637   6.762   7.668   5.423  1.1624 -1.2455 -0.7565
    2MOL    H16  638   6.846   0.022   5.356  0.1762 -2.5968 -1.1192
    2MOL    H17  639   6.797   0.041   5.660 -1.9447  1.7630  0.4081
    2MOL    H18  640   6.819   0.166   5.544 -0.9427 -0.0602 -0.4149
    2MOL    H19  641   6.612   0.122   5.426  0.7767  0.2200 -0.7050
    2MOL    H20  642   6.563   0.020   5.554 -1.6711  0.5258 -3.3938
    2MOL    H21  643   6.586   0.223   5.714 -1.6169 -2.6733  0.9409
    2MOL    H22  644   6.647   0.311   5.574  0.1658  0.3322 -0.5013
    2MOL    H23  645   6.377   0.178   5.582 -1.7915  0.5686 -0.2942
    2MOL    H24  646   6.441   0.265   5.447 -0.2940 -1.3175 -0.2200
    2MOL    H25  647   6.395   0.387   5.722  0.6972  0.4445 -1.1689
    2MOL    H26  648   6.449   0.481   5.581  1.0777 -0.2651 -1.6730
    2MOL    H27  649   6.208   0.518   5.623  2.5720  1.0743 -0.7729
    2MOL    H28  650   6.171   0.345   5.624 -1.9446  1.4192  0.3893
    2MOL    H29  651   6.208   0.434   5.475  0.4724  2.9453  0.5673
    2MOL    H30  652   6.984   7.434   5.817  1.2701 -0.7883  0.2270
    2MOL    H31  653   7.143   7.471   5.848 -0.6621  0.1109 -0.1100
    2MOL    H32  654   7.141   7.658   5.682  0.2508 -0.1872  3.4457
    2MOL    C33  655   7.010   7.633   5.911 -0.1059  0.5704  0.4824
    2MOL    O34  656   7.121   7.716   5.934 -0.0879 -0.3629  0.1621
    2MOL    C35  657   7.106   0.079   5.898  0.1330  0.3363  0.9351
    2MOL    C36  658   7.028   0.163   5.993 -0.0677 -0.0691  0.1392
    2MOL    C37  659   7.087   0.163   6.144  0.4097  0.1607 -0.8416
    2MOL    C38  660   6.990   0.248   6.239  0.5086 -0.3361 -0.6586
    2MOL    C39  661   6.875   0.159   6.290 -0.2325  0.6368  0.0826
    2MOL    C40  662   6.761   0.241   6.354 -0.1415  0.0056  0.2618
    2MOL    C41  663   6.672   0.146   6.437 -0.1074  0.2435  0.1726
    2MOL    C42  664   6.558   0.224   6.505 -0.7413 -0.9232 -0.2583
    2MOL    C43  665   6.968   7.587   6.055 -1.0589  0.2467  0.4383
    2MOL    H44  666   6.933   7.694   5.864 -0.6208 -0.5288 -0.1207
    2MOL    H45  667   7.063   0.075   5.798 -0.8528  0.1390  1.3660
    2MOL    H46  668   7.202   0.128   5.881 -0.3734  0.6236 -1.2828
    2MOL    H47  669   6.924   0.131   5.999 -0.4488  0.9876 -0.6075
    2MOL    H48  670   7.013   0.263   5.953  1.4498  0.2537  0.3634
    2MOL    H49  671   7.099   0.063   6.185  2.1585  0.7464  0.1013
    2MOL    H50  672   7.191   0.193   6.145  0.4402  0.0207  1.1035
    2MOL    H51  673   7.048   0.273   6.327 -1.7749 -1.1644  1.1319
    2MOL    H52  674   6.953   0.338   6.191 -1.5572  0.5148  2.4015
    2MOL    H53  675   6.828   0.102   6.209  1.0541 -1.4239  0.7289
    2MOL    H54  676   6.922   0.088   6.359  0.1636 -1.7060 -2.4845
    2MOL    H55  677   6.701   0.299   6.284 -1.3646  0.1690  1.4177
    2MOL    H56  678   6.801   0.321   6.415  0.6251  1.8156 -2.5071
    2MOL    H57  679   6.626   0.067   6.378  0.3957  0.7821 -0.9634
    2MOL    H58  680   6.736   0.109   6.517 -0.1754 -0.3547 -0.0493
    2MOL    H59  681   6.598   0.307   6.563 -1.4081  0.1811 -1.3397
    2MOL    H60  682   6.484   0.161   6.554 -1.7159 -0.5661 -1.2345
    2MOL    H61  683   6.510   0.279   6.423  0.1388 -0.2510 -0.3254
    2MOL    H62  684   7.031   7.509   6.098  0.9091  2.4235  1.6144
    2MOL    H63  685   6.970   7.670   6.126  1.0916 -0.0142  0.7045
    2MOL    C64  686   6.821   7.539   6.056  0.2944 -0.3231 -0.2501
    2MOL    O65  687   6.744   7.658   6.022  0.1500  0.2016 -0.4210
    2MOL    C66  688   6.642   7.642   5.925  0.3551  0.5974  0.3405
    2MOL    C67  689   6.565   7.768   5.901  0.3740 -0.3806  0.3529
    2MOL    C68  690   6.489   0.029   6.032  0.1105  0.0241  0.1850
    2MOL    C69  691   6.439   0.173   6.048 -0.4185 -0.2124  0.0305
    2MOL    C70  692   6.307   0.188   5.981 -0.0296  0.1789 -0.0555
    2MOL    C71  693   6.246   0.324   6.016  0.1267 -0.7801  0.1541
    2MOL    C72  694   6.118   0.353   5.942  0.4945  0.3904  0.7408
    2MOL    C73  695   6.057   0.495   5.967 -0.5012 -0.5499  0.2581
    2MOL    C74  696   6.766   7.490   6.187  0.4376 -0.0717 -0.7962
    2MOL    H75  697   6.802   7.461   5.983 -1.2362 -1.6654  1.5280
    2MOL    H76  698   6.576   7.561   5.956 -1.7064  2.5399  1.0856
    2MOL    H77  699   6.682   7.620   5.825 -4.0072  1.7716 -1.7836
    2MOL    H78  700   6.502   7.737   5.818  0.7706 -0.1079 -0.0553
    2MOL    H79  701   6.643   0.067   5.877 -0.6475  0.7323  0.3885
    2MOL    H80  702   6.408   7.729   6.034 -2.0589  2.3239 -0.0823
    2MOL    H81  703   6.542   0.001   6.123  1.5616 -1.5561 -1.1067
    2MOL    H82  704   6.440   0.208   6.151 -1.1176 -0.9661  0.2982
    2MOL    H83  705   6.515   0.245   6.014  1.6623 -1.5147  1.8106
    2MOL    H84  706   6.317   0.180   5.873 -1.9066  2.4387 -0.4421
    2MOL    H85  707   6.235   0.114   6.017  1.0916 -0.6452  0.5110
    2MOL    H86  708   6.315   0.407   6.000  0.0381 -0.5466  0.9276
    2MOL    H87  709   6.242   0.313   6.125  1.2705 -0.4755  0.2368
    2MOL    H88  710   6.120   0.343   5.833  1.7566 -0.7154  0.8567
    2MOL    H89  711   6.048   0.284   5.989 -1.2092  1.3992 -0.2495
    2MOL    H90  712   6.023   0.496   6.071 -0.3731  0.3055  0.3013
    2MOL    H91  713   5.974   0.521   5.901  0.5610 -0.2439 -0.9730
    2MOL    H92  714   6.137   0.568   5.953 -0.7142 -0.5130 -0.7881
    2MOL    H93  715   6.768   7.572   6.259 -1.2875  2.0144 -3.0167
    2MOL    H94  716   6.662   7.457   6.181  0.1493  0.2038  2.1242
    2MOL    C95  717   6.843   7.368   6.245  0.4339  0.2193  0.3665
    2MOL    O96  718   6.752   7.264   6.272  0.4524 -0.2187 -0.3184
    2MOL    C97  719   6.715   7.186   6.157  0.2090  0.6431  0.4883
    2MOL    C98  720   6.586   7.119   6.194 -1.1869 -0.6435 -0.6332
    2MOL    C99  721   6.473   7.209   6.185  0.0231  0.2817 -0.3092
    2MOL   C100  722   6.349   7.137   6.206  0.1703 -0.2658  0.9265
    2MOL   C101  723   6.222   7.229   6.199 -0.0671 -0.1640 -0.6295
    2MOL   C102  724   6.191   7.308   6.068 -0.3043 -0.3930 -0.4816
    2MOL   C103  725   6.210   7.236   5.938  0.3137 -0.5056 -0.1799
    2MOL   C104  726   6.213   7.333   5.804 -0.4230  0.8677 -0.4012
    2MOL   C105  727   6.929   7.395   6.370 -0.6001  0.3094 -0.4199
    2MOL   H106  728   6.912   7.330   6.169  1.7109  0.6007  1.3191
    2MOL   H107  729   6.795   7.123   6.118  1.0171  1.3803  0.9351
    2MOL   H108  730   6.696   7.252   6.072  1.2596  2.2638  1.4855
    2MOL   H109  731   6.600   7.070   6.290  1.5534 -0.4299 -0.8945
    2MOL   H110  732   6.570   7.036   6.125 -0.1445 -0.8796 -0.6002
    2MOL   H111  733   6.479   7.293   6.255 -4.8964  1.1741 -0.7503
    2MOL   H112  734   6.482   7.244   6.082  2.1848  0.8770  0.0688
    2MOL   H113  735   6.340   7.045   6.149  2.4923  0.8535 -1.3131
    2MOL   H114  736   6.347   7.108   6.311  0.7937 -1.5637  0.5840
    2MOL   H115  737   6.130   7.177   6.225 -0.7775  0.0486 -2.6494
    2MOL   H116  738   6.231   7.305   6.277  2.8486  0.9249 -1.9624
    2MOL   H117  739   6.264   7.389   6.080  0.7292 -1.4189  0.3204
    2MOL   H118  740   6.090   7.348   6.069 -0.1178  0.1574 -2.4973
    2MOL   H119  741   6.310   7.194   5.933  0.8830  0.5321  2.0884
    2MOL   H120  742   6.138   7.155   5.942 -0.2441  0.0221  0.5172
    2MOL   H121  743   6.143   7.416   5.799 -1.2725  0.1198 -1.0314
    2MOL   H122  744   6.216   7.265   5.718  1.8353  2.7594 -1.8825
    2MOL   H123  745   6.315   7.372   5.799 -0.3935  0.6635 -1.5390
    2MOL   H124  746   7.016   7.330   6.373 -0.1568  0.9350  1.0067
    2MOL   H125  747   6.974   7.494   6.361 -0.7493  0.3198 -1.0792
    2MOL   C126  748   6.850   7.384   6.500 -0.3494  0.5039 -0.3726
    2MOL   O127  749   6.767   7.506   6.512 -0.4912  0.6882  0.1896
    2MOL   C128  750   6.633   7.483   6.543 -0.2211  0.2496 -0.2087
    2MOL   C129  751   6.574   7.613   6.598  0.2447  0.0049 -0.8707
    2MOL   C130  752   6.452   7.587   6.688  0.1935  0.5519  0.1815
    2MOL   C131  753   6.498   7.530   6.827  0.4493 -0.9648  0.9009
    2MOL   C132  754   6.402   7.421   6.880 -0.2773 -0.3223  0.5427
    2MOL   C133  755   6.429   7.281   6.822 -0.7609  0.2317 -0.0613
    2MOL   C134  756   6.344   7.172   6.884  0.0154 -1.1257  0.6223
    2MOL   C135  757   6.412   7.126   7.008 -0.8648 -0.1794  0.0181
    2MOL   C136  758   6.932   7.376   6.629 -0.0040  0.4061 -0.3722
    2MOL   H137  759   6.780   7.301   6.495 -1.2433  1.1512  1.1013
    2MOL   H138  760   6.630   7.411   6.624  1.4796 -1.0425 -1.2706
    2MOL   H139  761   6.580   7.434   6.462 -0.0949  2.0720 -1.4172
    2MOL   H140  762   6.536   7.677   6.518  0.6631 -0.2557 -1.2745
    2MOL   H141  763   6.644   7.683   6.644 -0.1649 -0.8796  1.1763
    2MOL   H142  764   6.391   7.676   6.700  1.7553  1.4708  1.5622
    2MOL   H143  765   6.387   7.517   6.636  0.1193  0.5014  0.3428
    2MOL   H144  766   6.599   7.492   6.837  1.4895  1.5955  0.5822
    2MOL   H145  767   6.497   7.612   6.899  0.6325 -0.5730  0.4596
    2MOL   H146  768   6.423   7.416   6.987  0.7090 -1.1190  0.3224
    2MOL   H147  769   6.297   7.450   6.876 -0.8049 -1.9721  1.9910
    2MOL   H148  770   6.532   7.245   6.819 -0.8519 -0.0013 -0.3344
    2MOL   H149  771   6.402   7.297   6.718  2.1466  1.4340 -0.6635
    2MOL   H150  772   6.244   7.201   6.917  0.4952  2.2415 -0.6422
    2MOL   H151  773   6.329   7.088   6.816  1.5155  0.4521 -1.7595
    2MOL   H152  774   6.356   7.045   7.055 -2.4403 -0.0911 -1.6773
    2MOL   H153  775   6.419   7.208   7.079  0.3842  0.8415 -1.2530
    2MOL   H154  776   6.515   7.090   7.000 -0.6006  0.1468  1.6596
    2MOL   H155  777   7.009   7.453   6.622  0.6657 -0.1014  1.2027
    2MOL   H156  778   6.864   7.401   6.711  0.6157 -0.6828  0.4995
    2MOL   C157  779   6.991   7.236   6.658  0.3985 -0.3015 -0.3059
    2MOL   O158  780   6.882   7.147   6.690  0.0090 -0.2689 -0.5183
    2MOL   C159  781   6.861   7.049   6.590  0.0309  1.2211 -0.0489
    2MOL   C160  782   6.733   6.981   6.632 -1.2245 -0.4289  0.0824
    2MOL   C161  783   6.746   6.901   6.766 -0.4536  0.8269  0.5909
    2MOL   C162  784   6.617   6.823   6.779 -1.1372  0.0633 -0.4795
    2MOL   C163  785   6.614   6.749   6.919  0.3970  0.1133 -0.0250
    2MOL   C164  786   6.635   6.597   6.904  0.4275 -0.5704 -0.3305
    2MOL   C165  787   6.638   6.520   7.032  0.1485  0.4471  0.4716
    2MOL   C166  788   6.685   6.372   7.020  0.4137  0.1920 -0.0231
    2MOL   C167  789   7.080   7.255   6.770  0.0099 -0.4201 -0.7590
    2MOL   H168  790   7.045   7.200   6.571 -1.8353 -1.3039 -1.3069
    2MOL   H169  791   6.942   6.977   6.591  1.2995  2.5383  4.2009
    2MOL   H170  792   6.860   7.101   6.495  0.5132  0.7944 -0.2868
    2MOL   H171  793   6.694   6.913   6.556 -0.6924 -1.9591  1.1551
    2MOL   H172  794   6.664   7.062   6.656 -0.7029 -0.7258  2.7251
    2MOL   H173  795   6.836   6.840   6.761 -1.3668 -0.3747 -2.2849
    2MOL   H174  796   6.758   6.971   6.849  0.1853  4.1237 -2.1470
    2MOL   H175  797   6.532   6.891   6.779 -0.3492  1.0651 -2.6756
    2MOL   H176  798   6.604   6.757   6.694  0.4381 -0.9946  0.0572
    2MOL   H177  799   6.681   6.789   6.994  1.6438 -0.1670 -0.9761
    2MOL   H178  800   6.512   6.771   6.952  0.3303  0.2864 -0.3372
    2MOL   H179  801   6.729   6.577   6.852 -0.1020 -1.1430 -1.0904
    2MOL   H180  802   6.568   6.543   6.837 -1.7735  1.5088  0.1511
    2MOL   H181  803   6.714   6.573   7.090  3.2902 -2.0182 -1.2523
    2MOL   H182  804   6.536   6.517   7.070 -1.2369  1.2907 -3.0036
    2MOL   H183  805   6.593   6.314   7.032  0.5490  0.1720  0.9232
    2MOL   H184  806   6.759   6.345   7.095 -0.6815  1.5250  1.5814
    2MOL   H185  807   6.721   6.346   6.920 -0.3300 -1.1090  0.0239
    2MOL   H186  808   7.041   7.335   6.832  0.8189 -1.5510  1.2422
    2MOL   H187  809   7.073   7.171   6.838  0.1972  1.5255  1.7397
    2MOL   C188  810   7.224   7.285   6.732  0.2513  0.2733 -0.7602
    2MOL   O189  811   7.292   7.160   6.734  0.1603  0.3548 -0.1243
    2MOL   C190  812   7.406   7.166   6.645 -0.2947  0.7624 -0.0013
    2MOL   C191  813   7.457   7.028   6.606  0.2022 -0.0143 -0.0981
    2MOL   C192  814   7.602   7.023   6.569  0.3163  0.0704 -0.0393
    2MOL   C193  815   7.695   7.053   6.688 -0.2383  0.3481 -0.1023
    2MOL   C194  816   0.062   7.007   6.657  0.3955 -0.1940  0.3972
    2MOL   C195  817   0.153   7.075   6.558 -0.3889  0.6730  0.1304
    2MOL   C196  818   0.280   7.000   6.536  0.0331  0.0582  0.3291
    2MOL   C197  819   0.408   7.085   6.510 -0.9850  0.1338  0.4482
    2MOL   C198  820   7.291   7.382   6.834  0.0279  0.2968  0.6272
    2MOL   H199  821   7.229   7.332   6.635 -3.1318  0.0583 -1.0837
    2MOL   H200  822   7.378   7.200   6.545 -1.0906 -1.7413 -0.6510
    2MOL   H201  823   7.483   7.228   6.692 -1.3965  1.4934  0.8570
    2MOL   H202  824   7.406   6.987   6.519 -0.1007 -5.0822  2.3105
    2MOL   H203  825   7.442   6.957   6.687  0.2800  1.0101  0.8319
    2MOL   H204  826   7.618   6.925   6.523  1.5016  0.2153  0.0523
    2MOL   H205  827   7.626   7.091   6.487  1.4668 -1.7811 -1.2888
    2MOL   H206  828   7.693   7.157   6.720  2.4871  0.7779 -1.1465
    2MOL   H207  829   7.662   6.989   6.769 -1.0845  0.2028 -0.5575
    2MOL   H208  830   0.110   7.004   6.754  0.6888 -1.7675  0.2149
    2MOL   H209  831   0.049   6.901   6.639  0.4391 -0.4205  1.7080
    2MOL   H210  832   0.174   7.173   6.601  2.4320  0.3604 -0.4424
    2MOL   H211  833   0.102   7.097   6.464 -1.1538 -0.3196  0.3047
    2MOL   H212  834   0.291   6.935   6.623 -0.5951  0.0839  0.4261
    2MOL   H213  835   0.267   6.919   6.464 -0.6947 -0.5072  1.0825
    2MOL   H214  836   0.486   7.025   6.462  0.6625  2.5901  0.0027
    2MOL   H215  837   0.442   7.133   6.602 -0.8416  1.0594 -0.0880
    2MOL   H216  838   0.381   7.163   6.439  1.1125 -0.2976 -0.8672
    2MOL   H217  839   7.264   7.345   6.933 -0.2038 -2.8923 -0.5686
    2MOL   H218  840   7.400   7.379   6.829  0.0301 -3.0167  1.3431
    2MOL   C219  841   7.257   7.531   6.833 -0.3310 -0.1359  0.8503
    2MOL   O220  842   7.249   7.568   6.700  0.2388 -0.8049  0.1072
    2MOL   C221  843   7.171   7.683   6.676 -0.2292 -0.5263  0.0481
    2MOL   C222  844   7.198   7.746   6.541 -0.3023  0.3447 -0.0245
    2MOL   C223  845   7.343   0.005   6.523 -0.6060 -0.6024  0.0288
    2MOL   C224  846   7.372   0.108   6.413  0.2173 -0.9073 -0.2946
    2MOL   C225  847   7.520   0.163   6.413  0.7312 -0.3727 -0.5536
    2MOL   C226  848   7.536   0.279   6.324  0.5399 -0.5670 -0.1520
    2MOL   C227  849   7.679   0.337   6.321 -0.1204 -0.5199  0.4462
    2MOL   C228  850   0.008   0.258   6.240 -0.5138 -0.1696 -0.1250
    2MOL   C229  851   7.370   7.616   6.894 -0.9005  0.5192  0.4886
    2MOL   H230  852   7.164   7.537   6.889 -1.1935 -0.2866 -0.5230
    2MOL   H231  853   7.198   7.753   6.755  2.6334 -0.7559 -0.6650
    2MOL   H232  854   7.065   7.668   6.696 -0.4065 -0.2181 -0.6115
    2MOL   H233  855   7.135   0.061   6.533 -0.5874  0.0436 -1.1344
    2MOL   H234  856   7.163   7.672   6.469  0.5600  0.5856 -0.6889
    2MOL   H235  857   7.386   0.031   6.619 -0.5198  0.1645 -0.2174
    2MOL   H236  858   7.399   7.689   6.496  0.4695 -0.2717  1.1182
    2MOL   H237  859   7.341   0.065   6.318 -1.9930  1.6646 -0.7884
    2MOL   H238  860   7.306   0.194   6.426 -0.6630 -1.3815 -1.5463
    2MOL   H239  861   7.538   0.195   6.515  1.2843 -1.6848 -0.2249
    2MOL   H240  862   7.590   0.081   6.395  1.0781  0.0502 -1.1595
    2MOL   H241  863   7.471   0.357   6.362  1.6348  0.6171 -0.6613
    2MOL   H242  864   7.502   0.258   6.222 -0.5817 -2.9567  0.6841
    2MOL   H243  865   7.693   0.437   6.280 -0.9042 -1.2575 -1.6827
    2MOL   H244  866   7.714   0.352   6.423 -2.6656  0.6422  1.1846
    2MOL   H245  867   7.747   0.155   6.234  0.8371 -0.6960  0.8945
    2MOL   H246  868   0.103   0.274   6.289 -1.4259  1.3110  1.1943
    2MOL   H247  869   0.019   0.302   6.141 -1.0558  0.7508  0.2209
    2MOL   H248  870   7.470   7.579   6.869 -1.5456  0.4531 -2.2068
    2MOL   H249  871   7.384   7.718   6.859  1.1299  0.4290  0.9860
    2MOL   C250  872   7.352   7.631   7.047 -0.4277 -0.3103  0.0579
    2MOL   O251  873   7.230   7.689   7.060  0.0601  0.6861 -0.0602
    2MOL   C252  874   7.148   7.650   7.162 -0.3400 -0.6672 -0.0712
    2MOL   C253  875   7.030   7.743   7.180  0.2284  0.0977  0.2920
    2MOL   C254  876   6.940   7.754   7.053 -0.0138  0.0760 -0.1683
    2MOL   C255  877   6.821   0.072   7.078  0.2710 -0.9641  0.0158
    2MOL   C256  878   6.711   0.073   6.968  0.4798 -0.4442  0.1121
    2MOL   C257  879   6.605   0.176   6.995 -0.5139  0.3075 -0.6774
    2MOL   C258  880   6.503   0.184   6.878 -0.9386 -0.2043 -0.3702
    2MOL   C259  881   6.406   0.298   6.892  0.4227 -0.2329 -0.0172
    2MOL   C260  882   7.467   7.722   7.110  0.4087 -0.1195 -0.4912
    2MOL   H261  883   7.361   7.528   7.081  0.2011 -0.6150 -1.0120
    2MOL   H262  884   7.201   7.660   7.257  0.9906 -0.5485 -0.8223
    2MOL   H263  885   7.112   7.548   7.144  0.6352 -0.5708 -2.7407
    2MOL   H264  886   7.084   0.061   7.201  0.0744  0.0229  1.0256
    2MOL   H265  887   6.988   7.706   7.273  0.8897  0.3731  0.7031
    2MOL   H266  888   7.005   0.006   6.970 -0.1740  0.8483 -0.0520
    2MOL   H267  889   6.892   7.663   7.018  0.8886 -0.0132 -1.2052
    2MOL   H268  890   6.787   0.050   7.179 -1.3928 -1.1711 -0.5775
    2MOL   H269  891   6.868   0.171   7.084  0.6441 -1.2321  1.6132
    2MOL   H270  892   6.757   0.096   6.872  0.4214  2.1184  0.6787
    2MOL   H271  893   6.661   7.752   6.951  2.2014 -1.6430  1.5014
    2MOL   H272  894   6.655   0.271   7.011 -0.9898  0.6941 -1.4566
    2MOL   H273  895   6.556   0.145   7.088  2.2899  1.4403  1.2347
    2MOL   H274  896   6.557   0.185   6.783 -0.5659  1.8237 -0.1569
    2MOL   H275  897   6.443   0.094   6.865  0.0791 -0.6137 -2.3646
    2MOL   H276  898   6.451   0.395   6.912  1.0735 -0.2705 -1.2446
    2MOL   H277  899   6.338   0.280   6.975  1.0622 -1.6488  0.2057
    2MOL   H278  900   6.352   0.324   6.801  2.6962  1.5132 -0.9335
    2MOL   H279  901   7.466   0.046   7.064  0.1340  0.4997  0.8088
    2MOL   H280  902   7.448   7.738   7.216  1.0632 -0.7950 -0.2675
    2MOL   C281  903   7.612   7.671   7.108  0.1518  0.5385 -0.0635
    2MOL   O282  904   7.630   7.546   7.160  0.6026  0.1248  0.5550
    2MOL   C283  905   7.698   7.451   7.081 -0.4337 -0.3707  0.2302
    2MOL   C284  906   7.674   7.303   7.116  0.0145  0.1334  0.1883
    2MOL   C285  907   7.547   7.247   7.059 -0.0074 -0.5990  0.3906
    2MOL   C286  908   7.487   7.123   7.141 -0.3840  0.7703 -0.5480
    2MOL   C287  909   7.363   7.060   7.082 -0.2245 -0.3061 -0.0458
    2MOL   C288  910   7.294   6.955   7.177 -0.1864 -0.5465 -0.7717
    2MOL   C289  911   7.173   6.876   7.124 -0.3742  0.0282 -0.1982
    2MOL   C290  912   7.119   6.777   7.226 -0.2362  0.1001  0.0683
    2MOL   C291  913   7.710   7.755   7.200  0.3272 -0.5788 -0.3293
    2MOL   H292  914   7.646   7.669   7.004 -2.3412  0.2521 -0.9000
    2MOL   H293  915   0.030   7.468   7.096 -0.3544  1.1827 -1.9287
    2MOL   H294  916   7.677   7.451   6.974  0.4095 -0.5913  0.0599
    2MOL   H295  917   7.675   7.315   7.225  0.5953  1.6140  0.0339
    2MOL   H296  918   7.748   7.226   7.096 -0.3174 -0.3907  0.9434
    2MOL   H297  919   7.474   7.325   7.080  0.8691  1.0773 -2.5483
    2MOL   H298  920   7.550   7.233   6.951  1.1683 -0.1092  0.3452
    2MOL   H299  921   7.571   7.054   7.150 -1.3114 -0.2162  0.7338
    2MOL   H300  922   7.455   7.155   7.240 -1.6197 -1.9086 -0.0352
    2MOL   H301  923   7.289   7.137   7.064 -0.1950 -0.4320 -0.7238
    2MOL   H302  924   7.380   7.020   6.981  0.3469  0.0016 -0.0729
    2MOL   H303  925   7.259   6.996   7.272  1.4064 -1.6313  0.3304
    2MOL   H304  926   7.367   6.879   7.205 -1.1111 -1.6180 -1.2732
    2MOL   H305  927   7.092   6.943   7.096  0.7819  0.1576 -3.4323
    2MOL   H306  928   7.204   6.820   7.036 -1.2653  1.2208 -1.2760
    2MOL   H307  929   7.042   6.716   7.180 -0.0394 -0.5319  0.5560
    2MOL   H308  930   7.061   6.834   7.298 -0.0383  2.0403 -1.2953
    2MOL   H309  931   7.190   6.716   7.283 -1.4791 -0.2927  1.2398
    2MOL   H310  932   7.658   7.765   7.295  1.2878  0.2440  0.1283
    2MOL   H311  933   0.028   7.703   7.227 -0.0074 -1.7287 -1.3598
    2MOL   C312  934   7.727   0.128   7.149 -0.4369 -0.3016 -0.0449
    2MOL   O313  935   0.040   0.111   7.042  0.5684 -0.6512 -0.1623
    2MOL   C314  936   0.007   0.198   6.937  0.6172  0.0354  0.2056
    2MOL   C315  937   0.102   0.154   6.827 -0.1534 -0.0945 -0.1228
    2MOL   C316  938   0.103   0.004   6.785 -0.2812  0.0201 -1.1364
    2MOL   C317  939   7.744   7.729   6.724  0.2804 -0.3587  0.1749
    2MOL   C318  940   7.759   7.584   6.675 -0.4906  0.1107 -0.7504
    2MOL   C319  941   0.073   7.578   6.545 -0.2132 -0.9030 -0.1694
    2MOL   C320  942   0.077   7.440   6.475  0.1818 -0.7080 -0.0984
    2MOL   C321  943   7.752   7.436   6.352 -0.0226 -0.0181  0.4414
    2MOL   C322  944   0.007   0.224   7.252  0.4049 -0.5064 -0.2831
    2MOL   H323  945   7.630   0.172   7.128 -1.2004 -1.2502  1.3443
    2MOL   H324  946   0.033   0.302   6.957 -2.0733  0.9593 -0.8480
    2MOL   H325  947   7.676   0.187   6.911  0.2908  1.6891  0.7663
    2MOL   H326  948   0.209   0.167   6.846 -0.0705 -0.8232 -0.0429
    2MOL   H327  949   0.076   0.209   6.738  1.5614  1.6101  0.3891
    2MOL   H328  950   0.183   7.760   6.713  0.9147  1.5758 -0.2451
    2MOL   H329  951   0.132   7.719   6.872  0.2751  0.1459 -1.2311
    2MOL   H330  952   7.666   7.730   6.800  0.7304  0.3314  0.6259
    2MOL   H331  953   7.712   0.029   6.651  0.6937  0.7072  1.0727
    2MOL   H332  954   7.770   7.513   6.757 -2.1858  1.3819  0.6216
    2MOL   H333  955   7.660   7.556   6.639 -0.3482 -2.2078  0.5975
    2MOL   H334  956   0.174   7.605   6.577 -0.0851 -0.1052 -1.2056
    2MOL   H335  957   0.053   7.664   6.480  1.2142  0.3241  0.9719
    2MOL   H336  958   0.178   7.438   6.434  0.6916 -0.9067  1.1435
    2MOL   H337  959   0.057   7.357   6.543  1.9890 -1.1403 -0.0895
    2MOL   H338  960   7.646   7.448   6.374  0.4503 -0.1857  2.9410
    2MOL   H339  961   7.753   7.343   6.295  2.9899  0.6171 -0.6676
    2MOL   H340  962   0.009   7.514   6.283  0.1596 -0.9472 -0.5466
    2MOL   H341  963   0.096   0.185   7.301  0.8401  0.5219 -0.2292
    2MOL   H342  964   0.050   0.320   7.223  0.5066 -0.8181 -1.1733
    2MOL   C343  965   7.695   0.253   7.376 -0.2542 -0.2916 -0.3356
    2MOL   O344  966   7.576   0.311   7.326 -0.3140  0.0479  0.4113
    2MOL   C345  967   7.457   0.274   7.391  0.1501 -0.1034 -0.5213
    2MOL   C346  968   7.343   0.327   7.313 -0.0312 -0.3198  0.6065
    2MOL   C347  969   7.324   0.287   7.167 -0.5788 -0.1932 -0.2440
    2MOL   C348  970   7.212   0.364   7.101  0.3185 -0.2910 -0.0146
    2MOL   C349  971   7.217   0.351   6.946  0.3153  0.5946 -0.3690
    2MOL   C350  972   7.110   0.429   6.867 -0.6620 -0.4367 -0.6001
    2MOL   C351  973   7.115   0.382   6.723  0.2855  0.3801 -1.2594
    2MOL   C352  974   7.034   0.264   6.694  0.3919  0.0571  0.5508
    2MOL   C353  975   7.761   0.358   7.474  0.7624  0.0006 -0.2420
    2MOL   H354  976   7.679   0.159   7.430  2.8641 -0.8406 -0.2878
    2MOL   H355  977   7.443   0.304   7.495  1.5176  1.1482 -0.6712
    2MOL   H356  978   7.447   0.167   7.407 -1.7163 -0.0997 -1.5647
    2MOL   H357  979   7.342   0.435   7.332 -0.1458  0.3135 -2.6999
    2MOL   H358  980   7.257   0.299   7.375  0.0970 -0.2174  0.8300
    2MOL   H359  981   7.418   0.300   7.114 -0.3390 -0.3435  0.1384
    2MOL   H360  982   7.295   0.182   7.163  1.4147 -0.7095 -1.9918
    2MOL   H361  983   7.112   0.345   7.140  1.2823  1.5487  3.5268
    2MOL   H362  984   7.231   0.471   7.114 -0.4761 -0.4777  3.0157
    2MOL   H363  985   7.316   0.382   6.916  0.2263  1.4849  0.2444
    2MOL   H364  986   7.213   0.247   6.913 -2.9822  0.4902  0.1157
    2MOL   H365  987   7.121   0.537   6.876  2.4733 -0.6222 -1.6674
    2MOL   H366  988   7.009   0.415   6.906 -0.1659  0.4991  1.0735
    2MOL   H367  989   7.077   0.471   6.673 -2.1610 -0.1442 -0.4375
    2MOL   H368  990   7.220   0.370   6.695  0.1688  0.9198 -1.9334
    2MOL   H369  991   6.930   0.289   6.718 -0.1529 -0.7037 -0.9444
    2MOL   H370  992   7.058   0.171   6.747  2.7129  0.2328 -0.1771
    2MOL   H371  993   7.032   0.242   6.588  0.5384 -2.2806  0.9943
    2MOL   H372  994   0.026   0.449   7.430  0.3872 -0.9798 -2.6506
    2MOL   H373  995   7.680   0.401   7.533  2.9510  1.2720  1.9259
    2MOL   C374  996   0.095   0.312   7.574  0.1555  0.2797 -0.1015
    2MOL   O375  997   0.057   0.377   7.690 -0.5603  0.2489  0.3591
    2MOL   C376  998   0.029   0.299   0.029  0.4489 -0.2614 -1.0437
    2MOL   C377  999   7.761   0.390   0.141 -0.1416 -0.0794  0.4135
    2MOL   C378 1000   7.732   0.292   0.264 -0.2167 -0.9997  0.3784
    2MOL   C379 1001   7.720   0.349   0.398  0.4487  0.1100 -0.0538
    2MOL   C380 1002   7.648   0.256   0.498 -0.5416  0.4586 -0.2301
    2MOL   C381 1003   7.501   0.221   0.472  0.1557  0.1640 -0.5676
    2MOL   C382 1004   7.424   0.120   0.556 -0.4618 -0.3215 -0.1755
    2MOL   C383 1005   7.476   7.752   0.532 -0.3665 -0.4741 -0.8398
    2MOL   C384 1006   0.238   0.349   7.527 -0.0671 -0.0832  0.0522
    2MOL   H385 1007   0.086   0.204   7.581  0.9759  0.3109  1.6966
    2MOL   H386 1008   0.116   0.238   0.054 -0.0514 -0.1248  1.0877
    2MOL   H387 1009   7.727   0.229   7.769  0.1124 -0.9096  0.9807
    2MOL   H388 1010   7.669   0.444   0.120 -1.1512 -1.8529  0.1797
    2MOL   H389 1011   0.070   0.456   0.164 -0.3509  0.2875  0.1103
    2MOL   H390 1012   7.647   0.226   0.247 -2.6988  2.1854 -0.1940
    2MOL   H391 1013   0.041   0.224   0.275 -0.2088 -0.7195  2.1872
    2MOL   H392 1014   0.042   0.388   0.430 -0.0054  0.3184  1.0762
    2MOL   H393 1015   7.661   0.440   0.396  1.2895  0.6555 -0.7465
    2MOL   H394 1016   7.699   0.161   0.513 -1.7973 -0.4202 -1.4269
    2MOL   H395 1017   7.650   0.295   0.600 -2.5610 -1.0524  0.4272
    2MOL   H396 1018   7.491   0.177   0.373  0.1961 -0.1959 -0.4122
    2MOL   H397 1019   7.439   0.310   0.466  1.6681  1.1644 -1.5907
    2MOL   H398 1020   7.442   0.143   0.661 -0.4984 -2.5000  0.3436
    2MOL   H399 1021   7.316   0.134   0.547 -0.2567  1.4845 -0.0711
    2MOL   H400 1022   7.427   7.674   0.589 -1.7075 -0.0876 -1.4423
    2MOL   H401 1023   7.570   7.757   0.586 -0.5258  1.2276 -0.6753
    2MOL   H402 1024   7.497   7.724   0.429  0.5196 -1.5160 -0.3858
    2MOL   H403 1025   0.249   0.311   7.426  1.5770 -0.3004  0.2954
    2MOL   H404 1026   0.242   0.458   7.531 -0.1112 -0.0592 -0.5860
    2MOL   C405 1027   0.357   0.291   7.606 -0.1832  0.0910  0.2845
    2MOL   O406 1028   0.478   0.351   7.561 -0.1206 -0.2208  0.2220
    2MOL   C407 1029   0.495   0.489   7.582  0.9291 -0.1866 -0.4642
    2MOL   C408 1030   0.632   0.526   7.536 -0.1002  0.4477 -0.1411
    2MOL   C409 1031   0.673   0.660   7.584  0.0291 -0.8221 -0.7326
    2MOL   C410 1032   0.815   0.704   7.553  0.5810  0.0884  0.1411
    2MOL   C411 1033   0.927   0.603   7.591  0.2681 -0.0772 -0.5141
    2MOL   C412 1034   1.070   0.657   7.598  0.0520  0.1796 -0.7103
    2MOL   C413 1035   1.160   0.575   7.690  0.4251  0.2675 -0.3324
    2MOL   C414 1036   1.308   0.567   7.653 -0.5426 -0.1902 -0.7286
    2MOL   C415 1037   0.377   0.137   7.580  0.4674 -0.1406 -0.9478
    2MOL   H416 1038   0.351   0.301   7.714 -3.3767 -1.3905  0.2903
    2MOL   H417 1039   0.483   0.512   7.688 -3.0083  1.9217 -1.2852
    2MOL   H418 1040   0.426   0.548   7.521 -2.4767 -2.4804  1.0002
    2MOL   H419 1041   0.635   0.510   7.428  1.7578 -2.7645  0.3179
    2MOL   H420 1042   0.694   0.453   7.587  1.6625  2.7238  1.0349
    2MOL   H421 1043   0.608   0.736   7.540  0.3597  0.1773  0.4903
    2MOL   H422 1044   0.639   0.670   7.687 -1.3215  3.9841 -1.5539
    2MOL   H423 1045   0.819   0.725   7.446 -0.1161  2.4248  0.5442
    2MOL   H424 1046   0.846   0.795   7.604 -0.2040  0.0091  0.7612
    2MOL   H425 1047   0.906   0.568   7.692 -0.5472 -0.6191 -0.8664
    2MOL   H426 1048   0.917   0.513   7.530  0.0176 -0.5760  0.2597
    2MOL   H427 1049   1.052   0.758   7.636 -0.3539 -1.1787  2.9054
    2MOL   H428 1050   1.115   0.668   7.499  4.2835  1.1853  1.1758
    2MOL   H429 1051   1.146   0.610   0.019 -1.6499  1.4093 -0.9717
    2MOL   H430 1052   1.131   0.471   7.683  0.4280  0.1478  1.2655
    2MOL   H431 1053   1.324   0.525   7.554 -1.3348  0.2232 -1.0411
    2MOL   H432 1054   1.354   0.510   7.733 -1.0182 -1.2075 -1.1725
    2MOL   H433 1055   1.346   0.669   7.641  0.0478 -0.5282 -1.8127
    2MOL   H434 1056   0.313   0.113   7.495  0.0940 -0.8634 -0.4705
    2MOL   H435 1057   0.481   0.119   7.553  0.4551 -1.2315 -0.2911
    2MOL   C436 1058   0.332   0.028   7.679  0.4109 -0.0533  0.6551
    2MOL   O437 1059   0.187   0.013   7.675 -0.2578 -0.5325 -0.0981
    2MOL   C438 1060   0.141   7.669   7.612 -0.1559  0.7650 -0.6167
    2MOL   C439 1061   7.762   7.663   7.610  0.2400 -0.1307 -0.0647
    2MOL   C440 1062   7.707   7.539   7.532 -0.4986 -0.0622  0.1432
    2MOL   C441 1063   7.553   7.527   7.519  0.1495  0.5089  0.3411
    2MOL   C442 1064   7.491   7.389   7.482  0.7461  0.2405  0.2391
    2MOL   C443 1065   7.329   7.396   7.480 -0.0252 -0.0266 -0.5978
    2MOL   C444 1066   7.259   7.289   7.394  0.1060  0.1088  0.1079
    2MOL   C445 1067   7.104   7.291   7.406  0.1408  0.1418  0.1051
    2MOL   C446 1068   0.367   0.047   0.049  0.0273 -0.5607 -0.3968
    2MOL   H447 1069   0.375   7.711   7.637  2.1039  0.7532  0.6051
    2MOL   H448 1070   0.188   7.677   7.514 -0.1241 -0.4241 -0.7079
    2MOL   H449 1071   0.186   7.582   7.659 -1.8808  0.0963 -0.1528
    2MOL   H450 1072   7.723   7.753   7.563  3.3217  1.2406 -0.0702
    2MOL   H451 1073   7.730   7.654   7.714  1.3365  0.2179  0.3108
    2MOL   H452 1074   7.749   7.540   7.431 -2.0315 -0.0240 -0.5104
    2MOL   H453 1075   7.743   7.452   7.586  0.1901 -1.8322 -3.0168
    2MOL   H454 1076   7.502   7.555   7.612 -0.7860 -1.7942  0.5648
    2MOL   H455 1077   7.516   7.597   7.444 -0.4816 -1.8520 -1.6002
    2MOL   H456 1078   7.535   7.371   7.384 -0.8757  0.8936 -0.6278
    2MOL   H457 1079   7.536   7.309   7.540  0.6200 -1.3869 -1.8503
    2MOL   H458 1080   7.309   7.495   7.440 -0.4652  0.5468  1.0173
    2MOL   H459 1081   7.304   7.388   7.586  0.0481  0.9808 -0.5024
    2MOL   H460 1082   7.285   7.315   7.291 -1.7398  1.8558  0.0649
    2MOL   H461 1083   7.285   7.184   7.413  1.3584  0.4687  0.4302
    2MOL   H462 1084   7.075   7.266   7.509 -0.0674  1.7094  0.4385
    2MOL   H463 1085   7.066   7.213   7.340  0.9274  0.1264 -0.3315
    2MOL   H464 1086   7.068   7.388   7.374  2.8071  0.9282 -0.6282
    2MOL   H465 1087   0.468   0.087   0.055 -0.3437  0.5749 -1.5041
    2MOL   H466 1088   0.317   0.130   0.100  3.1074  0.7301  0.6174
    2MOL   C467 1089   0.366   7.700   0.143  0.3535 -0.1320  1.3210
    2MOL   O468 1090   0.379   7.761   0.269 -0.3331 -0.8139  0.5884
    2MOL   C469 1091   0.252   0.007   0.336  0.2963 -0.0358 -0.0318
    2MOL   C470 1092   0.198   7.664   0.421  0.1076 -0.1440  0.0641
    2MOL   C471 1093   0.151   7.532   0.362 -0.1405 -0.1863  0.2351
    2MOL   C472 1094   0.024   7.548   0.276 -0.0102 -0.1953 -0.3590
    2MOL   C473 1095   7.738   7.438   0.202  1.2501 -0.1303  0.0089
    2MOL   C474 1096   7.592   7.466   0.193 -0.0760  0.7049  0.2694
    2MOL   C475 1097   7.528   7.381   0.079  0.4683 -0.0378  0.0549
    2MOL   C476 1098   7.524   7.231   0.108  0.5728  0.8013 -0.5787
    2MOL   C477 1099   0.487   7.603   0.125  0.6788 -0.5432  0.0401
    2MOL   H478 1100   0.270   7.650   0.131  0.8870 -0.5508 -1.6443
    2MOL   H479 1101   0.168   0.020   0.267 -1.4841  1.4847  2.3325
    2MOL   H480 1102   0.253   0.095   0.400  0.4985 -2.0018  2.7268
    2MOL   H481 1103   0.125   7.690   0.498  2.4921 -0.5339  2.5396
    2MOL   H482 1104   0.290   7.628   0.467  0.3794 -2.5022 -2.1986
    2MOL   H483 1105   0.225   7.482   0.298  0.5346 -1.2408  1.7904
    2MOL   H484 1106   0.148   7.459   0.444 -1.2746 -0.1240  0.2541
    2MOL   H485 1107   7.731   7.602   0.343 -0.0846 -0.8016  0.0606
    2MOL   H486 1108   0.053   7.623   0.203  1.7899 -0.8168 -0.3084
    2MOL   H487 1109   0.006   7.433   0.102  1.7712  0.1978  0.2102
    2MOL   H488 1110   7.756   7.339   0.245  0.6106 -0.3522 -0.2298
    2MOL   H489 1111   7.571   7.571   0.171 -0.0245  0.8332  0.8160
    2MOL   H490 1112   7.545   7.432   0.286  0.0362 -1.2838 -0.3841
    2MOL   H491 1113   7.424   7.408   0.063  0.0069 -0.4141  2.1754
    2MOL   H492 1114   7.582   7.399   7.760  0.5634 -1.7993 -0.2405
    2MOL   H493 1115   7.623   7.185   0.107 -0.6640 -1.9521  0.0239
    2MOL   H494 1116   7.459   7.190   0.031 -1.1250  2.0227  0.1607
    2MOL   H495 1117   7.467   7.210   0.199 -1.3031  3.4871 -1.0729
    2MOL   H496 1118   0.485   7.547   0.218 -0.4146 -2.8820 -1.3520
    2MOL   H497 1119   0.469   7.531   0.046  0.6647  0.3496 -0.7809
    2MOL   C498 1120   0.626   7.660   0.117 -0.4319  0.2401 -0.4775
    2MOL   O499 1121   0.640   7.732   7.772  0.3485 -0.5841  0.0858
    2MOL   C500 1122   0.739   0.061   0.012 -0.4098  0.1805  0.4668
    2MOL   C501 1123   0.735   0.152   7.660 -0.2811  0.3529  0.3984
    2MOL   C502 1124   0.772   0.076   7.530  0.1024  0.1211  1.2095
    2MOL   C503 1125   0.792   0.166   7.408 -0.1070 -0.0751  0.5905
    2MOL   C504 1126   0.862   0.095   7.291 -0.0766  0.7125  0.1787
    2MOL   C505 1127   0.880   0.191   7.172 -0.1923  0.1638  1.0408
    2MOL   C506 1128   0.955   0.116   7.053  0.4763 -0.6084  0.2690
    2MOL   C507 1129   1.016   0.210   6.951 -0.3344 -1.5627  0.1828
    2MOL   C508 1130   0.743   7.557   0.130 -0.0946  0.0385  0.5852
    2MOL   H509 1131   0.639   7.721   0.207  0.9594  1.8886 -1.7497
    2MOL   H510 1132   0.835   0.010   0.012 -0.3479  0.2194 -1.9467
    2MOL   H511 1133   0.726   0.121   0.102 -1.7264  0.9366 -0.2063
    2MOL   H512 1134   0.807   0.231   7.681  0.1774 -0.2042  0.9504
    2MOL   H513 1135   0.636   0.199   7.659 -0.8247 -0.7736 -2.2234
    2MOL   H514 1136   0.868   0.028   7.549  0.9499  0.6811 -1.5046
    2MOL   H515 1137   0.703   7.769   7.510  1.4748 -0.8208  0.2612
    2MOL   H516 1138   0.701   0.224   7.398 -0.0550  0.2632  1.9451
    2MOL   H517 1139   0.860   0.245   7.440  0.1361  0.7135 -1.8410
    2MOL   H518 1140   0.959   0.057   7.323  0.2218  1.8132  0.5967
    2MOL   H519 1141   0.812   0.009   7.246  0.5861  0.8496 -0.8279
    2MOL   H520 1142   0.936   0.279   7.201  0.1077  0.6421 -0.8693
    2MOL   H521 1143   0.779   0.223   7.146  0.0729  0.9562  0.9892
    2MOL   H522 1144   1.043   0.066   7.094 -0.3068 -1.5694  0.7731
    2MOL   H523 1145   0.891   0.049   6.997 -0.0229 -0.7078  0.9619
    2MOL   H524 1146   1.031   0.155   6.858 -0.4727 -1.3444  0.0326
    2MOL   H525 1147   1.112   0.254   6.980 -0.5676  0.3050 -1.7800
    2MOL   H526 1148   0.940   0.283   6.925  0.2747 -1.1723 -0.5310
    2MOL   H527 1149   0.844   7.598   0.143 -0.7019  2.0528 -0.8460
    2MOL   H528 1150   0.734   7.508   0.227  1.5032 -1.0281  0.2091
    2MOL   C529 1151   0.750   7.448   0.023 -0.0628  0.1804 -0.5765
    2MOL   O530 1152   0.723   7.315   0.072  0.3027  0.2674  0.0808
    2MOL   C531 1153   0.619   7.255   0.006  0.4427  0.0939 -0.2805
    2MOL   C532 1154   0.633   7.102   0.026 -0.9488 -0.2890 -0.3375
    2MOL   C533 1155   0.762   7.044   7.749 -0.1122  0.2812 -0.0754
    2MOL   C534 1156   0.779   6.896   0.016 -0.2886 -1.0396 -0.1611
    2MOL   C535 1157   0.909   6.838   7.739  0.3227  0.6845  0.1667
    2MOL   C536 1158   0.906   6.683   7.751  0.4149 -0.2664  0.0848
    2MOL   C537 1159   1.008   6.605   7.664 -0.5159 -0.0494  0.5447
    2MOL   C538 1160   1.039   6.461   7.718  0.1674 -0.2771 -1.0206
    2MOL   C539 1161   0.888   7.438   7.738 -0.2917  0.4062 -0.2483
    2MOL   H540 1162   0.685   7.483   7.717  1.1000 -0.2539 -1.7258
    2MOL   H541 1163   0.521   7.286   0.043  0.2926 -0.4130 -0.2523
    2MOL   H542 1164   0.616   7.270   7.672  1.6840 -0.1876 -0.3642
    2MOL   H543 1165   0.549   7.048   7.755 -1.4863  1.0621 -0.9921
    2MOL   H544 1166   0.634   7.086   0.133 -1.1416  1.2246 -0.0997
    2MOL   H545 1167   0.759   7.048   7.640  0.3481 -0.4395 -0.1177
    2MOL   H546 1168   0.838   7.105   0.023  0.1960 -0.4887  0.4162
    2MOL   H547 1169   0.767   6.889   0.124  1.8474 -1.4215  0.0840
    2MOL   H548 1170   0.704   6.830   7.747  1.4337 -3.9470  1.1399
    2MOL   H549 1171   0.909   6.847   7.630 -0.6486  1.7221  0.2493
    2MOL   H550 1172   0.988   6.890   0.020  0.5791  0.4679  0.0020
    2MOL   H551 1173   0.807   6.639   7.746  0.1320 -0.0847  3.1885
    2MOL   H552 1174   0.931   6.670   0.082 -0.1899 -0.3284  0.2208
    2MOL   H553 1175   0.964   6.592   7.565 -3.5348  0.0292  1.8257
    2MOL   H554 1176   1.100   6.662   7.655  0.4463 -1.6283  0.1502
    2MOL   H555 1177   1.105   6.468   0.031 -0.5461  1.2578 -0.5816
    2MOL   H556 1178   1.105   6.413   7.646  1.2738  1.8847 -1.4909
    2MOL   H557 1179   0.954   6.401   7.751  1.0138 -0.3357  1.1808
    2MOL   H558 1180   0.942   7.531   7.752  1.2729 -0.6616  0.9981
    2MOL   H559 1181   0.953   7.372   0.021 -1.1123  0.5947  0.9144
    2MOL   C560 1182   0.880   7.391   7.590  0.4138 -0.0191 -1.0214
    2MOL   O561 1183   1.008   7.352   7.558  0.0795  0.0803  0.7192
    2MOL   C562 1184   1.035   7.215   7.568  0.2992 -0.4997  0.1769
    2MOL   C563 1185   1.174   7.175   7.521  0.2822  0.2439 -0.1368
    2MOL   C564 1186   1.191   7.183   7.367 -0.2799 -0.0504 -0.3437
    2MOL   C565 1187   1.305   7.094   7.324 -0.3124  0.6651 -0.6013
    2MOL   C566 1188   1.299   7.065   7.165  0.2524 -0.2950  0.0299
    2MOL   C567 1189   1.429   6.987   7.120 -0.2516 -0.1814 -0.7595
    2MOL   C568 1190   1.421   6.952   6.971  0.6017  0.0851 -0.5487
    2MOL   C569 1191   1.562   6.917   6.923 -0.0999 -0.1112 -1.3186
    2MOL   C570 1192   0.852   7.503   7.489 -0.7443  0.2906  0.7260
    2MOL   H571 1193   0.807   7.311   7.576  0.8006 -0.7483  0.9713
    2MOL   H572 1194   0.969   7.148   7.514 -0.4393  0.5887 -0.2963
    2MOL   H573 1195   1.010   7.186   7.670 -0.2366 -0.7352 -0.0217
    2MOL   H574 1196   1.175   7.068   7.542  2.7035  0.4036  0.7818
    2MOL   H575 1197   1.241   7.236   7.582  0.7759  0.5721 -1.0080
    2MOL   H576 1198   1.103   7.130   7.331 -0.5056 -1.6822  2.4746
    2MOL   H577 1199   1.197   7.285   7.329 -0.9325  0.4155  0.8006
    2MOL   H578 1200   1.398   7.133   7.364 -1.0670  0.7186  1.1534
    2MOL   H579 1201   1.293   6.999   7.376  1.1525  1.1979  0.7614
    2MOL   H580 1202   1.209   7.011   7.137  0.2924  0.6184 -1.9195
    2MOL   H581 1203   1.302   7.159   7.110  0.7166 -1.1057 -1.3667
    2MOL   H582 1204   1.432   6.892   7.174 -0.2543  0.7456  0.9130
    2MOL   H583 1205   1.517   7.042   7.150  0.0032 -1.1229  0.2591
    2MOL   H584 1206   1.350   6.873   6.949  0.2408 -0.5787  2.8182
    2MOL   H585 1207   1.388   7.049   6.932 -1.9764 -0.8221 -0.6814
    2MOL   H586 1208   1.630   6.990   6.968 -1.1401  2.1992 -3.3400
    2MOL   H587 1209   1.557   6.941   6.816 -0.9443 -1.7503 -1.6569
    2MOL   H588 1210   1.597   6.816   6.945 -0.7348 -0.3321 -1.3144
    2MOL   H589 1211   0.788   7.581   7.527 -0.3473  1.2776 -0.5667
    2MOL   H590 1212   0.942   7.559   7.461 -0.7664 -0.1325 -0.2401
    2MOL   C591 1213   0.774   7.455   7.361  0.1179  1.0276  0.0886
    2MOL   O592 1214   0.650   7.393   7.397  0.2715 -0.2059 -0.1159
    2MOL   C593 1215   0.543   7.484   7.426  1.8300  0.4561 -0.9249
    2MOL   C594 1216   0.412   7.428   7.382  0.5866  0.0454 -0.8262
    2MOL   C595 1217   0.371   7.318   7.477  0.8421  0.1155  0.5723
    2MOL   C596 1218   0.251   7.241   7.427  0.2100  0.1247  0.5224
    2MOL   C597 1219   0.184   7.154   7.535  0.1797 -0.8517 -0.0562
    2MOL   C598 1220   0.050   7.109   7.490 -0.4443 -0.1591 -0.0963
    2MOL   C599 1221   7.739   7.055   7.612 -0.0797  0.1187  0.3717
    2MOL   C600 1222   7.592   7.037   7.568 -0.1917  0.1723  0.0964
    2MOL   C601 1223   0.842   7.365   7.257 -0.0004  0.0112  0.4508
    2MOL   H602 1224   0.743   7.540   7.300 -0.8095  0.1433 -0.6756
    2MOL   H603 1225   0.550   7.578   7.371 -1.5830  0.8729 -0.7465
    2MOL   H604 1226   0.547   7.498   7.534  0.9494  0.1679 -0.8553
    2MOL   H605 1227   0.410   7.391   7.279 -1.5748 -0.4180 -0.6355
    2MOL   H606 1228   0.337   7.506   7.391 -1.5657 -2.0217 -0.3823
    2MOL   H607 1229   0.451   7.244   7.485  0.6310 -0.0339  1.4656
    2MOL   H608 1230   0.367   7.345   7.583 -0.0068 -1.1991  0.8959
    2MOL   H609 1231   0.183   7.319   7.394  1.9092  1.1067 -0.7381
    2MOL   H610 1232   0.286   7.172   7.350  0.3153  0.7131  0.0427
    2MOL   H611 1233   0.251   7.078   7.575  1.4752  0.9276  1.2627
    2MOL   H612 1234   0.171   7.226   7.616  2.8538 -0.5145  0.1034
    2MOL   H613 1235   0.065   7.029   7.418  4.5731 -0.9504  1.6134
    2MOL   H614 1236   0.005   7.190   7.433  1.9634 -1.1133 -3.5416
    2MOL   H615 1237   7.771   6.957   7.649 -1.4906  0.1139  1.6199
    2MOL   H616 1238   7.744   7.127   7.694 -0.3823  2.1084 -1.3164
    2MOL   H617 1239   7.516   7.032   7.646  1.4138 -3.7324  1.5340
    2MOL   H618 1240   7.591   6.940   7.519 -1.0971  0.3305 -0.1986
    2MOL   H619 1241   7.569   7.113   7.494 -0.5032  0.6829  0.7166
    2MOL   H620 1242   0.865   7.264   7.290  1.3819  0.5301  1.1420
    2MOL   H621 1243   0.785   7.367   7.165  1.8038  0.4766 -0.6917
    2MOL   H622 1244   0.939   7.406   7.229 -0.4907  0.9869  0.1532
    3MOL     C1 1245   0.490   2.761   1.029 -0.1584 -0.1384  0.5203
    3MOL     O2 1246   0.361   2.706   1.039 -0.4575 -0.0235  0.1076
    3MOL     C3 1247   0.259   2.803   1.044 -0.0678 -0.0036  0.1114
    3MOL     C4 1248   0.133   2.732   1.014 -0.1553  0.5063 -0.2557
    3MOL     C5 1249   0.011   2.830   0.984 -0.9676 -0.2902 -0.7454
    3MOL     C6 1250   7.686   2.834   1.094  0.4004 -0.9136  0.2759
    3MOL     C7 1251   7.541   2.858   1.040 -0.1017 -0.4700  0.6841
    3MOL     C8 1252   7.428   2.845   1.150 -0.4852 -0.7032  0.5050
    3MOL     C9 1253   7.304   2.918   1.096 -0.4259  0.6833  0.1620
    3MOL    C10 1254   7.193   2.897   1.207 -0.4371 -0.2427  1.1383
    3MOL    C11 1255   0.605   2.657   1.004  0.8094  0.1035 -0.1377
    3MOL    H12 1256   0.491   2.838   0.952 -3.0280 -0.4558  0.0878
    3MOL    H13 1257   0.262   2.867   0.956 -0.3301  0.7088  0.6136
    3MOL    H14 1258   0.251   2.862   1.135  1.6782 -0.4682  0.5933
    3MOL    H15 1259   0.110   2.675   1.104  0.5031 -2.2645 -1.7674
    3MOL    H16 1260   0.161   2.665   0.933 -1.3855 -0.5039  0.1305
    3MOL    H17 1261   0.043   2.933   0.968 -0.6343  0.2675  3.0649
    3MOL    H18 1262   7.726   2.793   0.900 -2.4122  0.0451  0.1055
    3MOL    H19 1263   7.678   2.738   1.143 -1.0567 -0.7069  0.4534
    3MOL    H20 1264   7.717   2.904   1.171  0.1313 -0.9047  0.3777
    3MOL    H21 1265   7.544   2.954   0.987 -2.9375 -0.4903  0.4364
    3MOL    H22 1266   7.520   2.787   0.961  0.1884 -1.1603  1.2227
    3MOL    H23 1267   7.466   2.882   1.245 -0.1104 -1.6119  0.7138
    3MOL    H24 1268   7.422   2.737   1.161 -1.6339 -0.5404  1.5656
    3MOL    H25 1269   7.328   3.019   1.062  1.6417 -0.3141 -1.4072
    3MOL    H26 1270   7.270   2.858   1.012  0.5932 -2.4909  1.9503
    3MOL    H27 1271   7.211   2.982   1.273 -1.6761  0.9578 -0.0284
    3MOL    H28 1272   7.187   2.796   1.246 -0.6477 -0.5495  0.3121
    3MOL    H29 1273   7.096   2.914   1.159  0.0506 -0.0450  0.2194
    3MOL    H30 1274   0.589   2.575   1.074 -0.3892  0.1514 -0.3520
    3MOL    H31 1275   0.595   2.606   0.908  0.8441 -0.2097  0.0234
    3MOL    H32 1276   0.522   2.814   1.119  0.5041 -0.4048  0.4431
    3MOL    C33 1277   0.749   2.702   1.014  0.4072  0.3142  0.0924
    3MOL    O34 1278   0.763   2.813   0.915  0.0741 -0.2097 -0.6825
    3MOL    C35 1279   0.823   2.920   0.977  0.2832 -0.0410  0.0734
    3MOL    C36 1280   0.875   3.010   0.865 -0.2249  0.7571  0.3280
    3MOL    C37 1281   0.756   3.077   0.785 -0.3831 -0.2246  0.2105
    3MOL    C38 1282   0.804   3.123   0.651  0.0959  0.9101  0.3022
    3MOL    C39 1283   0.690   3.134   0.549 -0.5754  0.3089 -0.0685
    3MOL    C40 1284   0.731   3.168   0.401  1.2370 -0.3465 -0.2431
    3MOL    C41 1285   0.612   3.166   0.306  0.1623  0.1162  0.0079
    3MOL    C42 1286   0.648   3.201   0.164  0.0207 -0.5954 -0.1589
    3MOL    C43 1287   0.853   2.590   0.996  0.1234  0.0175  0.3606
    3MOL    H44 1288   0.761   2.739   1.116 -0.8784 -0.9328  0.7168
    3MOL    H45 1289   0.904   2.885   1.040 -0.5925  4.2781  3.8514
    3MOL    H46 1290   0.753   2.972   1.042  1.6055  0.0143  1.4816
    3MOL    H47 1291   0.937   2.942   0.807 -1.9864 -0.2776 -0.3992
    3MOL    H48 1292   0.947   3.081   0.905  0.8626 -0.0504 -0.1833
    3MOL    H49 1293   0.675   3.008   0.764  0.0969 -0.4209 -0.9881
    3MOL    H50 1294   0.709   3.153   0.848  3.2578  1.6000  0.8756
    3MOL    H51 1295   0.839   3.225   0.666  1.6426  0.6958 -1.6700
    3MOL    H52 1296   0.893   3.069   0.617  0.9291  0.2081  3.4692
    3MOL    H53 1297   0.641   3.036   0.546  0.1383 -0.0574  0.1772
    3MOL    H54 1298   0.624   3.215   0.580 -2.6911 -0.7134 -1.7005
    3MOL    H55 1299   0.805   3.096   0.366  1.4325  0.1636 -0.8862
    3MOL    H56 1300   0.779   3.266   0.400  1.2188 -0.3023  1.6533
    3MOL    H57 1301   0.575   3.064   0.314 -1.9860  0.7904 -0.9121
    3MOL    H58 1302   0.531   3.233   0.334  1.2879  1.0053  1.2236
    3MOL    H59 1303   0.696   3.121   0.107 -0.6576 -1.2399  0.1675
    3MOL    H60 1304   0.693   3.297   0.137 -2.1783 -0.0367 -2.0104
    3MOL    H61 1305   0.554   3.198   0.110  0.4289  3.2735 -1.2462
    3MOL    H62 1306   0.823   2.496   1.042 -0.8212  0.2480  0.2419
    3MOL    H63 1307   0.866   2.554   0.894 -0.9531 -2.2665  1.0006
    3MOL    C64 1308   0.992   2.626   1.047  0.7222  0.2045 -0.2830
    3MOL    O65 1309   1.069   2.516   1.001 -0.5445  0.0510 -0.1159
    3MOL    C66 1310   1.177   2.551   0.916  0.2225 -0.2324 -0.2842
    3MOL    C67 1311   1.128   2.524   0.777 -0.4826 -0.1124  0.2102
    3MOL    C68 1312   1.059   2.646   0.708 -0.2346 -0.0139  0.1378
    3MOL    C69 1313   0.972   2.613   0.587  0.9816  0.2373  1.0074
    3MOL    C70 1314   0.888   2.728   0.522  0.2933 -0.4955  0.4994
    3MOL    C71 1315   0.780   2.667   0.420  0.7797  0.6079  0.6507
    3MOL    C72 1316   0.724   2.775   0.335 -0.0120 -0.1770  0.0294
    3MOL    C73 1317   0.807   2.820   0.214 -0.4137  0.2229  0.9176
    3MOL    C74 1318   1.010   2.632   1.200 -0.2856  0.2276 -0.1880
    3MOL    H75 1319   1.025   2.725   1.015  1.7049  0.2944  0.9690
    3MOL    H76 1320   1.259   2.486   0.947  2.0505  1.7440 -0.8362
    3MOL    H77 1321   1.202   2.656   0.927 -2.6123  0.3107  1.2664
    3MOL    H78 1322   1.060   2.439   0.770 -0.6841  0.1108 -0.6573
    3MOL    H79 1323   1.212   2.483   0.721 -1.8817 -2.0207 -0.5459
    3MOL    H80 1324   0.985   2.691   0.774  0.1578  0.6227  0.1495
    3MOL    H81 1325   1.138   2.716   0.679 -1.7348  1.6635  0.0379
    3MOL    H82 1326   1.034   2.566   0.510 -0.1622 -0.2503  0.3788
    3MOL    H83 1327   0.902   2.531   0.600  0.5603  0.1740 -1.3605
    3MOL    H84 1328   0.841   2.795   0.594 -0.1109  1.0553 -1.1524
    3MOL    H85 1329   0.967   2.782   0.469 -1.5349  0.8185 -0.9757
    3MOL    H86 1330   0.699   2.621   0.476  0.7809  0.1223  0.2637
    3MOL    H87 1331   0.824   2.592   0.353  1.3612  1.3979  0.1301
    3MOL    H88 1332   0.626   2.738   0.305 -0.2660  0.5672 -0.0694
    3MOL    H89 1333   0.721   2.867   0.393  1.4139  0.0021 -0.1648
    3MOL    H90 1334   0.914   2.832   0.224 -0.4533  0.2531  1.2873
    3MOL    H91 1335   0.774   2.915   0.171 -0.1824 -1.0883 -2.3523
    3MOL    H92 1336   0.804   2.751   0.129 -0.7336 -1.1619  2.0465
    3MOL    H93 1337   1.114   2.657   1.219 -0.4038  0.8182 -0.3262
    3MOL    H94 1338   0.958   2.713   1.251 -2.7299 -1.6555  0.4645
    3MOL    C95 1339   0.976   2.510   1.282  0.2684  0.2834  0.8462
    3MOL    O96 1340   0.837   2.492   1.298  0.0608 -0.0159 -0.2204
    3MOL    C97 1341   0.792   2.370   1.349 -0.5564 -0.2303  0.7416
    3MOL    C98 1342   0.649   2.345   1.305 -0.1081  0.0210  0.0298
    3MOL    C99 1343   0.582   2.226   1.371  0.1805 -0.6270 -0.1062
    3MOL   C100 1344   0.620   2.089   1.305  0.2836 -0.4766  0.4841
    3MOL   C101 1345   0.567   1.964   1.387 -0.0074  0.1054 -0.1626
    3MOL   C102 1346   0.634   1.834   1.355  0.5984  0.6045 -1.1014
    3MOL   C103 1347   0.587   1.724   1.449  0.4470 -0.4854  0.0255
    3MOL   C104 1348   0.657   1.597   1.412  0.3193 -0.0434 -0.5252
    3MOL   C105 1349   1.023   2.524   1.432 -0.1865 -0.5264  0.1271
    3MOL   H106 1350   1.023   2.424   1.236  1.6539  0.8893  1.0816
    3MOL   H107 1351   0.792   2.374   1.458 -0.3797 -0.5627  0.7516
    3MOL   H108 1352   0.861   2.290   1.321  2.2073  1.9754  1.0240
    3MOL   H109 1353   0.656   2.337   1.197  1.5353  2.1338 -0.0461
    3MOL   H110 1354   0.582   2.429   1.325 -0.7144 -0.8186  1.5711
    3MOL   H111 1355   0.603   2.217   1.477  0.0552  1.1253  0.0838
    3MOL   H112 1356   0.474   2.234   1.357 -0.0461 -0.3068  1.6622
    3MOL   H113 1357   0.582   2.096   1.202  0.6306 -0.8530  0.3284
    3MOL   H114 1358   0.728   2.076   1.294  0.5224  1.3359  0.6125
    3MOL   H115 1359   0.575   1.977   1.495 -1.7640 -0.1838  0.0115
    3MOL   H116 1360   0.462   1.944   1.368 -0.4226 -0.5576  2.5732
    3MOL   H117 1361   0.742   1.839   1.346  0.6929 -0.6174 -0.6691
    3MOL   H118 1362   0.602   1.799   1.257  0.0923  0.3449 -0.8453
    3MOL   H119 1363   0.604   1.747   1.554  2.9705  0.8252 -0.6166
    3MOL   H120 1364   0.480   1.713   1.436  0.6965 -0.4038 -2.4711
    3MOL   H121 1365   0.665   1.532   1.500 -1.5540  0.7607  0.2602
    3MOL   H122 1366   0.761   1.621   1.391  0.4956 -1.7733 -1.7577
    3MOL   H123 1367   0.625   1.539   1.325 -0.0966 -1.7848  0.7527
    3MOL   H124 1368   0.974   2.615   1.465  1.3300 -0.7169  3.0451
    3MOL   H125 1369   0.987   2.441   1.491 -1.6015 -0.3188 -0.4174
    3MOL   C126 1370   1.181   2.543   1.464 -0.6354 -0.3881  0.2331
    3MOL   O127 1371   1.204   2.680   1.443 -0.2633 -0.4186 -0.3076
    3MOL   C128 1372   1.173   2.767   1.550 -0.3577  0.2008  0.4543
    3MOL   C129 1373   1.311   2.801   1.604  0.9597  0.1631 -0.0510
    3MOL   C130 1374   1.307   2.883   1.731  0.0439 -0.8596  0.4814
    3MOL   C131 1375   1.443   2.919   1.792  0.9481 -0.1369 -0.5438
    3MOL   C132 1376   1.510   2.811   1.886 -0.2971  0.5962  0.1562
    3MOL   C133 1377   1.653   2.842   1.937  0.2340  0.5010  0.2292
    3MOL   C134 1378   1.709   2.736   2.030  0.1625  0.8717 -0.2808
    3MOL   C135 1379   1.859   2.731   2.048  0.2113  0.1089  0.1722
    3MOL   C136 1380   1.283   2.459   1.389  0.3511  0.3326  0.7245
    3MOL   H137 1381   1.190   2.507   1.567 -2.1985  1.7958  1.1761
    3MOL   H138 1382   1.112   2.721   1.629 -2.7338  0.6921 -1.0298
    3MOL   H139 1383   1.121   2.856   1.516  1.1598  2.2138  3.2500
    3MOL   H140 1384   1.371   2.852   1.528 -0.5840 -1.6975 -2.5934
    3MOL   H141 1385   1.356   2.705   1.626  0.7696 -0.5381 -2.5360
    3MOL   H142 1386   1.254   2.973   1.699  0.8259  0.2178  2.1273
    3MOL   H143 1387   1.239   2.849   1.809 -0.9353 -0.2165 -0.0812
    3MOL   H144 1388   1.506   2.971   1.720 -0.6579 -0.3234 -2.1398
    3MOL   H145 1389   1.417   3.004   1.854 -1.8751 -1.4637  0.2048
    3MOL   H146 1390   1.440   2.805   1.969 -0.2270 -1.2080  0.1091
    3MOL   H147 1391   1.505   2.710   1.847 -0.7287  1.6855 -2.7191
    3MOL   H148 1392   1.632   2.936   1.987 -1.1173  0.0230  0.5984
    3MOL   H149 1393   1.724   2.871   1.860  1.3360  1.3834  1.5474
    3MOL   H150 1394   1.664   2.746   2.129  0.4295  1.5226 -0.2289
    3MOL   H151 1395   1.675   2.637   1.998 -0.7484  1.4787 -1.2184
    3MOL   H152 1396   1.902   2.825   2.082 -0.1013  0.7809 -1.2122
    3MOL   H153 1397   1.906   2.691   1.958  0.0127 -2.0351  0.9760
    3MOL   H154 1398   1.886   2.652   2.118 -1.3379 -0.0762  0.5844
    3MOL   H155 1399   1.277   2.474   1.281 -0.5546  0.5490  0.7926
    3MOL   H156 1400   1.383   2.495   1.411  1.1097 -1.4920  0.3096
    3MOL   C157 1401   1.280   2.305   1.415 -0.0020 -0.2187 -0.0198
    3MOL   O158 1402   1.307   2.280   1.550 -0.0350 -0.1665 -0.7687
    3MOL   C159 1403   1.253   2.152   1.601  0.0599 -0.7494 -0.0084
    3MOL   C160 1404   1.268   2.143   1.752 -0.0160 -0.5480  0.1723
    3MOL   C161 1405   1.187   2.247   1.824  0.2011 -0.1449 -0.4062
    3MOL   C162 1406   1.245   2.250   1.966 -0.2377  0.1931  0.6137
    3MOL   C163 1407   1.153   2.342   2.061 -0.1442 -0.5611 -0.2586
    3MOL   C164 1408   1.137   2.490   2.019 -0.0707 -0.3407  0.8592
    3MOL   C165 1409   1.258   2.575   2.058  0.8673 -0.2824 -0.8474
    3MOL   C166 1410   1.217   2.723   2.104 -0.6056 -0.1709 -0.2611
    3MOL   C167 1411   1.389   2.221   1.333  0.5180 -0.6019 -0.5710
    3MOL   H168 1412   1.178   2.276   1.391 -0.6107  0.6381  1.4854
    3MOL   H169 1413   1.301   2.062   1.564  0.2467 -0.1852 -1.1746
    3MOL   H170 1414   1.148   2.151   1.569  0.2356  1.9952 -0.8511
    3MOL   H171 1415   1.373   2.162   1.772  0.8173 -0.0306 -4.0962
    3MOL   H172 1416   1.271   2.041   1.791 -0.4737 -0.5485  0.2082
    3MOL   H173 1417   1.210   2.344   1.780  3.2623 -0.7187 -0.1563
    3MOL   H174 1418   1.079   2.232   1.827  0.0996  0.6704  0.0059
    3MOL   H175 1419   1.232   2.149   2.006 -2.7341  0.0428 -0.5064
    3MOL   H176 1420   1.349   2.282   1.972 -0.4191  0.8846  0.1206
    3MOL   H177 1421   1.051   2.304   2.064 -0.1683 -0.3800  2.0394
    3MOL   H178 1422   1.198   2.334   2.160 -1.3885  2.1351  0.5839
    3MOL   H179 1423   1.053   2.535   2.071  0.0499  0.7423  0.1434
    3MOL   H180 1424   1.098   2.500   1.918  2.1714 -0.1141 -0.0173
    3MOL   H181 1425   1.316   2.529   2.138 -0.7092  2.3074  1.8981
    3MOL   H182 1426   1.325   2.595   1.974  0.4583  0.5782 -0.9787
    3MOL   H183 1427   1.199   2.800   2.029 -0.6807  1.5600  1.4906
    3MOL   H184 1428   1.286   2.764   2.177  0.9173 -0.6287 -1.4197
    3MOL   H185 1429   1.127   2.712   2.165 -2.0701 -0.7628 -2.4762
    3MOL   H186 1430   1.486   2.268   1.346 -0.7008  1.5018  1.3576
    3MOL   H187 1431   1.409   2.127   1.383  2.0307 -0.1502 -0.2955
    3MOL   C188 1432   1.348   2.195   1.187  0.1617 -0.0997  0.0209
    3MOL   O189 1433   1.221   2.120   1.183 -0.4590 -0.3424  0.0763
    3MOL   C190 1434   1.125   2.152   1.083 -0.2113  0.4388  0.7951
    3MOL   C191 1435   1.025   2.032   1.082  0.4023  0.0090 -0.0220
    3MOL   C192 1436   0.929   2.024   0.951  0.3460 -0.7909 -0.5105
    3MOL   C193 1437   0.838   2.151   0.940  0.1824  0.4141 -0.6116
    3MOL   C194 1438   0.776   2.175   0.803 -0.4884  0.2571 -0.5799
    3MOL   C195 1439   0.682   2.298   0.804 -0.0247  0.5868 -0.6657
    3MOL   C196 1440   0.608   2.322   0.674  0.0927 -0.5965  0.7697
    3MOL   C197 1441   0.532   2.451   0.659  0.3137  1.0771 -0.2286
    3MOL   C198 1442   1.451   2.111   1.109 -0.6284 -0.0676 -0.2345
    3MOL   H199 1443   1.340   2.293   1.138  1.0047  0.2448  0.5612
    3MOL   H200 1444   1.079   2.245   1.116  1.6498  0.8532  2.2804
    3MOL   H201 1445   1.163   2.157   0.981 -1.5943 -0.1519  0.2426
    3MOL   H202 1446   0.962   2.024   1.171  1.2283  0.5486  0.6200
    3MOL   H203 1447   1.092   1.949   1.058 -0.9673 -1.0778 -0.1199
    3MOL   H204 1448   0.986   2.002   0.861 -0.7626 -2.3790 -0.8672
    3MOL   H205 1449   0.866   1.938   0.977 -0.5516  0.0995  0.2930
    3MOL   H206 1450   0.757   2.145   1.012  0.4446  1.2314 -0.2307
    3MOL   H207 1451   0.894   2.242   0.964  0.7507 -0.0399 -0.2008
    3MOL   H208 1452   0.846   2.176   0.719  1.9333  1.1763  1.3599
    3MOL   H209 1453   0.713   2.089   0.782  0.4241 -0.6223  0.2161
    3MOL   H210 1454   0.754   2.378   0.819  1.7380 -1.2839  1.3023
    3MOL   H211 1455   0.624   2.301   0.896  1.7490  0.5574  0.4864
    3MOL   H212 1456   0.684   2.320   0.595  0.1087  2.9595  0.6111
    3MOL   H213 1457   0.542   2.237   0.658 -1.0616  0.4737 -0.3235
    3MOL   H214 1458   0.452   2.443   0.733 -1.6970 -0.3975 -2.4996
    3MOL   H215 1459   0.492   2.470   0.559  1.2678  1.8839 -0.4690
    3MOL   H216 1460   0.591   2.536   0.693 -0.3069  1.4617 -0.0993
    3MOL   H217 1461   1.491   2.031   1.171  0.5869 -0.2435 -1.2156
    3MOL   H218 1462   1.406   2.050   1.030 -1.9839  1.3088 -0.5337
    3MOL   C219 1463   1.573   2.178   1.043  0.5719  0.1524  0.5329
    3MOL   O220 1464   1.518   2.223   0.915 -0.1030  0.1257 -0.2847
    3MOL   C221 1465   1.598   2.296   0.827 -0.2585  0.6028 -0.3233
    3MOL   C222 1466   1.510   2.381   0.738  0.2824  0.4383 -0.7087
    3MOL   C223 1467   1.585   2.493   0.665 -0.0615  0.2458  0.7121
    3MOL   C224 1468   1.479   2.582   0.591  0.3042  1.6146  0.6574
    3MOL   C225 1469   1.539   2.684   0.498  0.2078  0.4478 -0.6853
    3MOL   C226 1470   1.423   2.764   0.432 -0.5789  0.2626 -0.6879
    3MOL   C227 1471   1.356   2.715   0.304 -0.1350  0.0597  0.0630
    3MOL   C228 1472   1.219   2.783   0.283 -0.2463 -0.1981  0.0685
    3MOL   C229 1473   1.686   2.079   1.028 -0.4882 -0.2191 -0.3369
    3MOL   H230 1474   1.592   2.270   1.099 -2.6447  0.8168  0.6834
    3MOL   H231 1475   1.662   2.220   0.782 -0.1420 -0.0676  0.9551
    3MOL   H232 1476   1.668   2.357   0.884 -1.8971  3.8272 -1.6098
    3MOL   H233 1477   1.435   2.416   0.809  0.7342  0.0590 -0.0399
    3MOL   H234 1478   1.472   2.312   0.663  0.7590  0.5852 -1.0918
    3MOL   H235 1479   1.634   2.550   0.744  0.1119  1.6732 -0.3947
    3MOL   H236 1480   1.655   2.446   0.597  1.1978 -0.9705  2.7923
    3MOL   H237 1481   1.416   2.516   0.530  0.2019  1.7006  0.6686
    3MOL   H238 1482   1.411   2.623   0.666 -1.5508 -0.5866  0.2411
    3MOL   H239 1483   1.600   2.750   0.560  1.8743 -0.1266 -1.6830
    3MOL   H240 1484   1.617   2.637   0.438  1.7436  0.5556  1.1628
    3MOL   H241 1485   1.469   2.858   0.403  0.7045 -0.2893 -0.5132
    3MOL   H242 1486   1.346   2.776   0.507  0.4266  0.3414  0.3480
    3MOL   H243 1487   1.414   2.724   0.212 -0.1048 -4.2973 -0.4332
    3MOL   H244 1488   1.343   2.607   0.315 -1.4676  0.0854 -0.9871
    3MOL   H245 1489   1.144   2.746   0.352 -0.7733  2.3312  0.9078
    3MOL   H246 1490   1.190   2.758   0.181 -0.5664  0.1847  0.0672
    3MOL   H247 1491   1.220   2.892   0.279 -0.9490 -0.2421 -2.5659
    3MOL   H248 1492   1.644   1.982   1.000  1.0601 -0.6270 -1.2855
    3MOL   H249 1493   1.751   2.099   0.943  0.0309  0.9175  0.3178
    3MOL   C250 1494   1.786   2.076   1.142  0.1913 -0.2341 -0.1924
    3MOL   O251 1495   1.826   2.209   1.160  0.5229  0.6000  0.0734
    3MOL   C252 1496   1.860   2.233   1.299 -0.0528 -0.6603  0.3172
    3MOL   C253 1497   1.977   2.337   1.277  0.9888 -0.8038  0.1369
    3MOL   C254 1498   2.035   2.384   1.414 -0.4980 -0.4935  0.4118
    3MOL   C255 1499   2.141   2.496   1.403  0.1536 -0.1716 -0.1949
    3MOL   C256 1500   2.188   2.540   1.546 -0.1299  0.3004  0.2819
    3MOL   C257 1501   2.281   2.662   1.530  0.1007  0.2934  1.3860
    3MOL   C258 1502   2.326   2.717   1.667  0.3044 -0.3992  0.1884
    3MOL   C259 1503   2.208   2.768   1.747 -0.2150 -0.4828 -0.0425
    3MOL   C260 1504   1.905   1.981   1.131 -0.6511 -0.0052 -0.6308
    3MOL   H261 1505   1.728   2.038   1.226 -0.0980  1.1943  0.2709
    3MOL   H262 1506   1.882   2.145   1.358  0.3540  0.6479  2.1628
    3MOL   H263 1507   1.776   2.281   1.349  0.3231 -0.7651  1.0535
    3MOL   H264 1508   1.941   2.427   1.227  0.5257 -0.7973  0.4737
    3MOL   H265 1509   2.069   2.298   1.233  1.1641 -1.5366  1.1449
    3MOL   H266 1510   1.958   2.432   1.474  0.2542  1.6091 -0.2673
    3MOL   H267 1511   2.080   2.307   1.477 -0.7030 -1.2796 -0.3901
    3MOL   H268 1512   2.218   2.485   1.327 -1.2245  2.1482 -2.0027
    3MOL   H269 1513   2.099   2.587   1.359  2.0065  1.1997  0.8034
    3MOL   H270 1514   2.101   2.557   1.609 -0.4006  2.1671 -0.5876
    3MOL   H271 1515   2.249   2.466   1.598 -0.2900  1.2074  1.8061
    3MOL   H272 1516   2.231   2.744   1.478  0.0197 -0.1530  0.7644
    3MOL   H273 1517   2.368   2.633   1.472  0.6845  0.0699  2.3548
    3MOL   H274 1518   2.381   2.640   1.722  0.1587 -0.2845  0.4939
    3MOL   H275 1519   2.396   2.798   1.647  0.8684 -0.5702  1.4466
    3MOL   H276 1520   2.110   2.727   1.722 -0.6867  0.1999  0.6836
    3MOL   H277 1521   2.204   2.877   1.741  0.7269 -0.4977 -1.1728
    3MOL   H278 1522   2.216   2.743   1.853  1.1179  1.0548  0.2518
    3MOL   H279 1523   1.982   2.019   1.063  0.6398  0.7560  1.2168
    3MOL   H280 1524   1.956   1.970   1.226 -2.5778  0.6312  0.4996
    3MOL   C281 1525   1.869   1.842   1.068 -0.1663  0.6114 -0.2102
    3MOL   O282 1526   1.796   1.776   1.179 -0.0418 -0.1989  0.1135
    3MOL   C283 1527   1.746   1.647   1.163 -0.1674  0.4455 -0.2553
    3MOL   C284 1528   1.633   1.625   1.261  0.7314 -0.0513  0.3589
    3MOL   C285 1529   1.516   1.723   1.228  0.2394 -0.0186 -0.1073
    3MOL   C286 1530   1.384   1.699   1.308  0.3364  0.1021  0.0230
    3MOL   C287 1531   1.274   1.805   1.303  1.1014 -0.0003 -0.1405
    3MOL   C288 1532   1.170   1.788   1.411 -0.5846 -0.1441  0.1207
    3MOL   C289 1533   1.051   1.882   1.407  0.6042  0.1182 -0.1132
    3MOL   C290 1534   0.976   1.886   1.545 -0.5806  0.1210  0.2468
    3MOL   C291 1535   1.984   1.753   1.027 -0.1062  0.5582  0.0838
    3MOL   H292 1536   1.809   1.853   0.977 -0.8508 -2.3624 -0.1515
    3MOL   H293 1537   1.821   1.569   1.176  0.7695  1.3340 -0.3432
    3MOL   H294 1538   1.706   1.636   1.062 -0.7727 -0.5473  0.0811
    3MOL   H295 1539   1.668   1.644   1.363  1.2521  1.3938 -0.0755
    3MOL   H296 1540   1.604   1.521   1.247 -1.3801  0.5747  0.0284
    3MOL   H297 1541   1.533   1.828   1.251 -1.9932  0.7210 -1.6496
    3MOL   H298 1542   1.495   1.711   1.121  0.9061  0.0422 -0.2435
    3MOL   H299 1543   1.342   1.607   1.269 -0.3280  0.3925  0.0440
    3MOL   H300 1544   1.399   1.666   1.411 -3.0660 -2.1121 -0.1455
    3MOL   H301 1545   1.314   1.907   1.304 -1.3410  1.0461 -2.6345
    3MOL   H302 1546   1.235   1.789   1.202  1.7787 -1.0622 -0.2467
    3MOL   H303 1547   1.215   1.794   1.510 -0.8078  0.4325  0.1919
    3MOL   H304 1548   1.137   1.684   1.403 -1.6450  0.1173  0.9163
    3MOL   H305 1549   1.072   1.979   1.364  1.6090 -0.4224 -0.8481
    3MOL   H306 1550   0.980   1.833   1.341  1.2086  0.4752 -1.0298
    3MOL   H307 1551   1.006   1.815   1.622  0.8482  0.7512  0.2888
    3MOL   H308 1552   0.869   1.881   1.528 -0.7142  1.1991  0.7290
    3MOL   H309 1553   0.994   1.987   1.584  0.8343  0.9235 -2.3581
    3MOL   H310 1554   2.020   1.705   1.118  0.0819  0.3275 -0.1135
    3MOL   H311 1555   1.939   1.669   0.974  1.9847  0.2818 -1.2907
    3MOL   C312 1556   2.094   1.812   0.945 -0.0530  0.5806  0.1461
    3MOL   O313 1557   2.036   1.875   0.828  0.1951 -0.3196  0.0125
    3MOL   C314 1558   2.114   1.973   0.761  0.4886 -0.4181 -0.1869
    3MOL   C315 1559   2.022   2.033   0.650  0.5922 -0.2117 -0.1641
    3MOL   C316 1560   2.084   2.172   0.601 -0.8437 -0.4217 -0.4273
    3MOL   C317 1561   1.995   2.244   0.509 -0.1779  0.6137 -0.0309
    3MOL   C318 1562   2.062   2.376   0.464  0.0366  0.2278  0.0528
    3MOL   C319 1563   1.975   2.453   0.361 -0.2354 -0.3023 -0.7386
    3MOL   C320 1564   2.036   2.581   0.296 -0.6083  0.2730 -0.5019
    3MOL   C321 1565   1.924   2.663   0.237  0.0122 -0.3890 -0.5468
    3MOL   C322 1566   2.189   1.709   0.892 -0.6692  0.0619 -0.2548
    3MOL   H323 1567   2.150   1.891   0.996 -0.7643  0.0104  1.8255
    3MOL   H324 1568   2.204   1.937   0.710  0.9203  1.7942 -1.0385
    3MOL   H325 1569   2.135   2.050   0.834  0.7362 -0.5302 -0.1379
    3MOL   H326 1570   1.923   2.057   0.689  1.3585  3.4025 -0.3330
    3MOL   H327 1571   2.014   1.968   0.562  0.0403  0.8376 -0.8939
    3MOL   H328 1572   2.099   2.237   0.688  1.7688  1.4102 -2.1568
    3MOL   H329 1573   2.186   2.163   0.565  0.1085  0.0576  2.0246
    3MOL   H330 1574   1.980   2.174   0.426  1.9948  0.7069 -0.5394
    3MOL   H331 1575   1.903   2.262   0.564 -1.1537  1.0334 -1.7532
    3MOL   H332 1576   2.087   2.439   0.549 -0.3675  0.1728  0.2140
    3MOL   H333 1577   2.157   2.351   0.417  1.1481  1.1606  1.7346
    3MOL   H334 1578   1.885   2.480   0.417  0.8525  1.5631  0.1218
    3MOL   H335 1579   1.941   2.377   0.290  1.1404  0.1441 -1.8803
    3MOL   H336 1580   2.090   2.634   0.374 -0.5181  3.0825 -2.3962
    3MOL   H337 1581   2.109   2.559   0.218  1.8937  0.1372  1.7840
    3MOL   H338 1582   1.890   2.635   0.137 -1.5854 -1.0743  0.1796
    3MOL   H339 1583   1.958   2.763   0.211 -0.5440  0.0072  0.2314
    3MOL   H340 1584   1.840   2.674   0.306  1.8453 -1.1077  1.8772
    3MOL   H341 1585   2.126   1.626   0.859 -2.7356  0.9854  1.2436
    3MOL   H342 1586   2.247   1.742   0.806  0.4306 -0.8657  0.1210
    3MOL   C343 1587   2.288   1.663   0.990 -0.4264 -0.3998  0.8597
    3MOL   O344 1588   2.392   1.759   1.000 -0.2234  0.5370 -0.0126
    3MOL   C345 1589   2.463   1.752   1.122  0.3807  0.2243 -0.2386
    3MOL   C346 1590   2.609   1.804   1.103 -0.0878  0.1151 -0.2009
    3MOL   C347 1591   2.691   1.701   1.030 -0.1203 -0.2120  0.2677
    3MOL   C348 1592   2.840   1.750   1.013 -0.6493 -0.2572 -0.1167
    3MOL   C349 1593   2.931   1.663   0.916  0.4879 -0.0549 -0.2419
    3MOL   C350 1594   3.073   1.719   0.913  0.2637 -0.4782 -0.5535
    3MOL   C351 1595   3.179   1.632   0.853  0.2134  0.3944  0.4595
    3MOL   C352 1596   3.194   1.619   0.700 -0.6647  0.2331 -0.4970
    3MOL   C353 1597   2.344   1.535   0.935 -0.0948  0.0229 -0.3298
    3MOL   H354 1598   2.248   1.655   1.091 -0.1898 -0.4734  0.9481
    3MOL   H355 1599   2.475   1.654   1.167  1.0422  0.4278  0.0432
    3MOL   H356 1600   2.406   1.810   1.195 -0.0655  0.3088 -0.6577
    3MOL   H357 1601   2.648   1.820   1.204 -0.9964 -0.4137  0.2481
    3MOL   H358 1602   2.612   1.899   1.051 -0.1872  0.0379 -0.3483
    3MOL   H359 1603   2.693   1.608   1.088  0.5204  0.1951  0.8993
    3MOL   H360 1604   2.653   1.667   0.934 -1.0389 -0.5710  0.7446
    3MOL   H361 1605   2.830   1.853   0.981 -0.6962 -0.7249 -1.6585
    3MOL   H362 1606   2.898   1.756   1.105 -0.9398 -0.9768  0.1233
    3MOL   H363 1607   2.942   1.559   0.946 -0.5462  0.1430  0.8419
    3MOL   H364 1608   2.886   1.673   0.817 -0.2566  2.0515  0.2765
    3MOL   H365 1609   3.107   1.740   1.014 -0.1956 -3.5509  0.2947
    3MOL   H366 1610   3.064   1.820   0.872 -0.4190 -2.1213 -4.7430
    3MOL   H367 1611   3.275   1.676   0.879  1.0357  0.1327 -1.9661
    3MOL   H368 1612   3.170   1.531   0.894  0.2581  0.1298 -0.1748
    3MOL   H369 1613   3.287   1.571   0.672 -0.2847 -0.9362  2.6547
    3MOL   H370 1614   3.184   1.718   0.655 -0.1314 -0.0662 -1.2803
    3MOL   H371 1615   3.106   1.569   0.658 -2.5819  2.0533  1.2059
    3MOL   H372 1616   2.286   1.487   0.857  0.6109 -1.3364 -0.0359
    3MOL   H373 1617   2.438   1.563   0.888  0.1946 -1.7667 -0.8393
    3MOL   C374 1618   2.378   1.423   1.043  0.0836  0.1876 -0.2637
    3MOL   O375 1619   2.457   1.332   0.974  0.1325  0.2005 -0.0533
    3MOL   C376 1620   2.601   1.343   0.980 -0.6199  0.4061  0.0601
    3MOL   C377 1621   2.675   1.251   0.878 -0.1554 -0.7677 -0.3950
    3MOL   C378 1622   2.651   1.098   0.895  0.4772  1.1268  1.1878
    3MOL   C379 1623   2.751   1.008   0.815  0.6045  0.2423  0.5710
    3MOL   C380 1624   2.751   0.868   0.862 -0.1464 -0.0583  0.7809
    3MOL   C381 1625   2.845   0.777   0.782 -0.8545 -0.4211 -0.0356
    3MOL   C382 1626   2.834   0.631   0.842 -0.9468 -0.1356 -0.1290
    3MOL   C383 1627   2.908   0.611   0.977  0.1856 -0.1034  0.1461
    3MOL   C384 1628   2.248   1.359   1.092 -0.4578 -0.7621 -0.0497
    3MOL   H385 1629   2.440   1.458   1.126  2.1090  3.1613 -2.8749
    3MOL   H386 1630   2.643   1.321   1.078  0.3503  0.8450 -0.2521
    3MOL   H387 1631   2.618   1.448   0.957 -1.3082  1.2105  2.9931
    3MOL   H388 1632   2.783   1.259   0.889 -0.4099  1.5441  0.7416
    3MOL   H389 1633   2.651   1.292   0.780  0.2877 -0.0257 -0.1956
    3MOL   H390 1634   2.641   1.074   1.001 -0.2735 -1.2297  0.6289
    3MOL   H391 1635   2.550   1.073   0.862  0.9063  1.0848 -0.1657
    3MOL   H392 1636   2.726   1.004   0.709 -1.4606  1.2752  1.0110
    3MOL   H393 1637   2.851   1.051   0.812 -0.7893  3.4978 -2.6820
    3MOL   H394 1638   2.787   0.862   0.965  1.5787 -1.6965  0.0903
    3MOL   H395 1639   2.653   0.825   0.839  0.5491 -1.0983 -0.2736
    3MOL   H396 1640   2.950   0.807   0.781 -0.6430 -1.1651  0.0624
    3MOL   H397 1641   2.818   0.780   0.676  0.8520 -1.6033 -0.5248
    3MOL   H398 1642   2.730   0.606   0.863 -1.5119  1.6104 -0.7894
    3MOL   H399 1643   2.877   0.558   0.774  1.1883 -1.5467  2.6584
    3MOL   H400 1644   2.851   0.666   1.052 -0.0878  2.2270 -1.6953
    3MOL   H401 1645   3.011   0.647   0.977  0.2469 -0.2557  1.4471
    3MOL   H402 1646   2.910   0.505   1.002 -0.5678  0.1876  1.4487
    3MOL   H403 1647   2.183   1.430   1.145  0.5477  0.7326 -0.7919
    3MOL   H404 1648   2.197   1.346   0.997  1.9152 -0.5581 -1.3927
    3MOL   C405 1649   2.262   1.237   1.185  0.2854  0.3751  0.4322
    3MOL   O406 1650   2.183   1.129   1.141  0.2707  0.5367 -0.2779
    3MOL   C407 1651   2.234   1.062   1.028  0.2012  0.2260 -0.3025
    3MOL   C408 1652   2.148   0.940   1.006  0.0978 -0.4224  0.1156
    3MOL   C409 1653   2.213   0.859   0.893  0.3214  0.5719  0.8623
    3MOL   C410 1654   2.153   0.722   0.871 -0.1402 -0.3740  0.0756
    3MOL   C411 1655   2.007   0.731   0.829 -0.4125 -0.0037 -0.9507
    3MOL   C412 1656   1.945   0.598   0.778  0.0180  0.8552  0.4820
    3MOL   C413 1657   1.792   0.609   0.757 -0.7408 -0.3989 -0.1211
    3MOL   C414 1658   1.728   0.481   0.695  0.2015  0.4002 -0.7439
    3MOL   C415 1659   2.226   1.257   1.335  0.8719 -0.2758  0.5149
    3MOL   H416 1660   2.365   1.202   1.178 -0.2535 -1.4103  1.1465
    3MOL   H417 1661   2.333   1.024   1.052 -0.3197  0.1487  1.7987
    3MOL   H418 1662   2.227   1.118   0.934 -0.1486 -0.3276 -0.6080
    3MOL   H419 1663   2.047   0.972   0.980 -0.1186 -1.1343  0.0784
    3MOL   H420 1664   2.139   0.881   1.097 -0.4004 -0.8907 -0.2318
    3MOL   H421 1665   2.185   0.924   0.809  2.8560 -0.3919 -0.7897
    3MOL   H422 1666   2.321   0.864   0.891  0.5072 -2.6204  1.0738
    3MOL   H423 1667   2.203   0.668   0.791 -2.7531 -1.9824 -0.5287
    3MOL   H424 1668   2.172   0.658   0.958 -0.7787 -0.4634  0.1484
    3MOL   H425 1669   1.949   0.759   0.917  0.1640 -1.4039 -0.1112
    3MOL   H426 1670   1.999   0.814   0.759 -0.8038 -0.0846 -1.0041
    3MOL   H427 1671   1.963   0.506   0.834 -0.3791  0.5995  0.1939
    3MOL   H428 1672   1.983   0.583   0.676  4.3690  0.3478  2.0824
    3MOL   H429 1673   1.738   0.634   0.849  1.4546 -0.7633  1.3041
    3MOL   H430 1674   1.777   0.692   0.688  1.3956 -1.9542 -2.5364
    3MOL   H431 1675   1.722   0.482   0.586 -2.9933  1.0615 -0.6290
    3MOL   H432 1676   1.620   0.478   0.711  0.0700 -0.1966 -1.6809
    3MOL   H433 1677   1.762   0.381   0.722 -0.6290 -0.1244 -1.6261
    3MOL   H434 1678   2.118   1.259   1.354  0.9045  2.2790  0.6760
    3MOL   H435 1679   2.261   1.170   1.391 -0.5020 -1.2661 -0.1208
    3MOL   C436 1680   2.274   1.383   1.405 -0.2677 -0.5294 -0.2320
    3MOL   O437 1681   2.417   1.360   1.412 -0.7747 -0.6503  0.3341
    3MOL   C438 1682   2.492   1.483   1.426 -0.6653  0.5231  0.1316
    3MOL   C439 1683   2.636   1.459   1.381 -0.3180  0.3087  0.3140
    3MOL   C440 1684   2.730   1.568   1.443  0.2739  0.4393  0.3235
    3MOL   C441 1685   2.874   1.563   1.392 -0.0400  0.3900 -0.1051
    3MOL   C442 1686   2.984   1.650   1.461 -0.3495 -0.0532  0.0720
    3MOL   C443 1687   2.987   1.637   1.616 -0.2147  0.7415  0.1584
    3MOL   C444 1688   3.081   1.736   1.679  0.6493 -0.5243  0.2041
    3MOL   C445 1689   3.070   1.720   1.834 -0.4333 -0.0479 -0.0224
    3MOL   C446 1690   2.225   1.386   1.547  0.2248  0.0781  0.1244
    3MOL   H447 1691   2.246   1.467   1.341  0.8426 -1.0131 -1.3715
    3MOL   H448 1692   2.447   1.568   1.376  0.1203  1.0244  0.2757
    3MOL   H449 1693   2.497   1.499   1.534  0.4085  1.0032  0.0145
    3MOL   H450 1694   2.631   1.464   1.273 -1.3581 -0.9222  0.2933
    3MOL   H451 1695   2.672   1.361   1.413 -0.5813  0.4658  1.0992
    3MOL   H452 1696   2.689   1.664   1.412 -2.2335 -0.7429 -0.1694
    3MOL   H453 1697   2.736   1.551   1.550  3.2174  1.2606  0.3263
    3MOL   H454 1698   2.906   1.460   1.398  0.7310  0.5776 -1.0415
    3MOL   H455 1699   2.886   1.590   1.287 -1.1670  0.1895 -0.2966
    3MOL   H456 1700   3.075   1.624   1.408  0.8907  0.4412  1.9283
    3MOL   H457 1701   2.959   1.749   1.423  0.5234  0.5740  1.1469
    3MOL   H458 1702   3.015   1.537   1.650 -0.2403  0.2752 -1.1683
    3MOL   H459 1703   2.886   1.651   1.656  0.2951  1.8737  1.0691
    3MOL   H460 1704   3.185   1.715   1.651  1.0348 -1.2973  2.1661
    3MOL   H461 1705   3.050   1.836   1.648  0.7517 -0.4904  0.2107
    3MOL   H462 1706   3.150   1.784   1.870  0.0369 -1.0758  0.7943
    3MOL   H463 1707   3.104   1.618   1.854 -1.1187 -0.0074  1.4137
    3MOL   H464 1708   2.977   1.738   1.888 -0.5377  0.1568 -0.2650
    3MOL   H465 1709   2.229   1.293   1.603 -0.3798 -0.3369 -0.5134
    3MOL   H466 1710   2.298   1.454   1.591 -0.5489  1.3448 -0.5219
    3MOL   C467 1711   2.076   1.442   1.573  0.1697 -0.5850  0.5694
    3MOL   O468 1712   2.062   1.576   1.515  0.6510 -0.1927  0.1408
    3MOL   C469 1713   1.924   1.619   1.492  0.3824 -0.0756  0.1005
    3MOL   C470 1714   1.921   1.768   1.503 -0.0524 -0.4312 -0.1610
    3MOL   C471 1715   1.963   1.828   1.640  0.1843  0.9689  0.3801
    3MOL   C472 1716   1.948   1.979   1.642 -0.0541 -0.0611  0.8568
    3MOL   C473 1717   1.803   2.038   1.650 -0.3468 -0.0052 -0.2999
    3MOL   C474 1718   1.810   2.186   1.682 -0.0779 -0.2295 -0.7088
    3MOL   C475 1719   1.683   2.247   1.729 -0.3863 -0.3261 -0.7081
    3MOL   C476 1720   1.669   2.401   1.727 -0.6017 -1.2705 -0.5629
    3MOL   C477 1721   2.036   1.452   1.725 -0.3662 -0.7246 -0.0689
    3MOL   H478 1722   2.011   1.369   1.525  1.4355 -1.5989  0.3838
    3MOL   H479 1723   1.855   1.584   1.569 -0.5119 -0.2775 -0.7872
    3MOL   H480 1724   1.900   1.585   1.391  0.1950 -0.1743  0.1788
    3MOL   H481 1725   1.819   1.797   1.480  0.3309 -0.6439 -2.2734
    3MOL   H482 1726   1.968   1.826   1.424  0.0534  0.6675  0.6983
    3MOL   H483 1727   1.899   1.794   1.721  1.7335  2.6807  2.3618
    3MOL   H484 1728   2.068   1.807   1.658  0.2201  0.8059 -0.0070
    3MOL   H485 1729   2.002   2.022   1.726 -1.0982  2.1750  0.4242
    3MOL   H486 1730   1.997   2.012   1.551 -0.5682  0.2538  0.6941
    3MOL   H487 1731   1.753   2.025   1.554 -1.7644  0.4869  0.3658
    3MOL   H488 1732   1.749   1.978   1.723 -0.8284 -0.4302 -0.9963
    3MOL   H489 1733   1.834   2.235   1.588 -1.3555  1.5526 -0.1227
    3MOL   H490 1734   1.879   2.214   1.762 -1.5061  0.4011  0.3304
    3MOL   H491 1735   1.597   2.202   1.678 -0.2187 -2.4993  0.8250
    3MOL   H492 1736   1.669   2.211   1.831 -1.5779 -0.3756 -0.8751
    3MOL   H493 1737   1.733   2.442   1.805 -0.8185 -2.1153  0.0625
    3MOL   H494 1738   1.567   2.429   1.753 -0.1449 -2.8538  3.2797
    3MOL   H495 1739   1.697   2.445   1.630 -0.7653  0.1782  0.0264
    3MOL   H496 1740   2.120   1.503   1.770  0.6423 -1.2774 -1.2794
    3MOL   H497 1741   1.943   1.506   1.741  0.7731  1.7145 -1.4612
    3MOL   C498 1742   2.015   1.312   1.788  0.5094 -0.4538  0.4690
    3MOL   O499 1743   1.928   1.239   1.700 -0.3335  0.3746  0.2560
    3MOL   C500 1744   1.936   1.095   1.710 -0.8197  0.4862 -0.2215
    3MOL   C501 1745   2.073   1.038   1.675 -0.1716  0.3691  0.5377
    3MOL   C502 1746   2.078   0.893   1.620 -0.2366 -0.3010 -0.4057
    3MOL   C503 1747   2.210   0.859   1.551  0.2560 -0.0423 -0.5211
    3MOL   C504 1748   2.318   0.805   1.641 -0.4491 -0.3212  0.1834
    3MOL   C505 1749   2.283   0.655   1.679 -0.3423 -0.5442  0.1444
    3MOL   C506 1750   2.377   0.592   1.782 -0.4715 -0.3155 -0.0270
    3MOL   C507 1751   2.327   0.450   1.812  0.3290  0.3200  0.4258
    3MOL   C508 1752   1.957   1.319   1.935  0.1068 -0.9833  0.2406
    3MOL   H509 1753   2.115   1.268   1.780 -0.8431 -3.6761  0.3105
    3MOL   H510 1754   1.861   1.059   1.639 -0.5059 -0.3576 -0.1293
    3MOL   H511 1755   1.916   1.050   1.808  2.0063 -2.8311 -1.0632
    3MOL   H512 1756   2.141   1.037   1.760  0.3818 -0.0331  0.0935
    3MOL   H513 1757   2.117   1.095   1.593 -0.3676 -0.8606 -0.4397
    3MOL   H514 1758   2.055   0.822   1.699 -2.3584  3.3071  2.3651
    3MOL   H515 1759   2.001   0.896   1.543  0.8384 -1.4903 -1.5580
    3MOL   H516 1760   2.193   0.773   1.486  2.1692  0.3191 -1.5347
    3MOL   H517 1761   2.244   0.927   1.473 -0.6676  0.4120 -0.5353
    3MOL   H518 1762   2.409   0.804   1.581  0.1980  0.1590  1.1390
    3MOL   H519 1763   2.341   0.866   1.729  1.2656 -0.7989  0.0859
    3MOL   H520 1764   2.277   0.591   1.590 -2.6215 -0.4820  0.2349
    3MOL   H521 1765   2.189   0.660   1.733 -0.2177  4.2818  0.1008
    3MOL   H522 1766   2.480   0.598   1.746 -0.8764  5.4035 -0.7155
    3MOL   H523 1767   2.381   0.653   1.872  2.6101  1.2571 -1.1372
    3MOL   H524 1768   2.232   0.454   1.865  0.2797  0.0113  0.3644
    3MOL   H525 1769   2.402   0.407   1.879  1.2342 -2.9007 -2.5042
    3MOL   H526 1770   2.322   0.387   1.723  0.6962  0.1982  0.4898
    3MOL   H527 1771   1.850   1.341   1.942  0.1708 -0.8475  0.7960
    3MOL   H528 1772   1.966   1.214   1.964 -0.6296 -0.4371  2.4966
    3MOL   C529 1773   2.024   1.413   2.034 -0.1649 -0.2635 -0.0798
    3MOL   O530 1774   2.169   1.376   2.044  0.2983 -0.0304  0.3655
    3MOL   C531 1775   2.248   1.493   2.072  0.6658  0.3682 -0.2528
    3MOL   C532 1776   2.396   1.465   2.061  0.2213  0.1723 -0.0890
    3MOL   C533 1777   2.450   1.430   1.918  0.1552  0.3662 -0.4092
    3MOL   C534 1778   2.602   1.422   1.918  0.0888 -0.8841  0.5465
    3MOL   C535 1779   2.653   1.347   1.790  0.4160  0.3827 -0.2863
    3MOL   C536 1780   2.807   1.323   1.779 -0.5091 -0.0361  0.1241
    3MOL   C537 1781   2.853   1.245   1.659 -0.9341  0.1113 -0.3394
    3MOL   C538 1782   3.008   1.229   1.673 -0.3411  0.2951 -0.3244
    3MOL   C539 1783   1.961   1.395   2.178  0.1197 -0.9882  0.2646
    3MOL   H540 1784   2.006   1.512   1.992 -3.2672 -1.0533 -0.6935
    3MOL   H541 1785   2.223   1.580   2.011  0.7736  0.5526 -0.0349
    3MOL   H542 1786   2.224   1.532   2.171  1.6987 -0.5507  0.3608
    3MOL   H543 1787   2.425   1.396   2.140  0.3707  1.7002  1.2216
    3MOL   H544 1788   2.447   1.558   2.089 -0.7747  1.3668 -2.1398
    3MOL   H545 1789   2.397   1.341   1.883  0.1559 -0.2688  1.1861
    3MOL   H546 1790   2.407   1.492   1.838 -0.2919  3.2655  1.9946
    3MOL   H547 1791   2.641   1.523   1.925 -1.8382 -0.2812  3.4367
    3MOL   H548 1792   2.638   1.370   2.007  0.3849  0.5812  1.2902
    3MOL   H549 1793   2.604   1.250   1.788 -1.0666  1.1054  0.2239
    3MOL   H550 1794   2.616   1.400   1.702 -2.2265  0.2247  0.6816
    3MOL   H551 1795   2.834   1.260   1.865  2.1621  1.4465  0.4302
    3MOL   H552 1796   2.860   1.416   1.800 -1.0030  0.9154 -2.7450
    3MOL   H553 1797   2.817   1.142   1.659  2.3852 -1.1282  1.3221
    3MOL   H554 1798   2.823   1.299   1.569 -1.1901  0.9520  0.2512
    3MOL   H555 1799   3.032   1.163   1.589  1.3909  0.2070  0.2223
    3MOL   H556 1800   3.042   1.169   1.757  0.9770  0.8615 -0.4348
    3MOL   H557 1801   3.061   1.321   1.650  0.5030 -0.5108 -1.6617
    3MOL   H558 1802   1.984   1.295   2.215 -0.5533 -1.4470 -0.5143
    3MOL   H559 1803   2.023   1.464   2.233  0.0725 -1.3689  0.8010
    3MOL   C560 1804   1.810   1.437   2.190 -0.0595 -0.2144 -0.3201
    3MOL   O561 1805   1.829   1.569   2.147  0.5841  0.3043 -0.7992
    3MOL   C562 1806   1.710   1.614   2.083  0.1672 -0.6811  0.9118
    3MOL   C563 1807   1.725   1.747   2.026  0.4552 -0.0665  0.6499
    3MOL   C564 1808   1.752   1.852   2.136  0.3042  0.9220 -0.1480
    3MOL   C565 1809   1.773   1.991   2.077 -0.2080  0.1804  0.6070
    3MOL   C566 1810   1.821   2.106   2.167  0.2223  0.2741  0.1094
    3MOL   C567 1811   1.871   2.216   2.084 -0.1099  0.3410 -0.1249
    3MOL   C568 1812   1.932   2.326   2.178  0.0709  0.2997  0.0216
    3MOL   C569 1813   1.821   2.416   2.250 -0.4809 -0.5635 -0.3677
    3MOL   C570 1814   1.767   1.444   2.337 -0.7743  0.2958 -0.0190
    3MOL   H571 1815   1.748   1.368   2.133  1.5952 -1.8967 -0.1499
    3MOL   H572 1816   1.626   1.601   2.151 -1.9446  1.8847 -1.0667
    3MOL   H573 1817   1.682   1.550   1.999 -1.5230  1.2285 -0.0162
    3MOL   H574 1818   1.637   1.773   1.968  0.2520  1.7152  1.6770
    3MOL   H575 1819   1.809   1.740   1.957  0.1537  0.9824  0.1647
    3MOL   H576 1820   1.660   1.869   2.192  0.2480 -1.5628  0.5620
    3MOL   H577 1821   1.827   1.817   2.207  0.3535  1.5355  0.1101
    3MOL   H578 1822   1.857   1.974   2.010 -0.6790 -0.7623  0.2407
    3MOL   H579 1823   1.683   2.010   2.018  0.5885 -1.3566 -1.1606
    3MOL   H580 1824   1.765   2.145   2.252  1.5671  3.0899 -0.2258
    3MOL   H581 1825   1.901   2.060   2.225 -1.2018 -1.6338  0.6001
    3MOL   H582 1826   1.791   2.250   2.017 -0.3911 -1.4722 -0.7298
    3MOL   H583 1827   1.956   2.185   2.024 -1.6923 -1.3702 -1.5193
    3MOL   H584 1828   2.006   2.275   2.240 -0.9932 -0.1531  0.9416
    3MOL   H585 1829   1.992   2.393   2.116  1.5174 -1.6309 -0.7104
    3MOL   H586 1830   1.766   2.485   2.186 -0.8480 -1.4617 -1.0320
    3MOL   H587 1831   1.871   2.477   2.325 -1.7704  0.5765 -0.4116
    3MOL   H588 1832   1.740   2.351   2.283 -0.9479 -0.2768 -0.9348
    3MOL   H589 1833   1.853   1.469   2.399  0.3775 -0.1616 -1.3931
    3MOL   H590 1834   1.682   1.512   2.346 -1.6131 -0.7774  0.3734
    3MOL   C591 1835   1.726   1.306   2.399  0.2255  0.2802 -0.1111
    3MOL   O592 1836   1.605   1.251   2.337 -0.5092 -0.1509 -0.0196
    3MOL   C593 1837   1.551   1.126   2.386  0.1770 -0.5224 -0.0449
    3MOL   C594 1838   1.630   1.011   2.323  1.0115 -0.1783 -0.9498
    3MOL   C595 1839   1.657   1.008   2.171  0.9289 -0.4592 -0.1741
    3MOL   C596 1840   1.741   0.886   2.122  0.3184 -0.7809  0.3834
    3MOL   C597 1841   1.892   0.890   2.142 -0.3687  0.5970  0.0496
    3MOL   C598 1842   1.946   0.750   2.089 -0.5056  0.3332 -0.1547
    3MOL   C599 1843   2.097   0.717   2.115 -0.4943  0.2934  0.3067
    3MOL   C600 1844   2.188   0.824   2.060  0.6667 -0.0102 -0.3832
    3MOL   C601 1845   1.699   1.342   2.552 -0.0556 -0.5154  0.6913
    3MOL   H602 1846   1.803   1.230   2.393 -0.1750 -0.0431 -1.2394
    3MOL   H603 1847   1.451   1.125   2.343  0.7140  0.5161 -1.3568
    3MOL   H604 1848   1.529   1.115   2.492 -0.7114 -0.6643 -0.2477
    3MOL   H605 1849   1.595   0.913   2.355 -1.3920  0.5056 -1.3861
    3MOL   H606 1850   1.722   1.018   2.382 -0.3500  1.3196  1.0816
    3MOL   H607 1851   1.557   1.003   2.128  1.2133 -0.7313 -0.8033
    3MOL   H608 1852   1.685   1.105   2.130  1.7053 -0.4940  0.2573
    3MOL   H609 1853   1.700   0.792   2.157 -1.1565  0.2014  1.3673
    3MOL   H610 1854   1.710   0.873   2.018 -1.3693 -0.8088  0.8800
    3MOL   H611 1855   1.949   0.971   2.096  0.4019 -0.6894 -1.2842
    3MOL   H612 1856   1.924   0.894   2.246  2.2134 -3.0103 -0.5071
    3MOL   H613 1857   1.939   0.761   1.981 -0.1106 -0.6431 -0.2820
    3MOL   H614 1858   1.879   0.669   2.121  0.5078 -0.5493 -0.2398
    3MOL   H615 1859   2.118   0.694   2.219 -0.3384 -1.2700 -0.0646
    3MOL   H616 1860   2.116   0.625   2.059  0.9692  1.1760 -0.6896
    3MOL   H617 1861   2.289   0.798   2.091  0.7161  2.2088  1.4610
    3MOL   H618 1862   2.175   0.924   2.102 -0.2574 -0.8794  1.4626
    3MOL   H619 1863   2.176   0.823   1.951  1.9267  0.1013 -0.5215
    3MOL   H620 1864   1.638   1.432   2.561  0.4999 -0.0866  0.1589
    3MOL   H621 1865   1.640   1.268   2.606 -3.1068  0.0589 -1.6984
    3MOL   H622 1866   1.790   1.356   2.610 -0.8277  1.8601  1.4026
    4MOL     C1 1867   3.613   4.006   1.206 -0.4106 -0.4989 -0.1326
    4MOL     O2 1868   3.756   3.998   1.220  0.2950 -0.2612 -0.0922
    4MOL     C3 1869   3.796   3.999   1.351  1.0076  0.2814 -0.5543
    4MOL     C4 1870   3.946   3.960   1.360  0.1228 -0.1167 -0.0158
    4MOL     C5 1871   3.989   3.818   1.319  0.7210  0.0296 -0.3766
    4MOL     C6 1872   4.146   3.789   1.324 -0.9089 -0.2289 -0.8527
    4MOL     C7 1873   4.192   3.651   1.277  0.4063 -0.0061 -0.3541
    4MOL     C8 1874   4.340   3.637   1.313 -0.6133  0.0898  0.0229
    4MOL     C9 1875   4.412   3.518   1.248  0.1122  0.0174 -0.0537
    4MOL    C10 1876   4.554   3.494   1.293 -0.8745 -0.5975 -0.6132
    4MOL    C11 1877   3.568   4.052   1.067  0.9311 -0.1292 -0.0164
    4MOL    H12 1878   3.567   3.913   1.239 -0.7390 -0.5987 -0.8792
    4MOL    H13 1879   3.754   3.925   1.419  2.1107 -1.1218 -1.3615
    4MOL    H14 1880   3.779   4.099   1.391  0.2218 -0.5642  1.3163
    4MOL    H15 1881   3.988   3.984   1.458  0.1795  0.6798 -0.2373
    4MOL    H16 1882   3.993   4.026   1.288 -1.2114 -0.2177 -1.0028
    4MOL    H17 1883   3.936   3.754   1.390 -0.1325  0.6974 -0.4083
    4MOL    H18 1884   3.941   3.805   1.222  1.0109  4.0326 -1.1359
    4MOL    H19 1885   4.196   3.872   1.274  1.6701 -1.8177 -0.9929
    4MOL    H20 1886   4.176   3.784   1.429  1.2180 -1.4691 -1.4814
    4MOL    H21 1887   4.130   3.577   1.327 -0.9334  1.6118  0.4306
    4MOL    H22 1888   4.176   3.640   1.169 -0.0551  0.9279 -0.3900
    4MOL    H23 1889   4.352   3.621   1.420  0.9124  0.5189 -0.0601
    4MOL    H24 1890   4.400   3.722   1.280 -1.2493  0.7425  0.5398
    4MOL    H25 1891   4.369   3.420   1.271  2.9416 -1.1386  0.5152
    4MOL    H26 1892   4.407   3.525   1.139  0.9103  0.1304 -0.0868
    4MOL    H27 1893   4.560   3.453   1.394  0.0230  3.5462  1.0938
    4MOL    H28 1894   4.609   3.587   1.297 -0.0704 -1.1257  1.0781
    4MOL    H29 1895   4.607   3.423   1.229  0.8442  1.7558 -1.8515
    4MOL    H30 1896   3.597   4.156   1.055 -0.1801  0.1786 -0.0890
    4MOL    H31 1897   3.611   3.986   0.991 -0.9269  0.3320 -1.5027
    4MOL    H32 1898   3.571   4.076   1.279  1.3162  0.5609 -0.1202
    4MOL    C33 1899   3.412   4.045   1.060  0.3075 -0.7119  0.0525
    4MOL    O34 1900   3.376   3.908   1.062 -0.1417 -0.3135 -0.2067
    4MOL    C35 1901   3.279   3.865   1.163 -0.3894  0.2137 -0.1375
    4MOL    C36 1902   3.251   3.719   1.156  0.3005  0.1754  0.1201
    4MOL    C37 1903   3.354   3.629   1.226  0.0305 -0.2214 -0.5819
    4MOL    C38 1904   3.471   3.594   1.136 -0.3432 -0.2550  0.1048
    4MOL    C39 1905   3.568   3.488   1.194 -0.1902 -0.3967  0.4088
    4MOL    C40 1906   3.682   3.467   1.093  0.1989 -0.8743 -0.2277
    4MOL    C41 1907   3.780   3.363   1.156 -0.0946  0.1433  0.7125
    4MOL    C42 1908   3.874   3.426   1.257  0.5758 -0.6431  0.4194
    4MOL    C43 1909   3.346   4.109   0.932  0.3505  0.8026 -0.3436
    4MOL    H44 1910   3.376   4.104   1.145  0.6563  0.8714 -0.8736
    4MOL    H45 1911   3.188   3.924   1.149 -0.8419 -0.3690  0.3337
    4MOL    H46 1912   3.307   3.890   1.265 -0.2027 -1.1046  0.1318
    4MOL    H47 1913   3.221   3.701   1.053  1.7549  2.1096 -0.6887
    4MOL    H48 1914   3.162   3.711   1.218 -0.3908 -2.0643 -1.1274
    4MOL    H49 1915   3.378   3.672   1.323 -2.6379 -0.5949  0.3090
    4MOL    H50 1916   3.311   3.532   1.251  1.1316 -0.0526  2.1469
    4MOL    H51 1917   3.454   3.575   1.030  0.1406 -0.4742  0.0642
    4MOL    H52 1918   3.524   3.689   1.134 -1.5552  0.5265  2.5936
    4MOL    H53 1919   3.587   3.514   1.298  0.7462 -1.0504  0.4076
    4MOL    H54 1920   3.515   3.394   1.205  1.7474 -1.4679  0.8514
    4MOL    H55 1921   3.733   3.563   1.080 -1.7724  0.2352 -0.0162
    4MOL    H56 1922   3.638   3.425   1.003  1.3988 -1.7015 -0.4427
    4MOL    H57 1923   3.728   3.273   1.189 -0.4072  0.6909  1.7197
    4MOL    H58 1924   3.842   3.315   1.080 -0.4381 -1.2000  1.2642
    4MOL    H59 1925   3.952   3.356   1.286  1.8497  0.5600 -0.0353
    4MOL    H60 1926   3.820   3.464   1.344 -0.9593 -1.6572 -0.0800
    4MOL    H61 1927   3.927   3.517   1.229  2.3665 -1.6907  0.3186
    4MOL    H62 1928   3.408   4.068   0.853  0.4121  0.8028 -0.2951
    4MOL    H63 1929   3.245   4.070   0.921  0.6163  0.3521 -1.2299
    4MOL    C64 1930   3.336   4.266   0.928 -0.5079  0.2264 -0.1895
    4MOL    O65 1931   3.237   4.299   1.026 -0.0132  0.3405 -0.2629
    4MOL    C66 1932   3.282   4.389   1.131 -0.7935  0.3058 -0.2632
    4MOL    C67 1933   3.281   4.536   1.087  0.0832  0.0754 -0.1330
    4MOL    C68 1934   3.316   4.645   1.197  0.2490  0.7879  0.6448
    4MOL    C69 1935   3.317   4.794   1.154  0.3864  0.5669 -0.6636
    4MOL    C70 1936   3.338   4.892   1.272  0.1219 -0.2371  0.0233
    4MOL    C71 1937   3.479   4.886   1.326  0.2673  0.0708  0.1094
    4MOL    C72 1938   3.499   4.962   1.456  0.1763  0.2547  0.5816
    4MOL    C73 1939   3.495   5.116   1.444  0.2616  0.5726  0.1530
    4MOL    C74 1940   3.285   4.316   0.792  0.4700 -0.0151  0.3725
    4MOL    H75 1941   3.433   4.312   0.946 -0.8709  0.7178  0.5371
    4MOL    H76 1942   3.379   4.353   1.165 -1.2855 -2.2890 -1.4957
    4MOL    H77 1943   3.218   4.382   1.219 -1.0634 -1.3420 -0.5833
    4MOL    H78 1944   3.179   4.551   1.050 -0.3936 -0.1627  1.0780
    4MOL    H79 1945   3.346   4.545   1.000  0.5563 -0.6328  0.1392
    4MOL    H80 1946   3.245   4.623   1.277  1.4722 -0.1225  1.5013
    4MOL    H81 1947   3.412   4.618   1.242 -0.2789  1.5587  2.2609
    4MOL    H82 1948   3.397   4.804   1.080  1.0535  1.7203  0.1888
    4MOL    H83 1949   3.224   4.821   1.102 -0.7955  1.3942  1.8042
    4MOL    H84 1950   3.310   4.993   1.241 -1.8480 -0.7050  0.2337
    4MOL    H85 1951   3.268   4.874   1.353 -0.2851 -0.1325 -0.2984
    4MOL    H86 1952   3.541   4.937   1.252  0.9841 -2.3517 -1.0185
    4MOL    H87 1953   3.514   4.783   1.328 -0.9854 -0.3301  1.2691
    4MOL    H88 1954   3.432   4.916   1.528  2.6261 -1.5057  1.8112
    4MOL    H89 1955   3.597   4.939   1.499  0.1209  0.4367  0.8035
    4MOL    H90 1956   3.482   5.154   1.545  0.4620  2.4389 -0.5191
    4MOL    H91 1957   3.409   5.149   1.386  0.5524 -0.0345 -0.6241
    4MOL    H92 1958   3.584   5.136   1.386  0.9895  2.4229  1.8581
    4MOL    H93 1959   3.194   4.260   0.769  0.2922 -0.3665  1.8216
    4MOL    H94 1960   3.262   4.422   0.805 -0.7014 -0.4883  2.5935
    4MOL    C95 1961   3.384   4.298   0.670  0.3918 -0.1350 -0.5403
    4MOL    O96 1962   3.518   4.347   0.685 -0.0968 -0.0625  0.2999
    4MOL    C97 1963   3.530   4.486   0.711  0.2819 -0.1826  0.7063
    4MOL    C98 1964   3.679   4.531   0.712 -0.0643 -0.5213 -0.1776
    4MOL    C99 1965   3.687   4.684   0.734  0.0879  0.5051  0.8396
    4MOL   C100 1966   3.652   4.728   0.876 -0.8034  1.0493  0.2050
    4MOL   C101 1967   3.662   4.880   0.897  0.1244 -0.3067  0.3463
    4MOL   C102 1968   3.800   4.930   0.944  0.4917 -0.5439 -0.4856
    4MOL   C103 1969   3.794   5.082   0.981  0.7629  0.0236  0.3179
    4MOL   C104 1970   3.717   5.122   1.107 -0.2714  0.1055  0.7544
    4MOL   C105 1971   3.324   4.365   0.535 -0.5970 -0.4583  0.8219
    4MOL   H106 1972   3.402   4.190   0.667  0.5079 -0.0948 -1.3042
    4MOL   H107 1973   3.470   4.514   0.797 -0.8094 -0.4755  0.0553
    4MOL   H108 1974   3.490   4.541   0.626  0.6620 -0.7119  0.1828
    4MOL   H109 1975   3.730   4.506   0.619 -0.8393 -1.6386 -0.3155
    4MOL   H110 1976   3.735   4.477   0.787  2.4124  0.9197 -0.9344
    4MOL   H111 1977   3.790   4.719   0.722 -0.6847  2.6611  0.2070
    4MOL   H112 1978   3.633   4.742   0.659  1.3593  0.3911 -0.1721
    4MOL   H113 1979   3.554   4.698   0.912 -0.1828  0.3674  1.3785
    4MOL   H114 1980   3.730   4.686   0.940 -0.8828  0.1192 -0.2970
    4MOL   H115 1981   3.634   4.940   0.810 -1.6440 -0.0009  1.1079
    4MOL   H116 1982   3.587   4.905   0.972 -0.1368 -1.1059  0.3485
    4MOL   H117 1983   3.871   4.912   0.864 -0.1154 -0.9435 -0.9403
    4MOL   H118 1984   3.825   4.874   1.035  2.4788  0.8603 -0.1468
    4MOL   H119 1985   3.896   5.120   0.974  0.4724  0.5317 -1.5166
    4MOL   H120 1986   3.734   5.127   0.901  1.0987 -0.4891 -0.2262
    4MOL   H121 1987   3.734   5.058   1.194  4.7096  0.3462  0.1376
    4MOL   H122 1988   3.614   5.104   1.079  0.1824 -1.2501 -0.0639
    4MOL   H123 1989   3.739   5.221   1.146 -1.4590  1.0805 -1.0239
    4MOL   H124 1990   3.223   4.326   0.521 -0.5006 -0.5418  0.3640
    4MOL   H125 1991   3.309   4.471   0.553 -0.6124  0.0187 -1.8111
    4MOL   C126 1992   3.414   4.348   0.410 -0.2412  0.1885  0.1386
    4MOL   O127 1993   3.351   4.435   0.318  0.5397 -0.4450 -0.0453
    4MOL   C128 1994   3.437   4.477   0.210 -0.0353  0.0224 -0.1333
    4MOL   C129 1995   3.382   4.590   0.130  0.4256 -0.0686  0.2923
    4MOL   C130 1996   3.469   4.658   0.028  0.1129 -0.7088  0.7570
    4MOL   C131 1997   3.415   4.794   7.757 -0.0231  0.1637  0.4338
    4MOL   C132 1998   3.494   4.848   7.634 -0.3914  0.5242  0.0318
    4MOL   C133 1999   3.431   4.972   7.569 -0.1785  0.0370 -0.2702
    4MOL   C134 2000   3.422   5.098   7.661 -0.5790 -0.2982 -0.1931
    4MOL   C135 2001   3.414   5.238   7.589  0.1629  0.0450  0.5726
    4MOL   C136 2002   3.412   4.200   0.356 -0.1961 -0.4924 -0.4816
    4MOL   H137 2003   3.517   4.379   0.430 -1.1760  3.1093  0.7119
    4MOL   H138 2004   3.444   4.390   0.146 -1.0511  0.3065 -0.6439
    4MOL   H139 2005   3.533   4.505   0.253 -0.6860  1.4353  0.4448
    4MOL   H140 2006   3.350   4.663   0.205  2.0497  0.6418  0.3320
    4MOL   H141 2007   3.290   4.563   0.079  0.6714 -1.9896  0.7974
    4MOL   H142 2008   3.564   4.667   0.081 -0.1362 -0.7040  1.2034
    4MOL   H143 2009   3.486   4.589   7.719 -0.8321 -1.5871  1.2838
    4MOL   H144 2010   3.314   4.769   7.724  1.0930 -0.3393 -2.8326
    4MOL   H145 2011   3.417   4.866   0.064  2.3598  0.9481 -0.2638
    4MOL   H146 2012   3.595   4.870   7.670 -0.5278 -0.5784  1.1015
    4MOL   H147 2013   3.496   4.776   7.552 -5.2809 -0.0764  0.3208
    4MOL   H148 2014   3.333   4.946   7.531  0.0303  1.3052 -1.7396
    4MOL   H149 2015   3.485   5.000   7.478  1.1680  2.2730  1.1614
    4MOL   H150 2016   3.341   5.093   7.733  1.1302 -0.6498  1.7342
    4MOL   H151 2017   3.513   5.096   7.721 -0.0747 -2.2036 -0.9751
    4MOL   H152 2018   3.390   5.329   7.644  0.9402  0.8829 -0.4600
    4MOL   H153 2019   3.345   5.228   7.505 -1.3077  1.8598  1.5003
    4MOL   H154 2020   3.513   5.251   7.545  0.1490 -2.6809 -0.3473
    4MOL   H155 2021   3.392   4.130   0.436  0.0200 -1.1763 -1.0202
    4MOL   H156 2022   3.322   4.190   0.295 -1.4957 -1.8884  1.6050
    4MOL   C157 2023   3.536   4.146   0.279  0.7872  0.0812  1.3470
    4MOL   O158 2024   3.486   4.067   0.171  0.5898  0.2250  0.0933
    4MOL   C159 2025   3.456   4.124   0.045  0.2503  0.2909 -0.0074
    4MOL   C160 2026   3.306   4.141   0.012  0.2191  0.3114 -0.6027
    4MOL   C161 2027   3.226   4.007   0.026 -0.1899 -0.1099 -0.0987
    4MOL   C162 2028   3.086   4.009   7.744 -0.1875 -0.2644  0.4651
    4MOL   C163 2029   3.015   3.875   7.772  0.3798 -0.2492 -0.1124
    4MOL   C164 2030   2.886   3.858   7.699  0.2827  0.3253 -0.0425
    4MOL   C165 2031   2.819   3.732   7.750 -0.4449  0.1124  0.2525
    4MOL   C166 2032   2.801   3.717   0.125 -0.4122 -0.2393 -0.6318
    4MOL   C167 2033   3.626   4.054   0.368  0.2958  0.2330 -0.7557
    4MOL   H168 2034   3.603   4.221   0.238  0.9790 -0.6750  0.2418
    4MOL   H169 2035   3.477   4.062   7.732  2.2165 -0.4906  1.0174
    4MOL   H170 2036   3.510   4.217   0.026  1.0054  0.0924  1.1629
    4MOL   H171 2037   3.298   4.163   7.679  2.3722 -0.1137 -0.8736
    4MOL   H172 2038   3.263   4.218   0.075 -0.0680  0.6427 -1.1977
    4MOL   H173 2039   3.286   3.925   7.761  0.1692 -0.9998  2.2264
    4MOL   H174 2040   3.219   3.996   0.134  0.9457  2.8222  0.3169
    4MOL   H175 2041   3.035   4.098   0.008 -0.8425 -0.7580  0.7461
    4MOL   H176 2042   3.093   4.031   7.638  2.3558  0.5180  0.7482
    4MOL   H177 2043   3.083   3.794   7.743  0.4958 -0.8310  1.7317
    4MOL   H178 2044   2.994   3.869   0.104 -1.5000  0.6231 -0.4233
    4MOL   H179 2045   2.906   3.861   7.592  0.6620  1.0458  0.0518
    4MOL   H180 2046   2.822   3.944   7.716 -0.3895 -0.3506  0.9021
    4MOL   H181 2047   2.718   3.730   7.709  0.2597 -0.5738 -1.4762
    4MOL   H182 2048   2.870   3.646   7.707 -0.0692  0.5745 -0.2288
    4MOL   H183 2049   2.779   3.817   0.163 -2.0519 -0.6512 -0.4296
    4MOL   H184 2050   2.890   3.671   0.169  0.2859  0.6732 -1.0869
    4MOL   H185 2051   2.711   3.661   0.153 -1.0368  1.0824  0.0724
    4MOL   H186 2052   3.560   3.981   0.415  0.4395 -0.3561 -1.4611
    4MOL   H187 2053   3.692   4.005   0.296  0.8040  2.0079 -1.5392
    4MOL   C188 2054   3.718   4.127   0.475 -0.1697 -0.0008 -0.6537
    4MOL   O189 2055   3.842   4.165   0.413  0.7396 -0.5398 -0.4670
    4MOL   C190 2056   3.839   4.303   0.389  0.2036  0.0210  0.3591
    4MOL   C191 2057   3.970   4.334   0.308  0.4067  0.2756 -0.2043
    4MOL   C192 2058   3.977   4.481   0.269  0.0277 -0.3828  0.4631
    4MOL   C193 2059   4.090   4.500   0.163 -0.5537  0.2868 -0.0669
    4MOL   C194 2060   4.091   4.628   0.082 -0.0832 -0.4079  0.6887
    4MOL   C195 2061   4.235   4.675   0.035 -0.1447  0.1781 -0.3535
    4MOL   C196 2062   4.315   4.744   0.147 -0.1810 -0.2598  0.5689
    4MOL   C197 2063   4.471   4.750   0.125 -0.3186 -0.0190 -0.5152
    4MOL   C198 2064   3.739   4.033   0.593 -0.1638  0.2501  0.0165
    4MOL   H199 2065   3.655   4.207   0.515  2.0659 -0.2497  3.7296
    4MOL   H200 2066   3.760   4.327   0.318 -0.0620 -0.5962  0.4370
    4MOL   H201 2067   3.844   4.369   0.476  2.3381  1.5745 -0.8972
    4MOL   H202 2068   3.980   4.266   0.223 -2.9512  0.6137 -0.9380
    4MOL   H203 2069   4.056   4.322   0.374  0.9972  0.1849 -0.9831
    4MOL   H204 2070   3.878   4.501   0.230 -0.3637  2.9896  2.9117
    4MOL   H205 2071   3.984   4.556   0.348  0.2517 -0.9038  0.9386
    4MOL   H206 2072   4.184   4.497   0.218 -1.2844 -0.8365  1.1467
    4MOL   H207 2073   4.090   4.412   0.099  1.2568  0.0862  0.1874
    4MOL   H208 2074   4.029   4.618   7.767 -0.9199  0.4955  1.1657
    4MOL   H209 2075   4.046   4.707   0.142 -1.7691 -0.5655 -0.3447
    4MOL   H210 2076   4.214   4.751   7.734 -1.1331  0.3775  0.1033
    4MOL   H211 2077   4.289   4.590   7.769 -1.0699 -0.8818  0.5833
    4MOL   H212 2078   4.275   4.844   0.162  1.3833  0.4839 -0.1462
    4MOL   H213 2079   4.317   4.694   0.244  1.9691  0.9329  1.1822
    4MOL   H214 2080   4.496   4.802   0.032  0.4853  3.8027  1.7267
    4MOL   H215 2081   4.518   4.653   0.139  0.1498  0.6627  3.2182
    4MOL   H216 2082   4.515   4.806   0.207  1.0687  0.4041 -1.5440
    4MOL   H217 2083   3.652   4.021   0.657  0.1015  0.1221  0.3550
    4MOL   H218 2084   3.758   3.931   0.558  1.2249 -0.3039  2.2645
    4MOL   C219 2085   3.854   4.074   0.693  0.0996 -0.2048 -0.5925
    4MOL   O220 2086   3.864   3.978   0.801  0.0541 -0.1975 -0.0030
    4MOL   C221 2087   3.950   3.873   0.765 -0.0366  0.1942 -0.3515
    4MOL   C222 2088   3.946   3.780   0.882 -0.6319 -0.5117  0.2566
    4MOL   C223 2089   4.059   3.669   0.873 -0.1114 -1.1416  0.2726
    4MOL   C224 2090   4.038   3.556   0.769 -0.1393 -0.1435  0.1757
    4MOL   C225 2091   4.168   3.483   0.742 -0.9140  0.6063  0.2487
    4MOL   C226 2092   4.219   3.394   0.858  0.3710 -0.5715  0.7075
    4MOL   C227 2093   4.354   3.329   0.834  0.3998 -0.6621 -0.5254
    4MOL   C228 2094   4.397   3.249   0.949  0.2752 -0.3922  0.1615
    4MOL   C229 2095   3.821   4.208   0.755  0.5057  0.5523  0.6144
    4MOL   H230 2096   3.945   4.089   0.633 -0.5227 -0.5728 -1.6388
    4MOL   H231 2097   4.050   3.918   0.765 -0.0408  0.2081 -1.1169
    4MOL   H232 2098   3.926   3.837   0.665 -4.6277  1.5382  0.1609
    4MOL   H233 2099   3.846   3.737   0.878 -2.1176  2.7677  0.8311
    4MOL   H234 2100   3.951   3.834   0.976  0.2472  0.5915 -0.4213
    4MOL   H235 2101   4.155   3.719   0.857 -0.9300  0.2912 -0.2446
    4MOL   H236 2102   4.070   3.624   0.972  0.0566 -2.3393 -0.2809
    4MOL   H237 2103   3.955   3.494   0.805  0.5293 -0.2389  1.5873
    4MOL   H238 2104   4.012   3.590   0.669  2.2403  0.7865 -0.1546
    4MOL   H239 2105   4.160   3.428   0.648 -2.2474  0.3987  0.4762
    4MOL   H240 2106   4.251   3.550   0.721 -0.4836 -0.1471 -0.5029
    4MOL   H241 2107   4.155   3.307   0.874 -0.7560  0.3946  1.4563
    4MOL   H242 2108   4.227   3.448   0.952 -0.0920  0.1741  0.3195
    4MOL   H243 2109   4.349   3.260   0.749  0.0971 -0.2181 -0.8646
    4MOL   H244 2110   4.425   3.411   0.827  0.2118 -0.4513  0.0479
    4MOL   H245 2111   4.319   3.180   0.982 -1.8913  1.6749 -0.5320
    4MOL   H246 2112   4.417   3.312   1.036  2.8591  0.7126 -1.1799
    4MOL   H247 2113   4.490   3.194   0.933  1.0962  0.7934  0.7443
    4MOL   H248 2114   3.788   4.275   0.675  1.9367  0.7981  0.2129
    4MOL   H249 2115   3.728   4.205   0.813 -0.7567  1.8950 -1.2854
    4MOL   C250 2116   3.927   4.267   0.852  0.3354 -0.1576  0.5333
    4MOL   O251 2117   4.040   4.298   0.777 -0.5127  0.1249  0.4330
    4MOL   C252 2118   4.036   4.421   0.705  0.3110  0.1404 -0.3410
    4MOL   C253 2119   4.152   4.514   0.742 -0.0665 -0.0628 -0.3444
    4MOL   C254 2120   4.190   4.610   0.630  0.2323 -0.3186  0.3304
    4MOL   C255 2121   4.285   4.723   0.668  0.1961 -0.4485  0.1786
    4MOL   C256 2122   4.344   4.796   0.544  0.2527  0.3966 -0.0602
    4MOL   C257 2123   4.373   4.947   0.560 -0.2436 -0.6778 -0.1241
    4MOL   C258 2124   4.386   5.010   0.428 -0.3428  0.2315  0.3040
    4MOL   C259 2125   4.467   5.136   0.425 -0.6643  0.6489 -0.1272
    4MOL   C260 2126   3.971   4.180   0.974 -0.3390  0.2582 -0.1185
    4MOL   H261 2127   3.885   4.355   0.899 -1.9873 -1.9305  1.8781
    4MOL   H262 2128   3.937   4.465   0.699  0.2556 -0.2583 -3.0896
    4MOL   H263 2129   4.049   4.400   0.599 -2.4854  1.2349 -0.9499
    4MOL   H264 2130   4.237   4.456   0.779 -2.2082 -1.8215  1.9694
    4MOL   H265 2131   4.126   4.566   0.834  0.0315 -1.7651  0.6668
    4MOL   H266 2132   4.238   4.547   0.555 -0.3086 -2.3604  1.6847
    4MOL   H267 2133   4.100   4.655   0.586  0.3188 -0.5845 -0.1195
    4MOL   H268 2134   4.229   4.788   0.734 -0.9219 -0.9375 -0.2788
    4MOL   H269 2135   4.364   4.685   0.733 -0.5688 -1.1126  0.7252
    4MOL   H270 2136   4.437   4.750   0.511  0.8105 -0.2118  2.2293
    4MOL   H271 2137   4.267   4.785   0.467  0.8928  0.0756 -0.6569
    4MOL   H272 2138   4.465   4.967   0.616 -1.0767  0.0207  1.0278
    4MOL   H273 2139   4.292   4.993   0.617  1.8773  1.9513  0.9101
    4MOL   H274 2140   4.425   4.943   0.351  0.3800  0.7359  0.2348
    4MOL   H275 2141   4.290   5.038   0.383 -0.1888  0.8360  0.3465
    4MOL   H276 2142   4.459   5.195   0.334 -2.2131 -0.7872 -0.9490
    4MOL   H277 2143   4.568   5.094   0.427 -0.9759 -0.0594  1.0785
    4MOL   H278 2144   4.448   5.189   0.518 -2.9369  0.6365 -0.5622
    4MOL   H279 2145   3.897   4.112   1.018  1.0591 -1.9578 -1.0809
    4MOL   H280 2146   4.053   4.117   0.940  0.3174  1.3848 -0.6311
    4MOL   C281 2147   4.030   4.261   1.094  0.0105  0.1468 -0.2517
    4MOL   O282 2148   3.939   4.366   1.126  0.0779 -0.3043  0.1728
    4MOL   C283 2149   3.836   4.333   1.226 -0.3581 -0.5069 -0.3021
    4MOL   C284 2150   3.728   4.437   1.215  0.3741 -0.6932  0.3911
    4MOL   C285 2151   3.785   4.581   1.203 -0.1911 -0.2655 -0.2807
    4MOL   C286 2152   3.882   4.627   1.325 -0.0307  0.0426 -0.6989
    4MOL   C287 2153   3.941   4.770   1.318  0.8159  0.2480 -0.4419
    4MOL   C288 2154   4.067   4.764   1.236  0.4272 -0.1622 -0.1200
    4MOL   C289 2155   4.115   4.905   1.204  0.5710 -0.6196 -0.1370
    4MOL   C290 2156   4.239   4.904   1.119 -0.0778  0.6022  0.1875
    4MOL   C291 2157   4.168   4.319   1.065  0.9606  0.3747  0.0050
    4MOL   H292 2158   4.040   4.182   1.169  0.1035 -1.1259 -1.5626
    4MOL   H293 2159   3.880   4.322   1.325 -2.1199 -3.2127  0.2535
    4MOL   H294 2160   3.778   4.244   1.201 -1.0395 -0.0518 -0.3747
    4MOL   H295 2161   3.662   4.433   1.302 -2.3032  2.3960 -1.3791
    4MOL   H296 2162   3.656   4.423   1.135  0.7872  2.3513 -0.5901
    4MOL   H297 2163   3.851   4.594   1.118 -0.2603 -1.4357 -0.5253
    4MOL   H298 2164   3.698   4.644   1.184  0.9334  0.7865 -2.0516
    4MOL   H299 2165   3.813   4.617   1.410 -0.6460 -0.5601 -1.2587
    4MOL   H300 2166   3.968   4.561   1.338  1.2224  2.0692  1.7177
    4MOL   H301 2167   3.861   4.819   1.261 -0.6716 -2.8417 -1.1095
    4MOL   H302 2168   3.971   4.827   1.406  1.2183  0.8750 -0.9759
    4MOL   H303 2169   4.054   4.704   1.146 -0.7684 -0.1210  0.0173
    4MOL   H304 2170   4.143   4.711   1.292 -0.2545 -0.2300  0.7594
    4MOL   H305 2171   4.043   4.963   1.147  0.3536 -1.9799 -1.2917
    4MOL   H306 2172   4.135   4.960   1.296 -0.1002 -1.7346  0.6990
    4MOL   H307 2173   4.271   5.006   1.097  0.2981  0.8064  1.6344
    4MOL   H308 2174   4.228   4.861   1.019  1.0945  1.8841 -0.5145
    4MOL   H309 2175   4.325   4.865   1.173  0.1337  1.3425  0.3860
    4MOL   H310 2176   4.214   4.268   0.980  0.2106 -0.5034  0.1199
    4MOL   H311 2177   4.150   4.421   1.029  2.1822  0.1434 -1.3212
    4MOL   C312 2178   4.269   4.323   1.173 -0.1913  0.7403 -0.4042
    4MOL   O313 2179   4.379   4.403   1.133 -0.0314 -0.4484 -0.8681
    4MOL   C314 2180   4.387   4.521   1.213  0.7349  0.2321 -0.1427
    4MOL   C315 2181   4.512   4.596   1.177  0.2816 -0.2940 -0.4082
    4MOL   C316 2182   4.647   4.519   1.193  0.1744 -0.2772  1.0816
    4MOL   C317 2183   4.758   4.605   1.146  0.3242  0.1502 -0.0159
    4MOL   C318 2184   4.894   4.525   1.121  0.4295  0.0803  0.0673
    4MOL   C319 2185   4.889   4.418   1.007 -0.5739 -0.3610 -0.3480
    4MOL   C320 2186   5.024   4.354   0.999  0.5875 -0.7625  0.3618
    4MOL   C321 2187   5.029   4.242   0.887 -0.8484 -0.6288 -0.2908
    4MOL   C322 2188   4.337   4.179   1.193  0.0104 -0.9119 -0.2618
    4MOL   H323 2189   4.214   4.349   1.264 -1.5147 -1.0212 -0.6725
    4MOL   H324 2190   4.386   4.489   1.318  3.1421 -1.5468 -0.6295
    4MOL   H325 2191   4.303   4.587   1.189  2.6163  2.6083 -0.3620
    4MOL   H326 2192   4.522   4.690   1.233 -0.3064 -1.6213  2.0170
    4MOL   H327 2193   4.494   4.634   1.077  0.3748 -2.4071 -1.2283
    4MOL   H328 2194   4.675   4.488   1.293 -0.1392 -2.3540  0.5557
    4MOL   H329 2195   4.646   4.430   1.129  1.7324  1.4144 -1.3705
    4MOL   H330 2196   4.745   4.669   1.058  0.5730  2.0654  1.3017
    4MOL   H331 2197   4.777   4.688   1.215  1.5173  0.1123 -0.2877
    4MOL   H332 2198   4.977   4.593   1.099  0.7411 -0.2535  0.2020
    4MOL   H333 2199   4.922   4.471   1.212  2.0577  0.0747 -0.4079
    4MOL   H334 2200   4.866   4.474   0.916  0.6718  1.5275  0.4727
    4MOL   H335 2201   4.818   4.337   1.025 -0.0737 -0.0488  3.2516
    4MOL   H336 2202   5.093   4.436   0.984  1.1505 -0.6811  3.1116
    4MOL   H337 2203   5.058   4.309   1.093 -2.1967  0.0980  1.8377
    4MOL   H338 2204   5.134   4.212   0.887 -0.1314  1.7536 -2.0629
    4MOL   H339 2205   4.991   4.287   0.795  0.9548 -1.0044 -1.2403
    4MOL   H340 2206   4.976   4.151   0.913  0.4429 -0.7024  2.3428
    4MOL   H341 2207   4.262   4.102   1.205  0.6838 -1.5266  0.0179
    4MOL   H342 2208   4.384   4.150   1.098 -0.3376 -1.4142 -0.2784
    4MOL   C343 2209   4.442   4.173   1.304 -0.6166 -0.2547 -0.6148
    4MOL   O344 2210   4.549   4.081   1.267  0.2645  0.1808  0.1164
    4MOL   C345 2211   4.657   4.136   1.189  0.4981 -0.5762  0.4297
    4MOL   C346 2212   4.732   4.013   1.145  0.0372 -0.3670  1.0927
    4MOL   C347 2213   4.823   3.956   1.254  0.3348  0.0380  0.3791
    4MOL   C348 2214   4.919   3.857   1.194  0.5563  0.2100 -0.5691
    4MOL   C349 2215   5.042   3.813   1.285  0.5870 -0.8555  0.2737
    4MOL   C350 2216   5.126   3.708   1.218 -0.4075 -0.2006  0.6278
    4MOL   C351 2217   5.258   3.674   1.295 -0.8248  0.3213  0.6089
    4MOL   C352 2218   5.340   3.569   1.217 -0.1007  0.1303 -0.2239
    4MOL   C353 2219   4.395   4.120   1.441  0.2122 -0.4495  0.1199
    4MOL   H354 2220   4.489   4.271   1.312 -1.4990 -0.0359  2.4063
    4MOL   H355 2221   4.711   4.216   1.241  1.0332  1.3300 -2.9144
    4MOL   H356 2222   4.630   4.192   1.099 -1.4757  0.3550  1.5571
    4MOL   H357 2223   4.797   4.035   1.060 -2.1011 -1.6602 -0.9543
    4MOL   H358 2224   4.663   3.937   1.109  1.2050 -1.2770  0.7488
    4MOL   H359 2225   4.881   4.034   1.303  2.0519 -0.6030 -0.5886
    4MOL   H360 2226   4.759   3.913   1.331  1.7692  0.9929  2.1556
    4MOL   H361 2227   4.867   3.769   1.157  1.2530 -1.4168  2.1446
    4MOL   H362 2228   4.963   3.899   1.104  1.0490 -0.4640 -0.6511
    4MOL   H363 2229   5.093   3.905   1.315  0.1184 -0.8199  0.9823
    4MOL   H364 2230   5.009   3.765   1.377 -0.6838 -1.4254 -0.4697
    4MOL   H365 2231   5.153   3.738   1.116  0.3043 -1.3209  0.4750
    4MOL   H366 2232   5.066   3.617   1.208  0.4072 -0.5120 -1.8700
    4MOL   H367 2233   5.319   3.763   1.283 -1.6874  1.1027  1.8679
    4MOL   H368 2234   5.242   3.648   1.400 -0.6957  0.5515  0.6864
    4MOL   H369 2235   5.440   3.572   1.261  0.4943 -2.1382 -1.3354
    4MOL   H370 2236   5.339   3.603   1.114  0.7657  0.1239 -0.2366
    4MOL   H371 2237   5.297   3.470   1.233  0.8040 -0.6030 -2.1302
    4MOL   H372 2238   4.373   4.013   1.436 -0.7077 -0.3088  1.0484
    4MOL   H373 2239   4.481   4.121   1.508  1.1021 -1.4053 -0.9831
    4MOL   C374 2240   4.275   4.205   1.492  0.1283 -0.0700 -0.5976
    4MOL   O375 2241   4.315   4.341   1.528  0.2097  0.1682  0.1643
    4MOL   C376 2242   4.433   4.364   1.592 -0.0292 -0.2060  0.0962
    4MOL   C377 2243   4.439   4.509   1.657 -0.1242 -0.1824  0.4685
    4MOL   C378 2244   4.427   4.624   1.551 -0.1208 -0.2351  0.4796
    4MOL   C379 2245   4.448   4.768   1.591 -0.2832 -0.4225 -0.7544
    4MOL   C380 2246   4.393   4.873   1.501 -0.2037 -0.4028  0.5688
    4MOL   C381 2247   4.421   5.016   1.547  0.1979 -0.2011  0.5780
    4MOL   C382 2248   4.399   5.122   1.435  0.7241 -0.9718 -0.1585
    4MOL   C383 2249   4.462   5.260   1.483  0.0716 -0.2268 -0.1833
    4MOL   C384 2250   4.218   4.143   1.628  1.0775 -0.2336 -0.1660
    4MOL   H385 2251   4.193   4.210   1.420 -2.0783 -2.0896  1.7076
    4MOL   H386 2252   4.511   4.353   1.516  1.1318 -2.6601  1.5856
    4MOL   H387 2253   4.457   4.287   1.665 -0.9628 -2.4244 -1.8742
    4MOL   H388 2254   4.533   4.518   1.710  0.9602  2.3166 -1.7538
    4MOL   H389 2255   4.352   4.528   1.721 -0.7588  0.6134 -0.6190
    4MOL   H390 2256   4.500   4.617   1.470 -1.4678 -1.9686 -0.6058
    4MOL   H391 2257   4.336   4.620   1.492  1.3634 -2.6312 -1.7711
    4MOL   H392 2258   4.400   4.786   1.687 -2.3366 -2.5651 -1.3538
    4MOL   H393 2259   4.551   4.800   1.610 -0.3102 -1.1493  0.6362
    4MOL   H394 2260   4.420   4.855   1.397  1.3826 -1.0698  1.0847
    4MOL   H395 2261   4.284   4.866   1.503 -0.2297 -0.0725  0.3411
    4MOL   H396 2262   4.523   5.022   1.587  0.2076 -1.2279  0.7442
    4MOL   H397 2263   4.359   5.032   1.635 -1.8455 -2.8104 -0.3243
    4MOL   H398 2264   4.444   5.087   1.342 -0.3024  0.0812 -1.0669
    4MOL   H399 2265   4.293   5.130   1.409  0.7731  1.4597  0.3146
    4MOL   H400 2266   4.381   5.321   1.525 -0.9792 -0.1435 -2.2566
    4MOL   H401 2267   4.499   5.312   1.395  1.7882 -1.3674 -0.1645
    4MOL   H402 2268   4.558   5.248   1.533 -0.7699 -1.4319  1.1899
    4MOL   H403 2269   4.180   4.044   1.602  1.1462 -0.2578 -0.1734
    4MOL   H404 2270   4.309   4.131   1.686  1.0031  1.9480  0.4490
    4MOL   C405 2271   4.108   4.228   1.701 -0.9996 -0.0464  0.3248
    4MOL   O406 2272   4.087   4.158   1.825 -0.1274 -0.2477  0.4251
    4MOL   C407 2273   4.185   4.172   1.921  0.2665 -0.3026 -0.0434
    4MOL   C408 2274   4.129   4.172   2.063 -0.2431 -1.1619 -0.1528
    4MOL   C409 2275   4.089   4.027   2.097 -0.3644  0.4883 -0.1095
    4MOL   C410 2276   4.059   4.007   2.243  0.3268  0.4170  0.1011
    4MOL   C411 2277   4.078   3.866   2.287 -0.4209 -0.2537  0.1677
    4MOL   C412 2278   4.046   3.862   2.437 -0.1013 -0.2515 -0.5093
    4MOL   C413 2279   4.081   3.723   2.497 -0.4223 -0.2020  0.1570
    4MOL   C414 2280   4.072   3.723   2.648 -0.0481 -0.1794 -0.1301
    4MOL   C415 2281   3.978   4.259   1.623  0.3214 -0.4241  0.0565
    4MOL   H416 2282   4.161   4.320   1.725  1.1921 -0.8707 -1.1016
    4MOL   H417 2283   4.248   4.261   1.917  0.4329 -0.3584  1.2318
    4MOL   H418 2284   4.259   4.092   1.910  1.5307  0.6911  0.9659
    4MOL   H419 2285   4.042   4.237   2.066  0.5613 -0.1528  2.7525
    4MOL   H420 2286   4.200   4.201   2.140 -3.0584  0.7944  1.8065
    4MOL   H421 2287   4.009   4.000   2.028 -1.0457  2.0832  0.0503
    4MOL   H422 2288   4.168   3.959   2.067  0.6461  0.7143  1.9536
    4MOL   H423 2289   4.137   4.061   2.297 -1.0099  1.6335  0.8689
    4MOL   H424 2290   3.970   4.056   2.282 -2.0098 -2.8054 -0.9615
    4MOL   H425 2291   4.014   3.799   2.230  1.8544 -3.8201  1.5906
    4MOL   H426 2292   4.178   3.826   2.267 -0.4279  0.3299 -1.0638
    4MOL   H427 2293   3.945   3.893   2.461 -1.3872 -3.3141 -1.7229
    4MOL   H428 2294   4.107   3.940   2.484  1.4894 -1.4079 -0.6084
    4MOL   H429 2295   4.007   3.653   2.459 -1.7943  2.1188 -1.5496
    4MOL   H430 2296   4.179   3.689   2.465 -0.0434  1.3432 -0.3709
    4MOL   H431 2297   4.101   3.626   2.688 -1.7612 -0.1364  1.2755
    4MOL   H432 2298   3.968   3.741   2.675 -0.1472  0.4531 -0.9286
    4MOL   H433 2299   4.129   3.803   2.694 -0.2038  0.8738 -1.7378
    4MOL   H434 2300   4.003   4.289   1.521  0.2550  1.2543  0.5146
    4MOL   H435 2301   3.923   4.165   1.620  1.9206 -1.4184  1.5047
    4MOL   C436 2302   3.880   4.363   1.680  0.1476  0.3804  0.2526
    4MOL   O437 2303   3.763   4.365   1.593 -0.2885 -0.7480 -0.3882
    4MOL   C438 2304   3.669   4.267   1.628 -1.2079 -0.0736  0.1525
    4MOL   C439 2305   3.556   4.278   1.530 -0.2443 -0.1522  0.5197
    4MOL   C440 2306   3.444   4.198   1.576 -0.0103 -0.4832  0.1671
    4MOL   C441 2307   3.328   4.200   1.471 -0.2407 -0.7053 -0.0844
    4MOL   C442 2308   3.206   4.119   1.520  0.4962 -0.0714  0.0258
    4MOL   C443 2309   3.096   4.107   1.406 -0.1782  0.2973 -0.1798
    4MOL   C444 2310   2.992   3.998   1.452  0.5178 -0.5325 -0.1102
    4MOL   C445 2311   2.875   3.986   1.354 -0.1834  0.2651 -0.2518
    4MOL   C446 2312   3.940   4.502   1.674  0.1864 -0.8467  0.3473
    4MOL   H447 2313   3.857   4.338   1.783 -3.1123  0.0485 -0.5062
    4MOL   H448 2314   3.709   4.165   1.623  1.3039  0.9068 -0.6473
    4MOL   H449 2315   3.637   4.282   1.731 -0.1099  1.0462  0.3342
    4MOL   H450 2316   3.584   4.256   1.427 -0.9419  1.3409 -0.0058
    4MOL   H451 2317   3.527   4.383   1.526  1.9228  0.4955  1.1140
    4MOL   H452 2318   3.476   4.097   1.604 -0.2289 -0.7853 -0.6530
    4MOL   H453 2319   3.412   4.233   1.674  0.6987 -0.6287  0.4576
    4MOL   H454 2320   3.294   4.303   1.460  0.3114 -0.6722 -1.5555
    4MOL   H455 2321   3.358   4.169   1.371  0.7929  0.9452 -0.3159
    4MOL   H456 2322   3.248   4.023   1.551  3.3585  1.2337  0.3306
    4MOL   H457 2323   3.165   4.169   1.608 -1.7057 -0.4727 -0.7251
    4MOL   H458 2324   3.140   4.072   1.312 -1.1674 -0.6806 -0.2798
    4MOL   H459 2325   3.041   4.199   1.386 -0.6003  0.0617 -0.1028
    4MOL   H460 2326   3.044   3.903   1.452 -1.5566 -1.7202  1.5105
    4MOL   H461 2327   2.962   4.028   1.553  2.5421  1.0141  0.0535
    4MOL   H462 2328   2.812   4.075   1.357  0.8930  1.0588 -0.7951
    4MOL   H463 2329   2.810   3.904   1.385  0.9835 -0.7815 -0.5502
    4MOL   H464 2330   2.913   3.965   1.254  0.6597  0.5178  0.0113
    4MOL   H465 2331   4.034   4.506   1.729  0.6300 -0.9084 -0.4064
    4MOL   H466 2332   3.967   4.524   1.571  0.8252 -1.4144  0.3936
    4MOL   C467 2333   3.848   4.617   1.728 -0.7304  1.2470 -0.0176
    4MOL   O468 2334   3.924   4.733   1.712 -0.0238 -0.3675  0.1184
    4MOL   C469 2335   3.849   4.845   1.674 -0.6702  0.4027 -0.2563
    4MOL   C470 2336   3.941   4.968   1.685  0.2664  0.2144 -0.0374
    4MOL   C471 2337   3.863   5.101   1.690 -0.6408  0.5299 -0.3232
    4MOL   C472 2338   3.922   5.222   1.605 -0.2689  0.2293 -0.5263
    4MOL   C473 2339   3.938   5.208   1.454 -0.4901  0.0515 -0.1107
    4MOL   C474 2340   4.029   5.316   1.405  0.2485 -0.0234 -0.5500
    4MOL   C475 2341   4.063   5.297   1.258  0.8573 -0.3228 -0.0003
    4MOL   C476 2342   4.185   5.380   1.212  0.6063  0.2901 -0.2714
    4MOL   C477 2343   3.819   4.600   1.879 -0.3150  0.6567  0.4133
    4MOL   H478 2344   3.766   4.621   1.657  0.5107  1.8299 -1.4409
    4MOL   H479 2345   3.766   4.857   1.743 -0.1168 -1.3562  0.7511
    4MOL   H480 2346   3.818   4.843   1.570 -1.1154 -0.4309 -0.1135
    4MOL   H481 2347   3.992   4.960   1.589 -2.5953  1.7329 -1.7700
    4MOL   H482 2348   4.019   4.961   1.761 -0.4456  1.7347  0.8647
    4MOL   H483 2349   3.759   5.083   1.660 -0.6098 -1.9258  0.8981
    4MOL   H484 2350   3.852   5.130   1.794  2.3116 -0.3619  0.2755
    4MOL   H485 2351   3.870   5.316   1.626 -2.8864 -1.6503  1.6983
    4MOL   H486 2352   4.015   5.249   1.655 -2.3845  0.8623  3.2618
    4MOL   H487 2353   3.998   5.119   1.433  1.1994  0.6489  1.9522
    4MOL   H488 2354   3.843   5.210   1.402 -0.4708 -0.1724 -0.1558
    4MOL   H489 2355   4.115   5.329   1.471 -1.5790 -1.7512  2.2803
    4MOL   H490 2356   3.982   5.412   1.427  0.2054  0.6429 -3.3260
    4MOL   H491 2357   4.084   5.194   1.229 -2.0438 -0.9824  0.1282
    4MOL   H492 2358   3.972   5.316   1.202  1.1399  3.0423  0.5947
    4MOL   H493 2359   4.182   5.359   1.106 -5.7376 -1.8422  0.1597
    4MOL   H494 2360   4.283   5.355   1.255  1.1335  0.6738 -1.2407
    4MOL   H495 2361   4.174   5.485   1.241 -1.7580  0.2101 -0.8392
    4MOL   H496 2362   3.898   4.537   1.919  1.0142  2.1063  0.1042
    4MOL   H497 2363   3.844   4.692   1.931  1.5142 -0.3290  1.3423
    4MOL   C498 2364   3.672   4.556   1.917 -0.5678 -0.8116 -0.3513
    4MOL   O499 2365   3.580   4.652   1.865  0.1782  0.0401 -0.3416
    4MOL   C500 2366   3.464   4.576   1.820  0.2602  0.6113  0.3548
    4MOL   C501 2367   3.397   4.667   1.711  0.7956 -0.1113  0.5929
    4MOL   C502 2368   3.266   4.610   1.644 -0.2269 -0.6876  0.2231
    4MOL   C503 2369   3.152   4.571   1.745 -0.0268  0.4800 -0.0741
    4MOL   C504 2370   3.050   4.479   1.678 -0.6946 -0.3770  0.3554
    4MOL   C505 2371   2.924   4.452   1.759  0.5488 -0.1416  0.5935
    4MOL   C506 2372   2.820   4.346   1.701  0.8837  0.5477  0.4392
    4MOL   C507 2373   2.723   4.417   1.610 -0.4898 -0.0759 -0.8116
    4MOL   C508 2374   3.657   4.534   2.070 -0.8744  0.2698 -0.8231
    4MOL   H509 2375   3.656   4.456   1.875  2.8111 -0.9151 -1.5679
    4MOL   H510 2376   3.398   4.548   1.902  0.9865 -5.0647 -0.7409
    4MOL   H511 2377   3.491   4.483   1.770 -0.5809  1.4455 -1.6974
    4MOL   H512 2378   3.473   4.696   1.638  0.6465  0.6648  0.7420
    4MOL   H513 2379   3.370   4.764   1.752  1.1355  0.4917 -0.5942
    4MOL   H514 2380   3.236   4.677   1.563 -0.6932 -1.2476 -0.0610
    4MOL   H515 2381   3.300   4.520   1.593  1.4214  0.2402 -0.3601
    4MOL   H516 2382   3.184   4.520   1.835 -0.9409  1.7732  1.0040
    4MOL   H517 2383   3.102   4.664   1.773 -0.8429 -1.0535  3.8764
    4MOL   H518 2384   3.023   4.529   1.585 -0.4238  1.3379  1.1954
    4MOL   H519 2385   3.100   4.382   1.667 -1.6262 -1.2529  3.3000
    4MOL   H520 2386   2.872   4.546   1.775  0.2010  0.0757 -1.5346
    4MOL   H521 2387   2.960   4.401   1.848 -1.7484 -2.2060  0.4239
    4MOL   H522 2388   2.862   4.254   1.660 -0.3166 -0.3937  1.2827
    4MOL   H523 2389   2.769   4.314   1.792 -0.9311  0.3388 -0.6177
    4MOL   H524 2390   2.643   4.350   1.580 -0.9167  0.6664 -1.3647
    4MOL   H525 2391   2.766   4.456   1.517 -1.4807  1.4789 -0.6394
    4MOL   H526 2392   2.663   4.486   1.669  0.2937 -0.7317  0.7925
    4MOL   H527 2393   3.708   4.614   2.123 -1.1036  0.1554 -0.4306
    4MOL   H528 2394   3.556   4.549   2.108  0.0686  1.7985  1.1584
    4MOL   C529 2395   3.708   4.400   2.124 -0.1834  0.3746  0.7863
    4MOL   O530 2396   3.613   4.304   2.065 -0.2120 -0.2185 -0.1951
    4MOL   C531 2397   3.673   4.179   2.015 -0.5157 -0.6071 -0.7179
    4MOL   C532 2398   3.574   4.074   1.972 -0.0253  0.5782  0.3425
    4MOL   C533 2399   3.640   3.969   1.890 -0.1793  0.4958  0.2842
    4MOL   C534 2400   3.537   3.866   1.831 -0.2195 -0.1781 -0.0137
    4MOL   C535 2401   3.603   3.755   1.743  0.7211 -0.1144 -0.0427
    4MOL   C536 2402   3.496   3.647   1.699 -0.0378 -0.5127  0.5214
    4MOL   C537 2403   3.571   3.541   1.616  0.5826 -0.9542  0.5665
    4MOL   C538 2404   3.488   3.430   1.574 -0.0843  0.4393  0.5039
    4MOL   C539 2405   3.715   4.382   2.274  0.4662  0.1690 -0.8375
    4MOL   H540 2406   3.806   4.376   2.081 -0.8390 -0.6271 -0.1772
    4MOL   H541 2407   3.742   4.210   1.937  1.7188  0.6539  1.6734
    4MOL   H542 2408   3.740   4.139   2.091 -0.8308 -0.3228 -0.2925
    4MOL   H543 2409   3.492   4.132   1.929  0.1889  2.4336  2.3597
    4MOL   H544 2410   3.529   4.033   2.063  3.1382  1.0363  2.1867
    4MOL   H545 2411   3.689   4.013   1.804  2.5951 -3.6937 -0.4171
    4MOL   H546 2412   3.716   3.915   1.945 -0.3475 -1.2153 -1.1363
    4MOL   H547 2413   3.508   3.808   1.919 -3.1948  0.2216 -0.7015
    4MOL   H548 2414   3.461   3.925   1.781  0.4182  1.2625  0.6642
    4MOL   H549 2415   3.640   3.801   1.652 -2.7671  2.4610 -0.2588
    4MOL   H550 2416   3.683   3.696   1.787  1.2056  1.6907  1.5837
    4MOL   H551 2417   3.416   3.681   1.634  0.7814  0.8189  0.1912
    4MOL   H552 2418   3.438   3.611   1.784 -1.7810  0.0969 -0.3904
    4MOL   H553 2419   3.623   3.594   1.536 -2.1313 -1.4075 -1.5635
    4MOL   H554 2420   3.656   3.500   1.670  1.3385 -0.3381 -0.1517
    4MOL   H555 2421   3.421   3.466   1.496 -0.5364 -0.1517  0.6168
    4MOL   H556 2422   3.424   3.406   1.658  1.2530  0.9225  1.6781
    4MOL   H557 2423   3.553   3.347   1.545  1.7528  2.3880 -1.0929
    4MOL   H558 2424   3.626   4.418   2.326 -0.4772 -0.9841 -1.5931
    4MOL   H559 2425   3.731   4.275   2.292 -0.0175  0.6076  2.4223
    4MOL   C560 2426   3.838   4.449   2.343  0.0732  0.0707 -0.2079
    4MOL   O561 2427   3.841   4.586   2.320  0.3943 -0.2947 -0.6770
    4MOL   C562 2428   3.734   4.670   2.387 -0.3948  0.4484  0.1311
    4MOL   C563 2429   3.781   4.811   2.407 -0.0278 -0.5591 -0.4700
    4MOL   C564 2430   3.796   4.887   2.275 -0.3578 -0.5486  0.2073
    4MOL   C565 2431   3.661   4.924   2.199 -0.3727 -0.8155  0.2594
    4MOL   C566 2432   3.683   5.025   2.083 -0.0304 -0.4939  0.3926
    4MOL   C567 2433   3.554   5.071   2.011 -0.1141  0.0813  0.4585
    4MOL   C568 2434   3.574   5.157   1.886 -0.0228 -0.2776  0.4332
    4MOL   C569 2435   3.455   5.246   1.837  0.1396  0.3950  0.1965
    4MOL   C570 2436   3.978   4.391   2.307  0.0778  0.1624  0.5655
    4MOL   H571 2437   3.843   4.417   2.447  1.5053 -0.3655 -0.3993
    4MOL   H572 2438   3.702   4.634   2.484  0.1661  0.7264  0.4181
    4MOL   H573 2439   3.641   4.675   2.329 -0.2040  2.1495 -0.0788
    4MOL   H574 2440   3.875   4.817   2.462 -0.1999 -1.3511 -0.0809
    4MOL   H575 2441   3.714   4.869   2.470 -0.1355 -0.6937 -0.4601
    4MOL   H576 2442   3.849   4.981   2.290 -0.1315 -0.6204 -0.1296
    4MOL   H577 2443   3.859   4.832   2.205  0.3643 -3.2263  2.8172
    4MOL   H578 2444   3.624   4.829   2.158 -0.1572 -0.7068 -0.1977
    4MOL   H579 2445   3.591   4.964   2.271 -1.4953 -2.8805  0.3712
    4MOL   H580 2446   3.728   5.108   2.138 -1.1696 -1.4333  2.7947
    4MOL   H581 2447   3.764   4.989   2.021  0.4826  0.8332  0.2793
    4MOL   H582 2448   3.502   5.134   2.083 -0.9750  0.8214 -0.7903
    4MOL   H583 2449   3.489   4.991   1.977  0.1565  0.3622 -0.7193
    4MOL   H584 2450   3.644   5.234   1.917  0.3020 -0.7334  0.8296
    4MOL   H585 2451   3.610   5.095   1.804  2.1004  1.3369  0.1172
    4MOL   H586 2452   3.459   5.343   1.885  0.7135  0.3819  0.1812
    4MOL   H587 2453   3.365   5.195   1.871 -0.1823  0.8484  0.0210
    4MOL   H588 2454   3.444   5.243   1.728  1.1438 -1.8181  0.1259
    4MOL   H589 2455   3.969   4.283   2.305  0.5489  0.1111  0.9728
    4MOL   H590 2456   4.006   4.419   2.206  0.1425 -0.2462  0.4724
    4MOL   C591 2457   4.099   4.423   2.399 -0.1788 -0.0452 -0.6239
    4MOL   O592 2458   4.221   4.376   2.332 -0.2096  0.1736  0.0464
    4MOL   C593 2459   4.297   4.487   2.277 -0.2670 -0.1871 -0.3338
    4MOL   C594 2460   4.415   4.429   2.206  0.2272 -0.1771  0.2593
    4MOL   C595 2461   4.503   4.545   2.151 -0.2865 -0.2464  0.3179
    4MOL   C596 2462   4.618   4.475   2.068  0.0996  0.2548  0.4131
    4MOL   C597 2463   4.706   4.578   1.981  0.2548 -0.1552  0.3363
    4MOL   C598 2464   4.798   4.666   2.065  0.0513  0.1665  0.1370
    4MOL   C599 2465   4.900   4.758   1.992 -0.1794  0.1967  0.4348
    4MOL   C600 2466   5.002   4.814   2.093  0.8029 -0.3274 -0.1956
    4MOL   C601 2467   4.088   4.352   2.540 -0.0469 -0.0417  0.2106
    4MOL   H602 2468   4.103   4.532   2.413 -1.6154 -0.0821  0.2198
    4MOL   H603 2469   4.334   4.554   2.355 -0.0453 -0.8697  0.1549
    4MOL   H604 2470   4.236   4.544   2.209  0.2785 -0.6819 -1.2519
    4MOL   H605 2471   4.392   4.365   2.121 -2.4277  0.9166  0.1001
    4MOL   H606 2472   4.475   4.364   2.270 -1.3879  0.3236  2.3220
    4MOL   H607 2473   4.442   4.615   2.093  2.0162  2.2693  0.8201
    4MOL   H608 2474   4.555   4.603   2.227 -1.4560  0.2983  0.7169
    4MOL   H609 2475   4.692   4.427   2.132  1.3878  0.3494 -0.9601
    4MOL   H610 2476   4.576   4.411   1.991 -0.0869  0.7810  0.0749
    4MOL   H611 2477   4.764   4.509   1.919  0.8620 -1.1023  1.9234
    4MOL   H612 2478   4.648   4.645   1.917  0.9301 -0.3291 -0.4673
    4MOL   H613 2479   4.847   4.607   2.142 -0.5386 -1.1649 -0.4955
    4MOL   H614 2480   4.747   4.742   2.125 -1.1025 -0.4236 -0.0878
    4MOL   H615 2481   4.955   4.717   1.908  0.8240  2.6453 -0.1526
    4MOL   H616 2482   4.860   4.838   1.931 -1.0278  1.5935  2.7407
    4MOL   H617 2483   5.060   4.731   2.134  0.1515  0.0529  1.5164
    4MOL   H618 2484   4.961   4.860   2.183  2.3266 -0.1870  0.4410
    4MOL   H619 2485   5.066   4.893   2.053 -0.8778  2.3909  2.2878
    4MOL   H620 2486   3.994   4.379   2.588 -0.0969 -1.6130  1.0047
    4MOL   H621 2487   4.088   4.243   2.531 -1.2998 -0.0708  0.5079
    4MOL   H622 2488   4.164   4.384   2.611 -0.2302 -1.9319  1.2701
    5MOL     C1 2489   5.205   0.663   2.724 -0.2331  0.1251  0.1925
    5MOL     O2 2490   5.152   0.728   2.615  0.7214 -0.3722  0.1832
    5MOL     C3 2491   5.006   0.742   2.620  0.5594  0.3273  0.0064
    5MOL     C4 2492   4.912   0.615   2.597  0.2231 -0.0850 -0.6222
    5MOL     C5 2493   4.977   0.506   2.506  0.3176 -0.1632  0.4170
    5MOL     C6 2494   4.891   0.405   2.434  0.8302 -0.2696  0.0542
    5MOL     C7 2495   4.957   0.274   2.401  0.3972 -0.1674  0.1576
    5MOL     C8 2496   4.872   0.179   2.324  0.0722 -0.1093  0.2236
    5MOL     C9 2497   4.937   0.041   2.305 -0.1013  0.6472 -0.2857
    5MOL    C10 2498   4.841   7.731   2.225  0.5021 -0.3087  0.4417
    5MOL    C11 2499   5.353   0.651   2.708  0.6530  1.0560  0.0673
    5MOL    H12 2500   5.201   0.714   2.820 -0.4989 -0.7644  0.6573
    5MOL    H13 2501   4.998   0.803   2.530  2.5431  0.4642 -0.1018
    5MOL    H14 2502   4.982   0.806   2.704  0.5057 -1.3153  1.2578
    5MOL    H15 2503   4.823   0.653   2.547 -1.5870 -3.4964 -0.1258
    5MOL    H16 2504   4.879   0.574   2.693  0.7195  1.1906  0.1134
    5MOL    H17 2505   5.043   0.551   2.432 -1.2472  0.0722 -0.8707
    5MOL    H18 2506   5.047   0.455   2.572 -0.4072  1.0063  2.1341
    5MOL    H19 2507   4.806   0.378   2.498 -1.0092  1.3073 -1.6707
    5MOL    H20 2508   4.837   0.449   2.351  1.5907 -0.5254 -0.5764
    5MOL    H21 2509   5.045   0.303   2.343  0.0895 -0.7342 -0.5914
    5MOL    H22 2510   4.987   0.226   2.495  1.2764 -1.4445 -0.7664
    5MOL    H23 2511   4.855   0.241   2.236  0.6613  1.4955  1.2192
    5MOL    H24 2512   4.775   0.174   2.374  0.0717 -2.4557  0.0613
    5MOL    H25 2513   5.036   0.042   2.259 -0.2437  1.7291 -0.5943
    5MOL    H26 2514   4.962   7.765   2.399 -0.8344  1.7617  0.5323
    5MOL    H27 2515   4.817   7.770   2.126 -1.3113 -1.5195  0.3949
    5MOL    H28 2516   4.756   7.724   2.293  1.2588  1.9587  1.7008
    5MOL    H29 2517   4.883   7.632   2.209  3.0144  0.9749 -1.3054
    5MOL    H30 2518   5.413   0.741   2.719  0.7878  0.9922 -0.1318
    5MOL    H31 2519   5.394   0.600   2.795 -0.0041 -0.7177 -0.6395
    5MOL    H32 2520   5.157   0.567   2.744  0.3203 -0.5387 -1.5804
    5MOL    C33 2521   5.404   0.583   2.578 -0.2571  0.2055  0.4943
    5MOL    O34 2522   5.418   0.442   2.594 -0.2601 -0.1011  0.2045
    5MOL    C35 2523   5.305   0.357   2.606  0.9262  0.1400  0.1963
    5MOL    C36 2524   5.340   0.207   2.622 -0.0574  0.3831 -0.2374
    5MOL    C37 2525   5.372   0.144   2.479  0.1196  0.7214 -0.2086
    5MOL    C38 2526   5.448   0.008   2.491  0.0277 -0.0895  0.4565
    5MOL    C39 2527   5.357   7.662   2.500  0.1525 -0.1203 -1.4610
    5MOL    C40 2528   5.423   7.531   2.463 -0.3484  0.1522 -0.5067
    5MOL    C41 2529   5.543   7.484   2.555  0.3697  0.0286 -0.6066
    5MOL    C42 2530   5.502   7.434   2.692  0.8078 -0.3835  0.5334
    5MOL    C43 2531   5.535   0.642   2.522 -0.2261 -0.1920  0.0323
    5MOL    H44 2532   5.333   0.589   2.495 -1.6018 -2.0326  1.4419
    5MOL    H45 2533   5.247   0.361   2.514  0.3235 -4.1626  0.2728
    5MOL    H46 2534   5.235   0.395   2.680  1.8684  0.6469  0.8518
    5MOL    H47 2535   5.247   0.163   2.659 -2.1079  1.1237 -4.2977
    5MOL    H48 2536   5.416   0.187   2.698 -0.4138 -0.0656  0.0101
    5MOL    H49 2537   5.285   0.131   2.413  0.7951  3.3291 -1.6688
    5MOL    H50 2538   5.437   0.219   2.435  1.1839 -1.1567 -1.9302
    5MOL    H51 2539   5.494   0.001   2.392  0.2778  1.9478  0.4175
    5MOL    H52 2540   5.526   0.006   2.567  0.9203 -1.3795 -0.4612
    5MOL    H53 2541   5.311   7.660   2.599 -1.5806  1.2714 -2.2128
    5MOL    H54 2542   5.270   7.678   2.436  0.3931  0.1162 -1.7257
    5MOL    H55 2543   5.458   7.551   2.361 -0.7482 -1.7187 -1.0334
    5MOL    H56 2544   5.343   7.458   2.454 -0.0009  0.0686 -3.6707
    5MOL    H57 2545   5.603   7.404   2.510 -0.1303  0.0324 -1.2891
    5MOL    H58 2546   5.616   7.563   2.572 -1.4799  1.4664  0.9073
    5MOL    H59 2547   5.579   7.425   2.768 -0.2474 -0.2498  1.6327
    5MOL    H60 2548   5.458   7.335   2.675  0.2617  0.2370 -1.9415
    5MOL    H61 2549   5.426   7.503   2.729 -1.3016 -1.2268 -2.0212
    5MOL    H62 2550   5.523   0.750   2.507  1.1735  0.2380  1.8530
    5MOL    H63 2551   5.611   0.634   2.600  0.6229 -1.5315 -0.9026
    5MOL    C64 2552   5.584   0.573   2.391 -0.1248  0.6862  0.0752
    5MOL    O65 2553   5.722   0.608   2.367  0.0982  0.3315  0.2943
    5MOL    C66 2554   5.821   0.504   2.346 -0.0957 -0.5371 -0.1440
    5MOL    C67 2555   5.959   0.567   2.338 -0.4801 -0.5089  0.5566
    5MOL    C68 2556   6.001   0.651   2.461 -0.3862  0.8912 -0.4277
    5MOL    C69 2557   6.153   0.688   2.465 -0.6588 -0.3401  0.3165
    5MOL    C70 2558   6.179   0.819   2.386  0.0257 -0.8358  0.3583
    5MOL    C71 2559   6.321   0.866   2.410  0.1882  0.3185  0.7637
    5MOL    C72 2560   6.382   0.970   2.315  0.3300  0.2696  0.4387
    5MOL    C73 2561   6.537   0.994   2.351 -0.8959 -0.1572 -0.4734
    5MOL    C74 2562   5.503   0.610   2.266 -0.3976 -1.1063  0.4509
    5MOL    H75 2563   5.574   0.467   2.414 -0.7526  0.8238  0.4375
    5MOL    H76 2564   5.806   0.463   2.246  2.1157  1.5318 -1.3553
    5MOL    H77 2565   5.812   0.427   2.423  0.8259 -0.6562 -0.1500
    5MOL    H78 2566   5.964   0.626   2.247 -0.3741  1.4083  1.7521
    5MOL    H79 2567   6.024   0.480   2.329  1.5998  1.1515 -1.0537
    5MOL    H80 2568   5.938   0.739   2.474 -3.4918 -1.5286  1.5408
    5MOL    H81 2569   5.983   0.599   2.555  2.1668 -0.6361 -0.7382
    5MOL    H82 2570   6.167   0.712   2.571  0.5203  0.5386 -0.0312
    5MOL    H83 2571   6.219   0.604   2.445  1.5669  1.8360 -1.8132
    5MOL    H84 2572   6.158   0.795   2.282  1.6065  3.3611 -1.0112
    5MOL    H85 2573   6.111   0.898   2.416  1.3182  0.6060 -0.4618
    5MOL    H86 2574   6.382   0.775   2.414 -1.9500 -1.0756  3.9408
    5MOL    H87 2575   6.318   0.899   2.514  1.7812  0.6999  0.6982
    5MOL    H88 2576   6.378   0.940   2.210  0.2420  1.4685  0.1001
    5MOL    H89 2577   6.323   1.061   2.306 -1.9385 -1.3415 -1.5525
    5MOL    H90 2578   6.537   1.034   2.453 -2.0013 -1.3472 -0.0011
    5MOL    H91 2579   6.574   1.081   2.296 -1.0151  0.1932 -0.0084
    5MOL    H92 2580   6.602   0.907   2.344  0.5045  0.6059  1.9770
    5MOL    H93 2581   5.397   0.602   2.291 -0.1187 -0.2152  1.9559
    5MOL    H94 2582   5.522   0.715   2.244  0.7021 -0.6453  3.3786
    5MOL    C95 2583   5.524   0.517   2.145  0.0571  0.4344  0.1413
    5MOL    O96 2584   5.464   0.575   2.034 -0.4678  0.1285 -0.3290
    5MOL    C97 2585   5.526   0.679   1.971  0.1629 -0.7045  0.2589
    5MOL    C98 2586   5.444   0.721   1.850 -1.1460 -0.3670  0.7793
    5MOL    C99 2587   5.479   0.630   1.729 -0.4506  0.6793 -1.1882
    5MOL   C100 2588   5.385   0.630   1.608 -0.1457  0.2961 -0.1299
    5MOL   C101 2589   5.259   0.545   1.635  0.6132 -0.3989 -0.1611
    5MOL   C102 2590   5.273   0.398   1.598 -0.1565  0.0824  0.5636
    5MOL   C103 2591   5.136   0.327   1.618  0.0672  0.0888 -0.2669
    5MOL   C104 2592   5.129   0.173   1.606  0.3984 -0.0839 -0.5532
    5MOL   C105 2593   5.480   0.374   2.164 -0.0416  0.2455 -0.0348
    5MOL   H106 2594   5.631   0.516   2.125  0.0118  0.6073 -0.1047
    5MOL   H107 2595   5.632   0.662   1.950 -0.0470 -1.0432 -0.5257
    5MOL   H108 2596   5.540   0.763   2.040 -1.8669  0.1658 -0.3517
    5MOL   H109 2597   5.471   0.822   1.817 -3.1986 -0.2934 -0.8315
    5MOL   H110 2598   5.337   0.725   1.872 -1.2721 -1.9225  0.4645
    5MOL   H111 2599   5.583   0.644   1.700 -0.0269 -0.0633 -0.0253
    5MOL   H112 2600   5.483   0.528   1.768  3.7584  0.9694 -0.6371
    5MOL   H113 2601   5.361   0.731   1.574 -1.5862  0.1937  0.5449
    5MOL   H114 2602   5.429   0.580   1.521 -0.6930  1.4724 -1.1081
    5MOL   H115 2603   5.225   0.547   1.738  0.4917 -2.7311 -0.1128
    5MOL   H116 2604   5.178   0.592   1.579  0.7639  0.3861  0.2806
    5MOL   H117 2605   5.344   0.346   1.663  0.3367 -0.2193 -0.2124
    5MOL   H118 2606   5.310   0.376   1.498  0.0742  1.3557  0.3704
    5MOL   H119 2607   5.104   0.358   1.717  3.5283  1.2749  0.5723
    5MOL   H120 2608   5.071   0.363   1.539 -1.5751  0.3077  1.1505
    5MOL   H121 2609   5.229   0.136   1.627  1.4300  0.6323 -3.9672
    5MOL   H122 2610   5.104   0.146   1.503  1.6964 -2.5472 -0.2562
    5MOL   H123 2611   5.056   0.126   1.672  1.1147 -2.0956 -1.1752
    5MOL   H124 2612   5.524   0.331   2.254  0.5669 -1.1527 -0.9989
    5MOL   H125 2613   5.372   0.368   2.174  0.1243 -0.0654  1.7458
    5MOL   C126 2614   5.522   0.281   2.044  0.3633  0.5932 -0.1760
    5MOL   O127 2615   5.431   0.174   2.032  0.4258 -0.6542  0.6817
    5MOL   C128 2616   5.306   0.203   1.979 -0.0739 -0.1992 -0.6264
    5MOL   C129 2617   5.235   0.068   1.945  0.3224 -0.2382  0.2323
    5MOL   C130 2618   5.256   7.740   2.064  0.1521  0.0317 -0.5718
    5MOL   C131 2619   5.171   7.613   2.066  0.5308 -0.1634  0.0954
    5MOL   C132 2620   5.251   7.497   2.133  0.9235  0.1501  0.0551
    5MOL   C133 2621   5.176   7.366   2.156  0.1103 -0.1297 -0.4812
    5MOL   C134 2622   5.226   7.262   2.253 -0.4345  0.1453 -0.6486
    5MOL   C135 2623   5.370   7.211   2.215  0.0170  0.1392 -0.0612
    5MOL   C136 2624   5.662   0.223   2.042 -0.1564 -0.1093 -0.5998
    5MOL   H137 2625   5.520   0.352   1.961  0.0761 -0.5158 -1.1312
    5MOL   H138 2626   5.304   0.274   1.897 -3.1352  1.3780  0.7335
    5MOL   H139 2627   5.238   0.246   2.054 -1.0519 -2.2606 -0.3018
    5MOL   H140 2628   5.278   0.026   1.854  1.3851  1.3304 -0.0028
    5MOL   H141 2629   5.127   0.079   1.937  0.6406  2.5035 -0.7183
    5MOL   H142 2630   5.358   7.701   2.059  0.2450  0.1342  0.3073
    5MOL   H143 2631   5.255   0.016   2.161  0.6614 -0.8247 -0.1090
    5MOL   H144 2632   5.077   7.648   2.110 -1.9586 -1.5372 -3.8346
    5MOL   H145 2633   5.154   7.588   1.961 -0.0963 -2.0375  0.6246
    5MOL   H146 2634   5.340   7.484   2.071  1.1719 -0.7608  0.6037
    5MOL   H147 2635   5.283   7.534   2.231  0.0744 -2.1389  1.2280
    5MOL   H148 2636   5.161   7.312   2.062 -1.5330  0.1598 -0.3991
    5MOL   H149 2637   5.074   7.388   2.186  0.7655  0.6700  1.2495
    5MOL   H150 2638   5.212   7.310   2.350 -1.0706  0.6726 -1.0009
    5MOL   H151 2639   5.163   7.174   2.257  0.0052 -0.1194  0.7607
    5MOL   H152 2640   5.413   7.157   2.299 -1.4471 -1.3020 -0.2099
    5MOL   H153 2641   5.436   7.292   2.183  0.6355  0.0413  0.9425
    5MOL   H154 2642   5.361   7.129   2.143  0.3725  0.9602 -1.0552
    5MOL   H155 2643   5.727   0.279   2.110 -0.8135  1.2824 -1.0969
    5MOL   H156 2644   5.660   0.130   2.099  0.9635  1.1129  1.5149
    5MOL   C157 2645   5.736   0.220   1.905 -0.0425  0.9471 -0.3632
    5MOL   O158 2646   5.873   0.164   1.898 -0.0633 -0.1770 -0.0545
    5MOL   C159 2647   5.867   0.018   1.894  0.1028  0.4179 -0.2103
    5MOL   C160 2648   6.013   7.759   1.930  0.1702  0.3860 -0.3440
    5MOL   C161 2649   6.126   0.032   1.831 -0.5241  0.4273  0.6514
    5MOL   C162 2650   6.261   0.001   1.893  0.2719  0.3309  0.4493
    5MOL   C163 2651   6.370   0.069   1.815 -0.4960 -0.5913 -0.5415
    5MOL   C164 2652   6.499   7.758   1.797 -0.0767 -0.5240  0.3509
    5MOL   C165 2653   6.604   0.051   1.712 -0.0542 -0.7259  0.0466
    5MOL   C166 2654   6.743   7.756   1.723 -0.2136  0.4956 -0.1341
    5MOL   C167 2655   5.753   0.364   1.846  0.5554  0.1296 -0.1504
    5MOL   H168 2656   5.682   0.153   1.838  0.3236  0.4934 -0.2052
    5MOL   H169 2657   5.824   7.746   1.805 -2.8283 -0.9711  1.8458
    5MOL   H170 2658   5.796   7.772   1.974  0.4619  2.1550  0.5634
    5MOL   H171 2659   6.014   7.650   1.942  0.9460  0.3255 -0.9471
    5MOL   H172 2660   6.040   0.033   2.024 -0.4697  1.1340 -0.5388
    5MOL   H173 2661   6.111   7.761   1.733  0.5910  2.3878 -0.4667
    5MOL   H174 2662   6.121   0.141   1.825  0.1238  0.3543 -2.4296
    5MOL   H175 2663   6.264   0.019   2.001  3.2892 -0.1352  0.4741
    5MOL   H176 2664   6.273   7.667   1.892 -1.9595  0.0633 -0.2835
    5MOL   H177 2665   6.318   0.097   1.723  0.1559  0.1404 -0.6968
    5MOL   H178 2666   6.395   0.162   1.867  1.1372 -2.0999  1.4628
    5MOL   H179 2667   6.477   7.676   1.729 -0.2734 -0.2260  0.0519
    5MOL   H180 2668   6.542   7.729   1.893  1.4308  0.4996  0.0088
    5MOL   H181 2669   6.566   0.057   1.610 -0.2484  1.4290  0.2090
    5MOL   H182 2670   6.617   0.154   1.744  1.8509 -1.5388  1.9547
    5MOL   H183 2671   6.811   0.015   1.644  1.5506 -1.7684  0.3577
    5MOL   H184 2672   6.728   7.650   1.701  1.3788  0.3855 -0.7892
    5MOL   H185 2673   6.789   7.754   1.822 -2.2181  1.2361  0.8203
    5MOL   H186 2674   5.656   0.406   1.821  0.7141  1.3159  1.1186
    5MOL   H187 2675   5.805   0.431   1.915 -1.0433  2.1200 -0.8079
    5MOL   C188 2676   5.833   0.379   1.716  0.0359  0.5175  0.4264
    5MOL   O189 2677   5.841   0.522   1.691 -0.4045 -0.3658  0.2177
    5MOL   C190 2678   5.969   0.591   1.673 -0.2006  0.5914 -0.2885
    5MOL   C191 2679   5.946   0.742   1.636 -0.2041 -0.4761  0.1144
    5MOL   C192 2680   6.074   0.819   1.602 -0.2549 -0.3650 -0.1313
    5MOL   C193 2681   6.118   0.802   1.454 -0.1061 -0.5244 -0.4502
    5MOL   C194 2682   6.030   0.883   1.358  0.2850  0.9363  0.2282
    5MOL   C195 2683   6.102   0.941   1.236  0.1208 -1.0735 -0.3550
    5MOL   C196 2684   6.014   1.017   1.132  0.4277  0.1967  0.7068
    5MOL   C197 2685   6.102   1.093   1.034 -0.2728  0.0005 -0.2823
    5MOL   C198 2686   5.747   0.330   1.598 -0.8011  0.5028 -0.0652
    5MOL   H199 2687   5.929   0.331   1.734 -0.6175 -1.0940 -0.3138
    5MOL   H200 2688   6.027   0.573   1.764 -1.7101  1.3238  0.8307
    5MOL   H201 2689   6.018   0.544   1.588 -2.3685  0.7959 -1.6620
    5MOL   H202 2690   5.886   0.785   1.716  2.2782 -0.2127  1.8833
    5MOL   H203 2691   5.870   0.750   1.558 -0.1573  0.3154  0.1463
    5MOL   H204 2692   6.051   0.924   1.619 -2.9213 -0.9477  0.0400
    5MOL   H205 2693   6.163   0.802   1.663 -0.0300 -0.0568 -0.3680
    5MOL   H206 2694   6.223   0.831   1.443  0.5626 -1.6977  2.2045
    5MOL   H207 2695   6.106   0.696   1.431 -1.0635 -0.3656 -0.7060
    5MOL   H208 2696   5.938   0.836   1.323  1.7895 -0.5351 -1.8488
    5MOL   H209 2697   5.988   0.967   1.414  0.3711 -0.7830  2.9428
    5MOL   H210 2698   6.165   0.865   1.189 -1.8001 -1.7824 -1.8495
    5MOL   H211 2699   6.160   1.025   1.276 -0.5508  0.6242 -2.8309
    5MOL   H212 2700   5.943   0.956   1.076  1.5936  0.0519 -0.6552
    5MOL   H213 2701   5.947   1.083   1.187 -0.7023 -0.0533 -0.3541
    5MOL   H214 2702   6.146   1.014   0.972 -0.2977 -1.3322  1.3696
    5MOL   H215 2703   6.185   1.142   1.084 -0.3610 -2.0358  1.9836
    5MOL   H216 2704   6.050   1.159   0.965 -1.3910  0.6862  1.2093
    5MOL   H217 2705   5.716   0.228   1.621 -1.4787  0.6602 -0.2887
    5MOL   H218 2706   5.657   0.391   1.591 -0.9114  0.3100 -0.3372
    5MOL   C219 2707   5.824   0.321   1.468 -0.4976  0.1172  0.3065
    5MOL   O220 2708   5.736   0.297   1.358 -0.2764 -0.1153 -0.0859
    5MOL   C221 2709   5.656   0.401   1.318  0.6132  0.1997  0.2219
    5MOL   C222 2710   5.617   0.358   1.175  0.7246 -0.2968 -0.3440
    5MOL   C223 2711   5.493   0.428   1.114  0.4636 -0.3507  0.1254
    5MOL   C224 2712   5.462   0.373   0.974  0.1176 -0.1661 -0.0134
    5MOL   C225 2713   5.568   0.414   0.868  0.7304 -0.3574 -0.2329
    5MOL   C226 2714   5.516   0.375   0.729 -0.7369 -0.1260  0.5900
    5MOL   C227 2715   5.584   0.435   0.604 -0.2337 -0.1790 -0.3543
    5MOL   C228 2716   5.717   0.370   0.571  0.0892 -0.0380 -1.3316
    5MOL   C229 2717   5.921   0.203   1.470 -0.9318  0.6365  0.2779
    5MOL   H230 2718   5.879   0.413   1.448 -0.7635  0.2747  0.2868
    5MOL   H231 2719   5.725   0.485   1.314 -0.9478  1.5057 -0.1892
    5MOL   H232 2720   5.571   0.433   1.379 -0.6012  0.1340 -1.3916
    5MOL   H233 2721   5.584   0.254   1.181 -1.3155  0.1433 -2.9535
    5MOL   H234 2722   5.705   0.379   1.113  1.4141  3.1750  1.6890
    5MOL   H235 2723   5.409   0.405   1.180 -0.2654 -1.8502 -1.2893
    5MOL   H236 2724   5.508   0.536   1.115 -1.3147 -0.0893 -0.3342
    5MOL   H237 2725   5.450   0.264   0.982  2.3784 -0.2442  3.2479
    5MOL   H238 2726   5.366   0.417   0.948 -0.3600 -0.5400  1.0939
    5MOL   H239 2727   5.576   0.522   0.883  0.2486 -0.1115 -1.6664
    5MOL   H240 2728   5.662   0.365   0.895  1.2823  1.0316  0.4020
    5MOL   H241 2729   5.411   0.398   0.711 -0.0674  1.6352 -1.3479
    5MOL   H242 2730   5.518   0.266   0.720 -0.1217  0.0691 -2.3524
    5MOL   H243 2731   5.514   0.436   0.521 -2.2253 -1.4788  1.2798
    5MOL   H244 2732   5.611   0.539   0.624  0.2251 -0.1801 -0.9612
    5MOL   H245 2733   5.764   0.413   0.483 -2.0629  1.1848 -1.9251
    5MOL   H246 2734   5.705   0.265   0.544 -0.2650 -0.0832 -1.0077
    5MOL   H247 2735   5.782   0.370   0.659 -1.8524 -0.8645  0.1450
    5MOL   H248 2736   5.962   0.195   1.570  2.1219 -2.6324 -1.1019
    5MOL   H249 2737   5.874   0.106   1.451 -0.3701  0.2480  0.8670
    5MOL   C250 2738   6.045   0.213   1.376 -0.1596  0.1363 -1.1842
    5MOL   O251 2739   6.006   0.146   1.257  0.5105 -0.0222 -0.4068
    5MOL   C252 2740   5.983   0.228   1.140  0.5111  0.5125 -1.3196
    5MOL   C253 2741   5.932   0.154   1.013  0.7246  0.0499 -0.3768
    5MOL   C254 2742   5.967   0.222   0.881  0.6961  0.0437  0.0382
    5MOL   C255 2743   6.114   0.201   0.836 -0.0754 -0.7787  0.5137
    5MOL   C256 2744   6.147   0.282   0.703 -1.3896  0.1021  0.2190
    5MOL   C257 2745   6.268   0.219   0.629  0.2227  0.1365  0.2354
    5MOL   C258 2746   6.334   0.299   0.522  0.5986  0.0977  0.4211
    5MOL   C259 2747   6.458   0.242   0.450 -0.7250  0.3348 -0.2053
    5MOL   C260 2748   6.168   0.145   1.437 -0.0456 -0.2532  0.2783
    5MOL   H261 2749   6.069   0.316   1.353  0.6093  0.0858 -0.6572
    5MOL   H262 2750   6.078   0.277   1.123  1.4015  0.2202  2.4373
    5MOL   H263 2751   5.906   0.302   1.163 -0.3095 -0.5622 -0.5310
    5MOL   H264 2752   5.823   0.154   1.021  0.7737 -1.7247  0.4562
    5MOL   H265 2753   5.959   0.049   1.019 -1.2567 -0.5620 -1.6088
    5MOL   H266 2754   5.902   0.170   0.811 -0.3888  0.2423  0.8879
    5MOL   H267 2755   5.943   0.329   0.879 -4.1160 -0.8976  0.8893
    5MOL   H268 2756   6.184   0.225   0.915  0.2036 -1.0280  0.3416
    5MOL   H269 2757   6.142   0.096   0.824 -0.3920 -0.7082 -0.9692
    5MOL   H270 2758   6.057   0.287   0.643  0.4995  0.3343 -2.7031
    5MOL   H271 2759   6.180   0.385   0.721  1.5072 -0.7203 -0.0287
    5MOL   H272 2760   6.232   0.121   0.598 -0.5042 -0.3686  2.6236
    5MOL   H273 2761   6.349   0.207   0.700  0.9868  0.1357 -0.6219
    5MOL   H274 2762   6.260   0.337   0.451 -2.1981 -0.2285  3.0877
    5MOL   H275 2763   6.354   0.388   0.582 -0.9747  1.5429 -1.1445
    5MOL   H276 2764   6.455   0.140   0.414  0.6652 -0.0649  0.7574
    5MOL   H277 2765   6.533   0.234   0.529 -1.8095 -0.0889  0.7995
    5MOL   H278 2766   6.487   0.305   0.366 -1.1570  1.1186  0.2223
    5MOL   H279 2767   6.200   0.198   1.527  4.2340 -0.5022 -0.9586
    5MOL   H280 2768   6.128   0.055   1.484  0.0212 -1.4634 -1.9034
    5MOL   C281 2769   6.292   0.131   1.345  0.0956 -0.4094 -0.5869
    5MOL   O282 2770   6.315   0.272   1.320  0.7130  0.0268  0.3592
    5MOL   C283 2771   6.395   0.319   1.214  0.4766 -0.2117 -0.0733
    5MOL   C284 2772   6.414   0.467   1.229 -0.5958  0.2135 -0.0461
    5MOL   C285 2773   6.282   0.541   1.232  0.7199 -0.3300  0.0119
    5MOL   C286 2774   6.216   0.551   1.091 -0.0992 -0.3199 -0.3006
    5MOL   C287 2775   6.072   0.593   1.081  0.3194  0.3514  0.1872
    5MOL   C288 2776   6.015   0.635   0.944  0.5507 -0.6022  0.0092
    5MOL   C289 2777   5.867   0.674   0.958 -0.3276 -0.1374  0.1507
    5MOL   C290 2778   5.807   0.717   0.831  0.9505 -0.0444  0.0164
    5MOL   C291 2779   6.267   0.042   1.224 -0.4663  0.1727 -0.3528
    5MOL   H292 2780   6.370   0.091   1.410 -0.1754 -0.3884 -0.2434
    5MOL   H293 2781   6.354   0.298   1.115  1.3338  0.9564 -0.6969
    5MOL   H294 2782   6.492   0.270   1.223  1.0090  0.6252 -1.1078
    5MOL   H295 2783   6.477   0.503   1.148  2.8796 -2.5289  1.3128
    5MOL   H296 2784   6.462   0.477   1.326  0.6133  1.3766 -0.7499
    5MOL   H297 2785   6.215   0.502   1.308 -1.4597 -0.1472 -1.7807
    5MOL   H298 2786   6.318   0.640   1.261  2.2146 -1.0368  0.6402
    5MOL   H299 2787   6.274   0.609   1.019  1.5812 -1.5450  0.0182
    5MOL   H300 2788   6.218   0.450   1.050  1.1823 -0.2873 -0.3498
    5MOL   H301 2789   6.012   0.511   1.121  0.8131 -0.2976 -0.3979
    5MOL   H302 2790   6.047   0.674   1.150 -2.0728  0.9018 -1.2722
    5MOL   H303 2791   6.033   0.555   0.872  0.9074 -2.0872  1.7042
    5MOL   H304 2792   6.059   0.732   0.924 -2.0471  0.6477  0.1335
    5MOL   H305 2793   5.798   0.598   0.994 -0.4726  0.0957  0.3718
    5MOL   H306 2794   5.853   0.761   1.023  0.2163 -0.2640  0.4462
    5MOL   H307 2795   5.884   0.737   0.757  1.3540  0.4847  0.5802
    5MOL   H308 2796   5.744   0.804   0.848  0.9768  0.1627 -0.9802
    5MOL   H309 2797   5.746   0.636   0.789  1.3588 -0.6133  0.4988
    5MOL   H310 2798   6.202   0.078   1.145 -1.1290  1.4022  0.7228
    5MOL   H311 2799   6.366   0.032   1.179 -0.4611 -0.7554 -0.1462
    5MOL   C312 2800   6.221   7.676   1.259 -0.3134 -0.5483 -0.4451
    5MOL   O313 2801   6.332   7.614   1.326 -0.1004  0.1750 -0.4296
    5MOL   C314 2802   6.321   7.589   1.460  0.1313  0.1404  0.2784
    5MOL   C315 2803   6.425   7.486   1.505 -0.1973 -0.3115  0.4822
    5MOL   C316 2804   6.410   7.350   1.429  0.5652 -0.3845  0.4553
    5MOL   C317 2805   6.509   7.249   1.487 -0.3691  0.0811 -0.1111
    5MOL   C318 2806   6.490   7.111   1.416 -0.0497  0.6512 -0.8244
    5MOL   C319 2807   6.359   7.044   1.443  0.1521  0.6574  0.5596
    5MOL   C320 2808   6.365   6.956   1.567  0.1925 -0.0940 -0.0144
    5MOL   C321 2809   6.237   6.880   1.588 -0.1001 -0.6035 -0.6152
    5MOL   C322 2810   6.177   7.595   1.135 -0.1482  0.0345 -0.6870
    5MOL   H323 2811   6.133   7.682   1.324  1.8054 -0.1508  2.5106
    5MOL   H324 2812   6.222   7.556   1.492 -1.3303  1.1231 -3.0111
    5MOL   H325 2813   6.326   7.675   1.526 -2.1243 -1.2471  2.3682
    5MOL   H326 2814   6.431   7.481   1.614  1.2438  0.6135  0.4587
    5MOL   H327 2815   6.516   7.541   1.481 -0.7346  0.4530  0.1835
    5MOL   H328 2816   6.307   7.316   1.443  0.1082  0.6445 -0.3324
    5MOL   H329 2817   6.421   7.362   1.321  0.4861 -0.5502  0.4275
    5MOL   H330 2818   6.612   7.283   1.475 -0.2993 -0.0606  0.0766
    5MOL   H331 2819   6.498   7.236   1.595  1.1613  0.0251  0.0520
    5MOL   H332 2820   6.491   7.127   1.308 -0.0347  0.9741 -0.7765
    5MOL   H333 2821   6.577   7.051   1.444 -0.2538  0.0226 -1.5035
    5MOL   H334 2822   6.327   6.988   1.355 -0.0668 -0.1669  1.1597
    5MOL   H335 2823   6.276   7.114   1.451 -1.5873 -1.1597 -0.7867
    5MOL   H336 2824   6.441   6.879   1.556  1.8268  1.4757 -0.1228
    5MOL   H337 2825   6.404   7.005   1.656  0.1156  1.1253 -0.6358
    5MOL   H338 2826   6.195   6.827   1.502  0.7932 -0.6680 -1.0223
    5MOL   H339 2827   6.159   6.946   1.625  0.3398  0.2953 -1.2691
    5MOL   H340 2828   6.258   6.799   1.659  0.7300  1.0731  1.0956
    5MOL   H341 2829   6.109   7.661   1.080 -0.5177 -1.6304 -2.2482
    5MOL   H342 2830   6.267   7.580   1.075  1.6063  0.5475  1.7277
    5MOL   C343 2831   6.106   7.461   1.169  0.5542 -0.1559  0.4942
    5MOL   O344 2832   6.106   7.371   1.054 -0.0774  0.2043 -0.9769
    5MOL   C345 2833   6.235   7.308   1.019  0.6713 -0.7123  1.0552
    5MOL   C346 2834   6.221   7.165   0.949  0.1968 -0.2667  0.2419
    5MOL   C347 2835   6.350   7.083   0.937  0.0793  0.1913  0.1054
    5MOL   C348 2836   6.329   6.976   0.826 -0.4430 -0.0716  0.1044
    5MOL   C349 2837   6.454   6.891   0.797  0.2534  0.2202  0.2287
    5MOL   C350 2838   6.435   6.788   0.687 -0.4266  1.1593 -0.0391
    5MOL   C351 2839   6.574   6.740   0.639 -0.3444 -0.0124  0.1509
    5MOL   C352 2840   6.555   6.616   0.556  0.0014  0.2982 -0.3066
    5MOL   C353 2841   5.962   7.490   1.215 -0.1078 -0.2322  0.3864
    5MOL   H354 2842   6.164   7.415   1.248 -0.9288 -0.5103  1.4094
    5MOL   H355 2843   6.291   7.291   1.111 -0.3095 -1.0008  1.6071
    5MOL   H356 2844   6.300   7.375   0.962 -0.9811  1.2730  1.4453
    5MOL   H357 2845   6.169   7.175   0.853  0.3571 -2.3465 -0.0882
    5MOL   H358 2846   6.141   7.114   1.003 -0.4184  2.1557  1.6873
    5MOL   H359 2847   6.428   7.148   0.898  0.4421 -0.4062 -0.1835
    5MOL   H360 2848   6.378   7.040   1.033  0.0522  3.6024  1.6931
    5MOL   H361 2849   6.254   6.905   0.861  1.1061 -2.2732 -0.8894
    5MOL   H362 2850   6.294   7.014   0.731 -0.4555  1.2078  0.6069
    5MOL   H363 2851   6.527   6.959   0.752 -0.5684  2.0126  1.5415
    5MOL   H364 2852   6.502   6.857   0.889  0.2873  1.1919  0.5795
    5MOL   H365 2853   6.377   6.818   0.600 -1.8574  1.0298  0.8521
    5MOL   H366 2854   6.385   6.699   0.724  1.1660  0.4199  0.3536
    5MOL   H367 2855   6.616   6.813   0.570 -0.8137 -0.2736 -0.4076
    5MOL   H368 2856   6.651   6.729   0.715  1.1769  0.7264 -1.2657
    5MOL   H369 2857   6.529   6.651   0.456  1.2848  1.4523 -0.2481
    5MOL   H370 2858   6.478   6.554   0.603  0.4365  0.3200  0.4427
    5MOL   H371 2859   6.643   6.555   0.536 -0.7538 -1.1393  0.6678
    5MOL   H372 2860   5.948   7.592   1.251  1.1412  0.0068  0.2091
    5MOL   H373 2861   5.889   7.478   1.135  0.9606  0.1669 -0.6518
    5MOL   C374 2862   5.912   7.392   1.319  0.2971  0.0207  0.1976
    5MOL   O375 2863   5.990   7.408   1.436  0.1471 -0.1578 -0.1168
    5MOL   C376 2864   5.951   7.510   1.529 -1.1297  0.3796  0.0401
    5MOL   C377 2865   5.972   7.468   1.675  0.1043  0.2070  0.1712
    5MOL   C378 2866   6.113   7.434   1.726 -0.2336  0.3033 -0.3407
    5MOL   C379 2867   6.122   7.383   1.867 -0.4702  0.0183 -0.1881
    5MOL   C380 2868   6.265   7.353   1.908 -1.0925 -0.2419 -0.1431
    5MOL   C381 2869   6.274   7.231   1.991  0.0383  0.4648  0.1172
    5MOL   C382 2870   6.253   7.102   1.906  0.1327  0.2300 -0.0327
    5MOL   C383 2871   6.185   6.982   1.966  0.3957  0.1920 -0.1233
    5MOL   C384 2872   5.917   7.245   1.272  0.0045 -0.1131 -0.6186
    5MOL   H385 2873   5.806   7.404   1.339 -0.4811 -2.2988 -2.1738
    5MOL   H386 2874   5.855   7.555   1.505 -1.3882  1.0766  2.2488
    5MOL   H387 2875   6.019   7.595   1.517 -0.5856 -0.3012 -1.8765
    5MOL   H388 2876   5.911   7.381   1.699 -0.4307  0.7344  0.7399
    5MOL   H389 2877   5.938   7.548   1.740  1.4078  1.0366 -0.1474
    5MOL   H390 2878   6.153   7.356   1.661  0.4881  0.3814  0.0081
    5MOL   H391 2879   6.186   7.514   1.713 -0.7569  0.6414 -1.2681
    5MOL   H392 2880   6.077   7.455   1.935 -1.5186 -0.1777 -0.6570
    5MOL   H393 2881   6.075   7.285   1.872 -0.7765  0.0480 -1.9926
    5MOL   H394 2882   6.326   7.333   1.821 -0.4288 -1.5659  0.6074
    5MOL   H395 2883   6.319   7.433   1.960 -1.2409  0.1362 -0.5660
    5MOL   H396 2884   6.205   7.224   2.075  0.2022  3.0731  0.5014
    5MOL   H397 2885   6.371   7.223   2.039 -0.3833  1.6222  1.1953
    5MOL   H398 2886   6.216   7.127   1.807  0.8576  2.2910  0.2021
    5MOL   H399 2887   6.352   7.065   1.879 -0.1406 -0.1350 -0.5419
    5MOL   H400 2888   6.165   6.897   1.900 -0.5984  0.4555 -0.1686
    5MOL   H401 2889   6.082   6.998   1.999  0.9403 -0.6264  2.0944
    5MOL   H402 2890   6.237   6.950   2.056 -0.2860  0.0105  0.2129
    5MOL   H403 2891   5.841   7.229   1.195 -1.1903 -0.7087  0.6519
    5MOL   H404 2892   6.014   7.228   1.225 -0.3751  1.0531 -1.8635
    5MOL   C405 2893   5.880   7.142   1.378  0.1722 -0.3443 -0.2069
    5MOL   O406 2894   5.883   7.018   1.303  0.5660  0.3197 -0.4779
    5MOL   C407 2895   6.013   6.953   1.302 -0.0137  0.9525  0.4425
    5MOL   C408 2896   6.009   6.844   1.198 -0.5234  0.8673  0.4335
    5MOL   C409 2897   6.142   6.771   1.184 -0.7648 -0.3080  0.3771
    5MOL   C410 2898   6.147   6.672   1.069 -0.0807  0.0866 -0.7458
    5MOL   C411 2899   6.269   6.581   1.091  0.3874  0.8673  0.0967
    5MOL   C412 2900   6.395   6.649   1.136  0.1623 -0.6486  0.2172
    5MOL   C413 2901   6.518   6.562   1.147 -0.1970  1.5762  0.0150
    5MOL   C414 2902   6.584   6.524   1.013  0.6069 -0.3801  0.2365
    5MOL   C415 2903   5.739   7.153   1.438  0.9952  0.0200 -0.3900
    5MOL   H416 2904   5.953   7.155   1.458  1.6201  0.5561 -1.6427
    5MOL   H417 2905   6.034   6.924   1.405  1.1420  0.3298  0.0418
    5MOL   H418 2906   6.090   7.029   1.289  0.3638  0.1447 -2.3667
    5MOL   H419 2907   5.982   6.891   1.104  0.7409 -1.7750 -1.3144
    5MOL   H420 2908   5.927   6.775   1.219  0.2796 -0.6197 -1.2100
    5MOL   H421 2909   6.224   6.840   1.163 -0.6797  0.0093  1.6978
    5MOL   H422 2910   6.157   6.711   1.273 -1.7388  1.6187  1.9014
    5MOL   H423 2911   6.053   6.616   1.076  0.5840 -1.0624 -0.7872
    5MOL   H424 2912   6.138   6.728   0.976  1.5443  1.6821  0.0260
    5MOL   H425 2913   6.233   6.494   1.145 -1.0680  0.0854 -2.0553
    5MOL   H426 2914   6.293   6.544   0.991  0.5492  0.8204  0.1526
    5MOL   H427 2915   6.379   6.688   1.236 -0.7306  0.4270 -0.3378
    5MOL   H428 2916   6.421   6.735   1.073  2.9669 -2.2643 -0.9288
    5MOL   H429 2917   6.595   6.608   1.209 -0.7809  1.3592  0.9081
    5MOL   H430 2918   6.479   6.484   1.211 -0.8238  1.9726  0.1194
    5MOL   H431 2919   6.666   6.454   1.019  2.4306  1.4728 -1.8987
    5MOL   H432 2920   6.624   6.612   0.962 -1.3104 -0.5576 -1.6948
    5MOL   H433 2921   6.506   6.494   0.942  1.0697  0.1190 -0.4895
    5MOL   H434 2922   5.711   7.250   1.480  0.3810 -0.4870  0.3854
    5MOL   H435 2923   5.658   7.136   1.368  1.1231 -0.7617 -0.3535
    5MOL   C436 2924   5.705   7.055   1.551  0.2626  0.1863 -0.3744
    5MOL   O437 2925   5.562   7.077   1.581 -0.8108  0.0439  0.3218
    5MOL   C438 2926   5.475   6.974   1.545  0.5152 -0.3161 -0.0674
    5MOL   C439 2927   5.332   7.017   1.592  0.1698 -0.4267  0.4116
    5MOL   C440 2928   5.311   7.028   1.745 -0.7100  0.4996  0.2321
    5MOL   C441 2929   5.164   7.050   1.784 -1.0675  0.2102 -0.1424
    5MOL   C442 2930   5.119   7.193   1.754  0.0169  0.5204  0.5721
    5MOL   C443 2931   4.968   7.210   1.791  0.2027 -0.1584 -0.4830
    5MOL   C444 2932   4.873   7.145   1.680 -0.3012  0.1886 -0.4496
    5MOL   C445 2933   4.886   7.211   1.544  0.7852  0.2519  0.0544
    5MOL   C446 2934   5.766   7.082   1.684  0.0977  0.8498  0.5302
    5MOL   H447 2935   5.719   6.953   1.516 -1.8616 -0.1117 -0.4009
    5MOL   H448 2936   5.488   6.948   1.440  3.5389 -0.1101  0.2182
    5MOL   H449 2937   5.488   6.878   1.596  0.7999 -0.6479 -0.7619
    5MOL   H450 2938   5.263   6.943   1.550 -1.4392  0.6747  1.0276
    5MOL   H451 2939   5.314   7.118   1.555  0.1534 -0.6205 -0.1148
    5MOL   H452 2940   5.351   6.939   1.793 -2.5484  0.2708  1.3484
    5MOL   H453 2941   5.371   7.106   1.792  2.2906 -0.3057 -2.0247
    5MOL   H454 2942   5.102   6.977   1.732 -0.2663 -0.5930  0.0132
    5MOL   H455 2943   5.167   7.027   1.890 -0.9336 -0.2259 -0.2408
    5MOL   H456 2944   5.171   7.268   1.814  1.5580  0.8125 -1.1084
    5MOL   H457 2945   5.133   7.218   1.649  1.8814  0.0012  0.6867
    5MOL   H458 2946   4.939   7.315   1.799  1.5488  0.3801 -2.1921
    5MOL   H459 2947   4.943   7.168   1.888  0.9604 -0.9862 -0.6399
    5MOL   H460 2948   4.869   7.037   1.666  0.3822  0.1681 -0.5270
    5MOL   H461 2949   4.774   7.171   1.718  0.0970 -1.3143  1.7346
    5MOL   H462 2950   4.906   7.318   1.546  2.1560  0.0696 -2.1660
    5MOL   H463 2951   4.790   7.195   1.495  1.1892 -1.3161 -0.2450
    5MOL   H464 2952   4.956   7.157   1.481  1.3846  2.4396 -1.2133
    5MOL   H465 2953   5.871   7.065   1.656 -0.5274 -1.1446 -0.7144
    5MOL   H466 2954   5.742   7.186   1.708  0.1313  0.5294  2.0027
    5MOL   C467 2955   5.726   6.994   1.800 -0.0722 -0.2241  0.1447
    5MOL   O468 2956   5.794   7.054   1.899  0.0997  0.0066 -0.0222
    5MOL   C469 2957   5.714   7.147   1.983  0.8162 -0.2468 -0.3565
    5MOL   C470 2958   5.802   7.252   2.057  0.5803  0.2532  0.8794
    5MOL   C471 2959   5.719   7.367   2.118 -0.3072  0.3761  0.3019
    5MOL   C472 2960   5.809   7.494   2.154 -0.6708 -0.4619 -0.2125
    5MOL   C473 2961   5.919   7.466   2.265 -0.2154  0.0200  0.6014
    5MOL   C474 2962   6.036   7.564   2.258 -0.2677  0.2167 -0.7684
    5MOL   C475 2963   6.135   7.541   2.379  0.1512  0.2986  0.1670
    5MOL   C476 2964   6.250   7.637   2.365  0.1131 -0.1302 -1.1409
    5MOL   C477 2965   5.770   6.843   1.787  0.2271 -0.1158 -0.0529
    5MOL   H478 2966   5.618   6.987   1.813 -0.1041 -1.3346 -0.6244
    5MOL   H479 2967   5.652   7.095   2.056  1.7178 -0.4347  0.2800
    5MOL   H480 2968   5.651   7.214   1.924  0.1642  0.5952  1.2630
    5MOL   H481 2969   5.877   7.297   1.993  0.6383 -0.7383  0.2441
    5MOL   H482 2970   5.868   7.205   2.130  1.8329 -0.9627 -1.0080
    5MOL   H483 2971   5.650   7.405   2.043 -0.4575 -1.3276 -0.4460
    5MOL   H484 2972   5.660   7.337   2.205  1.7386 -1.3021  1.1623
    5MOL   H485 2973   5.849   7.537   2.063  1.0177 -2.1362 -0.2833
    5MOL   H486 2974   5.748   7.569   2.206 -0.0567  0.0767 -0.2560
    5MOL   H487 2975   5.880   7.466   2.367 -0.3069  0.5271  0.5676
    5MOL   H488 2976   5.957   7.365   2.249  0.3622  0.4313 -0.6868
    5MOL   H489 2977   6.010   7.670   2.265  0.1803  0.2894 -0.0709
    5MOL   H490 2978   6.086   7.555   2.161 -0.6670  0.7693 -1.0239
    5MOL   H491 2979   6.073   7.557   2.467 -0.5820  1.7459 -0.6054
    5MOL   H492 2980   6.169   7.437   2.376  0.0918  0.2761  0.2705
    5MOL   H493 2981   6.216   7.733   2.324 -3.3066 -0.1783  1.3884
    5MOL   H494 2982   6.317   7.592   2.292  0.2124  1.6938 -2.2162
    5MOL   H495 2983   6.302   7.653   2.459  0.7388 -0.8052 -1.3712
    5MOL   H496 2984   5.734   6.797   1.695 -2.5133  0.2441  0.8013
    5MOL   H497 2985   5.878   6.843   1.772  0.2848 -1.7197  0.2178
    5MOL   C498 2986   5.727   6.750   1.908  0.2999 -0.0406 -0.5610
    5MOL   O499 2987   5.815   6.638   1.917 -0.7258  0.0098 -0.0915
    5MOL   C500 2988   5.943   6.675   1.977  0.2648 -0.0924 -0.0414
    5MOL   C501 2989   6.031   6.547   1.968  0.5496 -0.3635  0.1640
    5MOL   C502 2990   6.165   6.582   2.037  0.6386  0.4934  0.1647
    5MOL   C503 2991   6.245   6.453   2.043  0.0317 -0.0974  0.5263
    5MOL   C504 2992   6.357   6.462   2.152 -0.1939 -0.3194 -0.5302
    5MOL   C505 2993   6.471   6.359   2.141 -0.4371  0.3906  0.4320
    5MOL   C506 2994   6.561   6.370   2.262  0.6757 -0.6182 -0.6958
    5MOL   C507 2995   6.690   6.288   2.254  0.7076 -0.0048  0.5675
    5MOL   C508 2996   5.586   6.699   1.872 -0.0960 -0.5765  0.2547
    5MOL   H509 2997   5.730   6.794   2.007 -0.0966 -2.0322  0.3500
    5MOL   H510 2998   5.925   6.695   2.082  0.6219  3.0583 -0.5453
    5MOL   H511 2999   5.977   6.767   1.930 -0.0793  1.0865  1.9759
    5MOL   H512 3000   6.041   6.518   1.864  0.1779 -0.5104  0.1666
    5MOL   H513 3001   5.978   6.462   2.013 -1.9548  0.3214 -1.3955
    5MOL   H514 3002   6.218   6.662   1.984  1.4637  0.3985  0.8350
    5MOL   H515 3003   6.148   6.619   2.138  1.7809 -0.7876  0.8451
    5MOL   H516 3004   6.188   6.367   2.078  0.1956 -0.7266 -0.7298
    5MOL   H517 3005   6.285   6.426   1.946  0.0216  0.7898  0.2695
    5MOL   H518 3006   6.402   6.561   2.149  1.5094 -1.0996 -1.7611
    5MOL   H519 3007   6.308   6.466   2.249 -0.3338  1.7780 -0.6599
    5MOL   H520 3008   6.530   6.370   2.050  1.9722  0.3369  1.9402
    5MOL   H521 3009   6.429   6.260   2.128 -0.7198  0.6653 -0.8254
    5MOL   H522 3010   6.596   6.470   2.286  1.5482 -1.1752  0.3649
    5MOL   H523 3011   6.513   6.328   2.350  2.0369 -1.1320 -0.1791
    5MOL   H524 3012   6.770   6.349   2.212  0.5314  0.7328  1.2801
    5MOL   H525 3013   6.684   6.198   2.194 -1.0610  0.1799  0.4202
    5MOL   H526 3014   6.729   6.258   2.351  0.9061  0.0219  0.4965
    5MOL   H527 3015   5.531   6.791   1.851  0.0511 -0.7865 -1.0985
    5MOL   H528 3016   5.597   6.649   1.776  1.6946  0.1304  0.0721
    5MOL   C529 3017   5.530   6.617   1.996  0.2172 -0.3878  0.3356
    5MOL   O530 3018   5.440   6.524   1.937  0.6259  0.7984 -0.9265
    5MOL   C531 3019   5.473   6.381   1.948 -1.0417 -0.2682 -0.4668
    5MOL   C532 3020   5.366   6.295   1.886 -0.3220 -0.2600  0.2987
    5MOL   C533 3021   5.411   6.149   1.866 -0.4362  0.2121  0.6099
    5MOL   C534 3022   5.318   6.066   1.778 -0.0576  0.0986  0.0132
    5MOL   C535 3023   5.385   5.928   1.753  0.3875  1.0363 -0.0216
    5MOL   C536 3024   5.473   5.937   1.637  0.0203  0.9275  0.0884
    5MOL   C537 3025   5.540   5.805   1.600 -0.0504 -0.0317  0.9661
    5MOL   C538 3026   5.622   5.825   1.475 -0.5241  0.5724 -0.6879
    5MOL   C539 3027   5.439   6.697   2.087 -0.5201  0.2246  0.6991
    5MOL   H540 3028   5.604   6.566   2.057 -0.1912 -0.9767  0.3380
    5MOL   H541 3029   5.571   6.363   1.902 -0.9778  0.7244 -0.7384
    5MOL   H542 3030   5.493   6.336   2.045 -0.7528 -1.0087 -0.8661
    5MOL   H543 3031   5.319   6.332   1.795 -0.0936 -0.4782  0.0924
    5MOL   H544 3032   5.280   6.284   1.952 -2.2702 -3.0356 -2.5511
    5MOL   H545 3033   5.512   6.165   1.828 -0.9712  0.7736 -0.5749
    5MOL   H546 3034   5.417   6.088   1.957 -0.3374 -0.3721  0.2139
    5MOL   H547 3035   5.224   6.050   1.830  0.5922 -2.4768  0.4289
    5MOL   H548 3036   5.279   6.106   1.684  2.4226  1.4047 -0.5266
    5MOL   H549 3037   5.440   5.888   1.838  3.1222  0.7055 -1.9002
    5MOL   H550 3038   5.305   5.861   1.723  0.7878  0.3648  0.3925
    5MOL   H551 3039   5.547   6.012   1.667  1.5630 -0.9604  1.1809
    5MOL   H552 3040   5.415   5.971   1.552 -1.7712 -0.4942  0.7109
    5MOL   H553 3041   5.616   5.787   1.676  1.5061 -0.7451 -0.7157
    5MOL   H554 3042   5.484   5.712   1.609  0.7735 -0.7214 -0.7487
    5MOL   H555 3043   5.689   5.911   1.482 -0.3218  0.2736  1.2954
    5MOL   H556 3044   5.557   5.832   1.388 -1.1210 -3.2815 -0.6419
    5MOL   H557 3045   5.677   5.734   1.454 -0.8304  0.3961 -0.7288
    5MOL   H558 3046   5.504   6.777   2.121  1.3225 -0.4766 -1.0566
    5MOL   H559 3047   5.360   6.744   2.028  0.4714 -0.9035 -1.6173
    5MOL   C560 3048   5.366   6.624   2.201  0.5270  0.2219 -0.0542
    5MOL   O561 3049   5.280   6.712   2.270 -0.4534  0.1541 -0.2571
    5MOL   C562 3050   5.331   6.822   2.337  0.0833 -0.0392 -0.3672
    5MOL   C563 3051   5.269   6.834   2.476  0.0961  0.9062 -0.4711
    5MOL   C564 3052   5.270   6.969   2.542 -0.7474 -0.0540  0.5789
    5MOL   C565 3053   5.210   6.964   2.686  0.1951  0.5616  0.2577
    5MOL   C566 3054   5.274   7.074   2.774  0.3187  0.9297  0.3829
    5MOL   C567 3055   5.189   7.124   2.888  0.3012 -0.2116 -0.1758
    5MOL   C568 3056   5.245   7.263   2.944  0.4746 -0.5550  0.0113
    5MOL   C569 3057   5.389   7.250   2.988  0.3267 -0.2705  0.1049
    5MOL   C570 3058   5.456   6.545   2.290  0.1608  0.4415 -0.2757
    5MOL   H571 3059   5.296   6.555   2.152  0.2835  0.3099  0.1680
    5MOL   H572 3060   5.314   6.908   2.273 -3.6953 -0.5035 -0.1181
    5MOL   H573 3061   5.440   6.823   2.341  0.0340 -0.5657  2.2950
    5MOL   H574 3062   5.314   6.753   2.532  2.4412  1.7569 -1.0484
    5MOL   H575 3063   5.163   6.810   2.467  0.1525  0.8450 -0.9951
    5MOL   H576 3064   5.376   6.991   2.537 -0.2284 -2.0352  2.4528
    5MOL   H577 3065   5.227   7.037   2.468 -1.8624  0.3285  1.5521
    5MOL   H578 3066   5.102   6.976   2.686  0.0033 -0.8251  2.6329
    5MOL   H579 3067   5.231   6.870   2.737 -0.1402 -1.0795 -2.5351
    5MOL   H580 3068   5.374   7.041   2.804 -0.2130 -1.3160 -0.2313
    5MOL   H581 3069   5.294   7.161   2.712 -0.9513 -0.1073 -1.5098
    5MOL   H582 3070   5.168   7.051   2.966  1.4402 -1.3123 -0.8694
    5MOL   H583 3071   5.092   7.139   2.840 -0.7038  0.9822  2.1649
    5MOL   H584 3072   5.242   7.337   2.864 -1.9895  0.9089  1.3827
    5MOL   H585 3073   5.180   7.298   3.024  0.3175  2.1419 -1.2313
    5MOL   H586 3074   5.433   7.344   3.023  0.9789  0.1023 -1.6411
    5MOL   H587 3075   5.450   7.217   2.904  0.7258  0.3496  0.1467
    5MOL   H588 3076   5.410   7.175   3.064  0.2973 -1.0834 -0.6773
    5MOL   H589 3077   5.532   6.488   2.237 -1.2022 -1.1748 -0.5498
    5MOL   H590 3078   5.510   6.616   2.353  0.4657  0.4277 -0.5193
    5MOL   C591 3079   5.397   6.440   2.385 -0.4642  0.0061  0.3210
    5MOL   O592 3080   5.503   6.398   2.474  0.6160 -0.3878  0.7465
    5MOL   C593 3081   5.459   6.354   2.597 -0.9329 -0.0602  0.2496
    5MOL   C594 3082   5.435   6.472   2.686  0.3174  0.5327 -0.4990
    5MOL   C595 3083   5.555   6.565   2.715 -0.1031  0.2805  0.1214
    5MOL   C596 3084   5.520   6.680   2.804 -0.0905  0.2919  0.3919
    5MOL   C597 3085   5.648   6.753   2.860  0.5966  0.4936  0.0482
    5MOL   C598 3086   5.611   6.861   2.967  0.0925 -0.4213 -0.8149
    5MOL   C599 3087   5.726   6.929   3.049 -0.5033 -0.1195 -0.2398
    5MOL   C600 3088   5.684   7.036   3.148 -0.2402 -0.6713 -0.1719
    5MOL   C601 3089   5.344   6.312   2.306 -0.3668  0.0480 -1.0488
    5MOL   H602 3090   5.324   6.493   2.446  0.5003  2.6731 -0.7793
    5MOL   H603 3091   5.535   6.285   2.633 -3.3080 -2.3103  1.1194
    5MOL   H604 3092   5.377   6.285   2.575 -0.6060 -0.2938 -0.2447
    5MOL   H605 3093   5.405   6.436   2.784  2.3892  0.7847  0.2526
    5MOL   H606 3094   5.354   6.527   2.638 -1.9378 -1.5711  0.7615
    5MOL   H607 3095   5.630   6.497   2.755  1.3716  1.0570 -1.2721
    5MOL   H608 3096   5.597   6.602   2.622  0.6956 -0.4368  0.1916
    5MOL   H609 3097   5.462   6.750   2.743 -2.5759 -1.3885  0.7483
    5MOL   H610 3098   5.459   6.649   2.889  0.0488  1.1779  0.8200
    5MOL   H611 3099   5.718   6.685   2.909 -0.0269  0.8487  1.4667
    5MOL   H612 3100   5.704   6.794   2.777  1.3063 -1.5931 -0.5475
    5MOL   H613 3101   5.542   6.813   3.037  1.0535  0.2604  0.6293
    5MOL   H614 3102   5.548   6.934   2.917 -0.5060 -0.4477 -0.1158
    5MOL   H615 3103   5.786   6.856   3.102 -0.8706 -0.8255 -0.7851
    5MOL   H616 3104   5.799   6.968   2.978  0.4499 -2.4129 -0.5574
    5MOL   H617 3105   5.619   7.008   3.230  3.1465 -1.7513  2.2687
    5MOL   H618 3106   5.634   7.124   3.107 -2.5150 -0.6010  2.5864
    5MOL   H619 3107   5.781   7.065   3.189 -0.6231 -0.9380  0.9232
    5MOL   H620 3108   5.315   6.234   2.376 -0.0422  1.6872  0.9363
    5MOL   H621 3109   5.256   6.347   2.251 -0.2365  1.2867 -0.4788
    5MOL   H622 3110   5.423   6.278   2.239  2.7813  2.0716  1.4941
    6MOL     C1 3111   4.312   3.409   2.058  0.2856 -0.4289  0.1598
    6MOL     O2 3112   4.445   3.455   2.020  0.3323  0.3160  0.2009
    6MOL     C3 3113   4.522   3.352   1.955  0.0765 -0.3367  0.2771
    6MOL     C4 3114   4.666   3.393   1.931 -0.5485 -0.4841  0.1715
    6MOL     C5 3115   4.763   3.397   2.054  0.1548 -0.7921 -0.0289
    6MOL     C6 3116   4.903   3.377   2.012  0.1106  0.6079  0.8240
    6MOL     C7 3117   5.010   3.410   2.123  1.0768 -0.0567 -0.0685
    6MOL     C8 3118   5.152   3.387   2.079 -0.0849  0.0512  0.4607
    6MOL     C9 3119   5.251   3.445   2.180  0.3659 -0.5819  0.1993
    6MOL    C10 3120   5.391   3.438   2.128 -0.2775  0.2905  0.6025
    6MOL    C11 3121   4.244   3.518   2.147  0.4788 -0.2280  0.1532
    6MOL    H12 3122   4.257   3.389   1.966 -2.4003  0.4219  1.5155
    6MOL    H13 3123   4.480   3.317   1.861  0.0826  0.5786 -0.0733
    6MOL    H14 3124   4.528   3.259   2.011  0.6565  0.2780  1.2668
    6MOL    H15 3125   4.661   3.482   1.869 -1.1398 -1.4768 -1.2492
    6MOL    H16 3126   4.705   3.308   1.874  0.1787  0.6834 -1.1077
    6MOL    H17 3127   4.758   3.496   2.099  0.9277 -0.5592 -0.4532
    6MOL    H18 3128   4.727   3.317   2.118 -0.5157  0.2250  0.8860
    6MOL    H19 3129   4.922   3.277   1.972  0.3941  0.9721  0.0363
    6MOL    H20 3130   4.912   3.450   1.931  0.5513  0.1246  0.4310
    6MOL    H21 3131   4.998   3.514   2.153  0.7022 -0.4790  1.2848
    6MOL    H22 3132   4.990   3.351   2.213 -0.3948  0.7191  0.1241
    6MOL    H23 3133   5.164   3.445   1.988  0.7828 -1.9104 -0.7223
    6MOL    H24 3134   5.177   3.282   2.064  0.6356  0.4766 -1.4237
    6MOL    H25 3135   5.230   3.548   2.207 -0.7070 -1.0859  1.3061
    6MOL    H26 3136   5.262   3.387   2.272  0.1643 -2.9387 -1.2040
    6MOL    H27 3137   5.429   3.339   2.102 -0.1815 -0.4203  3.2743
    6MOL    H28 3138   5.478   3.473   2.182 -0.0025 -2.0816  1.7527
    6MOL    H29 3139   5.404   3.492   2.034  2.1359 -0.3796  0.5327
    6MOL    H30 3140   4.302   3.536   2.238  0.0667 -2.1486  0.8164
    6MOL    H31 3141   4.239   3.617   2.102 -0.9825 -0.8727 -1.1097
    6MOL    H32 3142   4.321   3.320   2.119  0.9278 -1.2463 -1.1027
    6MOL    C33 3143   4.107   3.475   2.184  0.4987  0.1481 -0.3213
    6MOL    O34 3144   4.096   3.349   2.265 -0.2816  0.0259 -0.3998
    6MOL    C35 3145   4.166   3.352   2.389  0.2570  0.1785  0.8659
    6MOL    C36 3146   4.115   3.231   2.471  0.3202 -0.4816  0.6273
    6MOL    C37 3147   3.963   3.218   2.482 -0.1795 -0.0246 -0.1972
    6MOL    C38 3148   3.916   3.101   2.570  0.2398 -0.1736 -0.1208
    6MOL    C39 3149   3.758   3.084   2.565 -0.0731  0.6557  0.8601
    6MOL    C40 3150   3.681   3.210   2.605  0.0308  1.2354  0.2461
    6MOL    C41 3151   3.531   3.200   2.627 -0.0104  0.3384 -0.0397
    6MOL    C42 3152   3.459   3.327   2.673  0.0636  0.1423  0.3099
    6MOL    C43 3153   4.023   3.451   2.059 -0.4274  0.1753  0.2889
    6MOL    H44 3154   4.065   3.552   2.249  0.0270 -1.9071  1.8902
    6MOL    H45 3155   4.125   3.444   2.432 -2.7438 -0.2781 -0.8811
    6MOL    H46 3156   4.274   3.369   2.382 -0.1103  2.0635 -0.4566
    6MOL    H47 3157   4.156   3.258   2.569 -1.6907 -1.4946  1.7762
    6MOL    H48 3158   4.177   3.143   2.453 -0.3090 -0.6210 -0.8761
    6MOL    H49 3159   3.930   3.312   2.525 -0.2068 -0.0254 -0.2159
    6MOL    H50 3160   3.924   3.206   2.381  2.3362  0.1608 -1.2276
    6MOL    H51 3161   3.961   3.005   2.543  1.0100  0.0082  0.4829
    6MOL    H52 3162   3.954   3.101   2.672 -0.4812  1.5888  0.1631
    6MOL    H53 3163   3.737   3.066   2.460  1.3921 -1.8872  0.9543
    6MOL    H54 3164   3.719   3.001   2.623 -0.2758 -0.4592 -0.8386
    6MOL    H55 3165   3.689   3.286   2.527 -2.5421  1.4398  0.1707
    6MOL    H56 3166   3.730   3.246   2.696 -0.2636  1.6164  0.2531
    6MOL    H57 3167   3.483   3.156   2.539  0.3232 -1.9882  0.9101
    6MOL    H58 3168   3.517   3.121   2.700 -0.8041  0.6555  0.1618
    6MOL    H59 3169   3.485   3.358   2.774  0.3892  3.4996 -0.7572
    6MOL    H60 3170   3.351   3.314   2.676 -0.1518  0.3180 -4.0007
    6MOL    H61 3171   3.487   3.415   2.615 -1.3799  0.7927  0.5828
    6MOL    H62 3172   4.055   3.523   1.983  0.8966  2.1159  2.6035
    6MOL    H63 3173   4.051   3.351   2.026 -0.6599 -0.2185  1.2754
    6MOL    C64 3174   3.869   3.448   2.080 -1.0876 -0.3526 -0.8101
    6MOL    O65 3175   3.805   3.402   1.961  0.2112  0.1518  0.2459
    6MOL    C66 3176   3.829   3.270   1.911 -0.5828  0.2414 -0.4307
    6MOL    C67 3177   3.716   3.240   1.817 -0.8108  0.0455  0.0963
    6MOL    C68 3178   3.722   3.099   1.749  0.0201 -0.2334 -0.1912
    6MOL    C69 3179   3.662   2.988   1.834  0.5922  0.3497  0.2337
    6MOL    C70 3180   3.698   2.852   1.772 -0.0680  0.3228 -0.0622
    6MOL    C71 3181   3.619   2.735   1.841  0.7858  0.0462  0.1905
    6MOL    C72 3182   3.610   2.608   1.753 -1.2308  0.3533  0.1049
    6MOL    C73 3183   3.744   2.544   1.722  0.5208 -0.1639 -0.0191
    6MOL    C74 3184   3.802   3.579   2.122  0.1234  0.4533 -0.3305
    6MOL    H75 3185   3.850   3.381   2.163  3.9721  0.0427  0.8453
    6MOL    H76 3186   3.837   3.195   1.990 -0.7535 -0.0866 -0.7218
    6MOL    H77 3187   3.919   3.251   1.853  0.6315 -1.0128  1.7701
    6MOL    H78 3188   3.721   3.317   1.740  1.9249 -1.1079 -0.9348
    6MOL    H79 3189   3.618   3.251   1.863 -1.2747  2.2359 -1.3665
    6MOL    H80 3190   3.669   3.115   1.656 -2.9702  0.1950  1.5075
    6MOL    H81 3191   3.828   3.083   1.727  0.0276 -1.3268  0.5829
    6MOL    H82 3192   3.701   2.994   1.935  0.4448 -1.0437  0.3815
    6MOL    H83 3193   3.555   3.000   1.851  0.4232 -2.2270  1.1792
    6MOL    H84 3194   3.694   2.856   1.663  0.8859  0.9036 -0.0867
    6MOL    H85 3195   3.804   2.829   1.787 -0.2802 -1.1565 -0.6646
    6MOL    H86 3196   3.516   2.770   1.839  1.0098  0.7382  0.3765
    6MOL    H87 3197   3.645   2.722   1.946  1.8033 -0.7737 -0.1604
    6MOL    H88 3198   3.553   2.536   1.812  0.8239 -1.7232 -0.3990
    6MOL    H89 3199   3.543   2.633   1.671 -1.8921 -0.0458  0.5166
    6MOL    H90 3200   3.808   2.544   1.810 -0.3814  0.6767  0.6479
    6MOL    H91 3201   3.793   2.606   1.646  0.1073 -0.2586 -0.3646
    6MOL    H92 3202   3.727   2.454   1.664  0.1197  1.0747 -1.8861
    6MOL    H93 3203   3.844   3.599   2.221 -0.3255 -0.0084 -0.0420
    6MOL    H94 3204   3.828   3.671   2.068 -1.2931  1.7220  1.0853
    6MOL    C95 3205   3.649   3.570   2.145  0.5691  1.1165  0.9505
    6MOL    O96 3206   3.604   3.648   2.256  0.0416 -0.5674  0.1496
    6MOL    C97 3207   3.615   3.789   2.249 -0.6690  0.0239 -0.0257
    6MOL    C98 3208   3.536   3.841   2.371 -0.0956 -0.0420 -0.4256
    6MOL    C99 3209   3.384   3.812   2.383  0.1977  0.1241 -0.4007
    6MOL   C100 3210   3.320   3.848   2.517 -0.1029  0.5558  0.5540
    6MOL   C101 3211   3.168   3.855   2.518 -0.5522  0.5719 -0.0212
    6MOL   C102 3212   3.105   3.842   2.657  0.3360 -0.5316 -0.7193
    6MOL   C103 3213   3.076   3.977   2.735 -0.1962 -0.1069  0.3344
    6MOL   C104 3214   3.206   4.036   2.798  0.0063 -0.9202  0.2851
    6MOL   C105 3215   3.588   3.425   2.162  0.5567 -0.3324 -0.3458
    6MOL   H106 3216   3.612   3.608   2.050  0.3461 -1.8795 -0.2121
    6MOL   H107 3217   3.575   3.838   2.160 -1.4987 -1.2818 -0.3833
    6MOL   H108 3218   3.718   3.823   2.266 -0.7925  0.2214  0.3313
    6MOL   H109 3219   3.549   3.949   2.362 -1.1497  0.1735  0.5422
    6MOL   H110 3220   3.590   3.812   2.461  1.2905  0.7210 -0.9883
    6MOL   H111 3221   3.333   3.869   2.305  0.7567  1.2607  0.0401
    6MOL   H112 3222   3.351   3.709   2.377  0.4066 -0.1892  2.7790
    6MOL   H113 3223   3.347   3.765   2.583 -2.2323 -0.5920  0.0518
    6MOL   H114 3224   3.372   3.934   2.558  0.0971  0.6256  0.1566
    6MOL   H115 3225   3.141   3.949   2.469 -2.0765  0.2015  0.0770
    6MOL   H116 3226   3.114   3.787   2.452  0.5577  1.3812 -1.8288
    6MOL   H117 3227   3.162   3.770   2.716  0.7234  0.3549  0.0031
    6MOL   H118 3228   3.005   3.799   2.647 -0.2370  0.7012 -0.2863
    6MOL   H119 3229   3.031   4.056   2.674  0.7696 -2.0305 -3.0085
    6MOL   H120 3230   3.002   3.961   2.813 -1.3238  2.1631 -0.2287
    6MOL   H121 3231   3.180   4.118   2.866 -0.1465  1.1519 -2.1890
    6MOL   H122 3232   3.286   4.057   2.727 -0.3586  0.3759  0.2298
    6MOL   H123 3233   3.252   3.967   2.869  1.0998  1.8619  2.4142
    6MOL   H124 3234   3.623   3.354   2.087  1.8764  0.5331 -0.5710
    6MOL   H125 3235   3.628   3.390   2.257  0.0804 -0.7728 -0.3088
    6MOL   C126 3236   3.430   3.406   2.162 -0.3546 -0.0578 -0.3876
    6MOL   O127 3237   3.397   3.276   2.175  0.6276  0.5261 -0.1991
    6MOL   C128 3238   3.368   3.232   2.303  0.3122 -0.0444 -0.1603
    6MOL   C129 3239   3.333   3.081   2.304  0.9442  0.1009 -0.4157
    6MOL   C130 3240   3.450   2.995   2.251 -0.0586  0.5826 -0.7025
    6MOL   C131 3241   3.422   2.878   2.157  0.1456 -0.0908 -1.0589
    6MOL   C132 3242   3.426   2.738   2.217 -0.4652  0.0244  0.1081
    6MOL   C133 3243   3.312   2.639   2.168 -0.2662 -0.8107 -0.1591
    6MOL   C134 3244   3.310   2.516   2.253  0.0096  0.7867 -0.5415
    6MOL   C135 3245   3.212   2.416   2.196 -0.4572  0.1538  0.2933
    6MOL   C136 3246   3.361   3.463   2.034 -0.1539  0.0529  0.2913
    6MOL   H137 3247   3.408   3.468   2.248 -0.6463 -0.1392 -0.4046
    6MOL   H138 3248   3.290   3.294   2.347  2.3245  2.3489  0.1057
    6MOL   H139 3249   3.461   3.241   2.359  0.4977  1.7592 -0.7623
    6MOL   H140 3250   3.240   3.067   2.249  1.7336 -0.8755 -1.5653
    6MOL   H141 3251   3.318   3.051   2.408  0.0561  0.3214 -0.4819
    6MOL   H142 3252   3.514   3.062   2.192 -0.9125  1.9748 -0.0860
    6MOL   H143 3253   3.504   2.968   2.341 -0.8040 -1.5025 -0.8476
    6MOL   H144 3254   3.327   2.895   2.107 -1.0944  0.7738  1.4728
    6MOL   H145 3255   3.501   2.883   2.082 -0.3488  0.9062 -1.5094
    6MOL   H146 3256   3.527   2.697   2.204 -0.1312  0.5751  0.9383
    6MOL   H147 3257   3.422   2.745   2.325 -2.4375 -1.7669  0.1733
    6MOL   H148 3258   3.327   2.616   2.063  1.0457 -1.9309  0.2619
    6MOL   H149 3259   3.220   2.696   2.181 -0.4487 -1.5604  1.9729
    6MOL   H150 3260   3.409   2.482   2.282 -0.8238 -0.0953  1.4697
    6MOL   H151 3261   3.271   2.552   2.349 -0.0245 -2.9191  0.9458
    6MOL   H152 3262   3.230   2.394   2.091 -0.6532  0.0905  0.2717
    6MOL   H153 3263   3.106   2.441   2.201 -0.7285 -0.7635 -0.7490
    6MOL   H154 3264   3.225   2.319   2.244  0.8407  0.3089  0.2728
    6MOL   H155 3265   3.385   3.569   2.028  1.6230 -0.4341 -2.0791
    6MOL   H156 3266   3.406   3.412   1.948  0.2792 -2.3138  1.8941
    6MOL   C157 3267   3.201   3.455   2.033 -0.9459 -0.4953 -0.0076
    6MOL   O158 3268   3.154   3.527   1.911  0.1849  0.9189 -0.1751
    6MOL   C159 3269   3.109   3.435   1.808 -0.1890 -0.1517 -0.2857
    6MOL   C160 3270   3.076   3.515   1.683  0.0377  0.2314  0.6368
    6MOL   C161 3271   3.044   3.430   1.556 -0.1882  0.4969 -0.2426
    6MOL   C162 3272   2.965   3.524   1.455 -0.8078 -0.3564  0.5175
    6MOL   C163 3273   2.965   3.481   1.303 -0.2269  0.1015 -0.2071
    6MOL   C164 3274   2.902   3.346   1.277  0.0282  0.6040  0.9399
    6MOL   C165 3275   2.754   3.364   1.271  0.6785 -0.4311 -0.1025
    6MOL   C166 3276   2.673   3.235   1.277  0.3278  0.2560  0.3266
    6MOL   C167 3277   3.141   3.514   2.163  0.0006  0.0640  0.0719
    6MOL   H168 3278   3.185   3.347   2.031 -0.7007 -0.5343  0.0747
    6MOL   H169 3279   3.028   3.368   1.835 -0.0630 -0.0526  0.3580
    6MOL   H170 3280   3.195   3.374   1.780 -0.1447  0.6990 -2.0261
    6MOL   H171 3281   3.165   3.573   1.660  0.6090  0.9657  4.3864
    6MOL   H172 3282   2.999   3.591   1.701  0.4219  0.5861  0.7863
    6MOL   H173 3283   3.141   3.400   1.517 -0.0647  0.7670 -0.1429
    6MOL   H174 3284   2.969   3.358   1.589 -0.9294  1.5488  0.3984
    6MOL   H175 3285   2.863   3.552   1.480 -0.1589  1.5019  1.1714
    6MOL   H176 3286   3.012   3.622   1.455 -2.4473  0.4669  3.4331
    6MOL   H177 3287   2.921   3.559   1.240  2.4573  2.3160  0.5627
    6MOL   H178 3288   3.064   3.472   1.259  0.3347 -0.1059  1.0726
    6MOL   H179 3289   2.923   3.269   1.352 -1.9777  0.0255  0.9256
    6MOL   H180 3290   2.931   3.306   1.180 -0.3383  0.7308  0.7815
    6MOL   H181 3291   2.721   3.418   1.360 -1.8964  0.2981 -1.4426
    6MOL   H182 3292   2.721   3.415   1.180  0.6879  0.9935  0.6730
    6MOL   H183 3293   2.673   3.178   1.185  1.0914  0.2921  0.3021
    6MOL   H184 3294   2.571   3.267   1.302  0.5186  0.3887  0.9476
    6MOL   H185 3295   2.709   3.174   1.360  2.1448 -0.0612 -0.6857
    6MOL   H186 3296   3.199   3.487   2.251  3.2193  0.0383 -1.9915
    6MOL   H187 3297   3.156   3.621   2.150 -0.4777  0.3881  2.0746
    6MOL   C188 3298   2.990   3.491   2.171  0.6403 -0.4905 -0.1995
    6MOL   O189 3299   2.943   3.579   2.274 -0.2665 -0.2518  0.3810
    6MOL   C190 3300   2.866   3.688   2.224 -0.1800 -0.3099 -0.4132
    6MOL   C191 3301   2.813   3.757   2.347 -0.3677  0.8740  0.1192
    6MOL   C192 3302   2.780   3.910   2.315  0.5189  0.7660 -0.2429
    6MOL   C193 3303   2.715   3.974   2.434 -0.0908 -0.8767  0.0640
    6MOL   C194 3304   2.689   4.131   2.415 -0.0507  0.2308 -0.0558
    6MOL   C195 3305   2.629   4.199   2.545 -0.0868 -0.0353  0.1227
    6MOL   C196 3306   2.638   4.350   2.561 -0.1022  0.6688 -0.1713
    6MOL   C197 3307   2.564   4.432   2.459 -0.0750  0.2393 -0.8015
    6MOL   C198 3308   2.951   3.346   2.214 -0.0411 -0.8149 -0.4651
    6MOL   H199 3309   2.946   3.514   2.074  0.4586 -3.9305 -0.9954
    6MOL   H200 3310   2.917   3.754   2.155 -0.5406  3.1420  2.4763
    6MOL   H201 3311   2.778   3.656   2.168  0.6498  0.3614 -2.1107
    6MOL   H202 3312   2.888   3.766   2.425 -1.2142  1.8944  0.8433
    6MOL   H203 3313   2.724   3.707   2.384 -0.2059  0.5955  0.1308
    6MOL   H204 3314   2.875   3.952   2.282  0.8409 -1.2194 -1.9656
    6MOL   H205 3315   2.702   3.921   2.240 -0.7665  1.9610  1.2351
    6MOL   H206 3316   2.621   3.919   2.444  0.8782 -2.4179  0.7036
    6MOL   H207 3317   2.774   3.965   2.525 -0.4336 -1.4104  0.2398
    6MOL   H208 3318   2.779   4.187   2.390  0.1062 -0.2596 -0.6030
    6MOL   H209 3319   2.617   4.147   2.334 -0.6746  0.4682  0.5427
    6MOL   H210 3320   2.678   4.153   2.631  1.7391 -0.4048 -1.0782
    6MOL   H211 3321   2.528   4.159   2.539  0.2632 -0.9260  0.0266
    6MOL   H212 3322   2.592   4.364   2.659 -0.1453  2.0887 -0.3793
    6MOL   H213 3323   2.741   4.383   2.565  0.5400 -1.1421 -1.2048
    6MOL   H214 3324   2.565   4.535   2.496 -2.8653  0.1950 -0.5132
    6MOL   H215 3325   2.464   4.391   2.449  0.4834 -2.0082  2.2872
    6MOL   H216 3326   2.615   4.422   2.363  0.3823 -0.1545 -0.5201
    6MOL   H217 3327   3.005   3.270   2.157 -1.1021 -1.5387 -0.4984
    6MOL   H218 3328   2.970   3.339   2.321 -2.0361  2.6040  0.1881
    6MOL   C219 3329   2.799   3.318   2.195 -0.4651 -0.8417  0.0771
    6MOL   O220 3330   2.762   3.204   2.278 -0.3136  0.3566 -0.3165
    6MOL   C221 3331   2.634   3.204   2.324 -0.4141  0.5309  0.9175
    6MOL   C222 3332   2.633   3.086   2.426 -0.1543  0.1295  0.1880
    6MOL   C223 3333   2.501   3.067   2.506 -0.0545  0.3359  0.5213
    6MOL   C224 3334   2.501   2.938   2.588 -0.1269 -0.1676  0.1607
    6MOL   C225 3335   2.582   2.930   2.714 -0.2590  0.4738 -0.1913
    6MOL   C226 3336   2.538   2.808   2.801 -0.1736  0.7309 -0.1000
    6MOL   C227 3337   2.576   2.670   2.733 -0.0070 -0.1904 -0.2686
    6MOL   C228 3338   2.729   2.643   2.742  0.6284  0.1806  0.5131
    6MOL   C229 3339   2.746   3.300   2.054  0.0586 -0.2427 -0.0186
    6MOL   H230 3340   2.749   3.409   2.228  0.3131 -0.3166 -0.2079
    6MOL   H231 3341   2.564   3.195   2.241 -1.1804 -0.4985  1.6604
    6MOL   H232 3342   2.618   3.295   2.382  0.5001  0.8230  0.7193
    6MOL   H233 3343   2.714   3.098   2.498 -2.1067  0.2972  2.4251
    6MOL   H234 3344   2.656   2.996   2.369 -0.2878  1.2129 -1.5982
    6MOL   H235 3345   2.481   3.157   2.566  0.0055  2.6925 -2.8744
    6MOL   H236 3346   2.430   3.057   2.424  0.9663  1.5470 -0.5421
    6MOL   H237 3347   2.396   2.921   2.613 -0.5589  1.8656 -0.2024
    6MOL   H238 3348   2.527   2.861   2.514 -0.2829 -1.0138  0.9704
    6MOL   H239 3349   2.687   2.925   2.686 -1.2277  2.0614 -4.4713
    6MOL   H240 3350   2.571   3.020   2.773  1.7623  0.0098  0.9446
    6MOL   H241 3351   2.437   2.826   2.837 -0.0559  0.1122  0.5618
    6MOL   H242 3352   2.580   2.820   2.901 -0.9768  1.2923  0.1700
    6MOL   H243 3353   2.527   2.584   2.779  0.4742  0.3956  1.3881
    6MOL   H244 3354   2.550   2.669   2.627  3.0499  0.5282 -1.0938
    6MOL   H245 3355   2.768   2.732   2.693 -2.3683  1.3058  0.0226
    6MOL   H246 3356   2.757   2.553   2.688 -2.2873 -0.1193 -0.5999
    6MOL   H247 3357   2.770   2.629   2.842  0.0328 -2.5628  0.4146
    6MOL   H248 3358   2.639   3.315   2.068 -0.2916 -3.1213  0.5097
    6MOL   H249 3359   2.789   3.387   2.004 -0.8105 -1.6556 -3.3304
    6MOL   C250 3360   2.774   3.170   1.970 -0.1518 -0.6065 -0.2579
    6MOL   O251 3361   2.915   3.144   1.979 -0.4798 -1.0609 -0.3450
    6MOL   C252 3362   2.937   3.004   1.967 -0.1920 -0.3907  0.0703
    6MOL   C253 3363   3.089   2.960   1.981  0.4705 -0.3504  0.4229
    6MOL   C254 3364   3.173   3.025   1.870 -0.6065 -0.3507 -0.7796
    6MOL   C255 3365   3.123   3.014   1.727  0.0387  0.0849  0.4547
    6MOL   C256 3366   3.232   3.064   1.628  0.5781  0.6119  0.3165
    6MOL   C257 3367   3.170   3.095   1.489  0.1984 -0.5501  0.3183
    6MOL   C258 3368   3.276   3.151   1.392  0.1011  0.3510 -0.2684
    6MOL   C259 3369   3.379   3.040   1.348 -0.4812  0.0391 -0.3192
    6MOL   C260 3370   2.739   3.192   1.820 -0.2192 -0.1773  0.6659
    6MOL   H261 3371   2.714   3.095   2.022 -1.0976 -0.3382 -0.9365
    6MOL   H262 3372   2.900   2.944   1.884  0.0846 -0.3603 -0.0774
    6MOL   H263 3373   2.883   2.967   2.054 -1.1309  1.2339  0.2029
    6MOL   H264 3374   3.117   2.855   1.975 -0.4990 -0.5773 -0.3729
    6MOL   H265 3375   3.127   3.005   2.073 -1.0270 -0.0203  0.9013
    6MOL   H266 3376   3.189   3.131   1.891 -1.0443 -0.6611  1.2142
    6MOL   H267 3377   3.270   2.975   1.867 -0.5978 -0.3035 -1.2417
    6MOL   H268 3378   3.110   2.910   1.696  3.8799  0.0391 -1.3124
    6MOL   H269 3379   3.026   3.063   1.712  0.9098  1.7166  0.0226
    6MOL   H270 3380   3.290   3.146   1.670  3.5409 -0.7308 -1.0690
    6MOL   H271 3381   3.312   2.993   1.613 -0.3244 -0.6344  1.2997
    6MOL   H272 3382   3.089   3.167   1.502 -0.6102 -1.3640 -0.1551
    6MOL   H273 3383   3.125   3.004   1.450  1.8451 -1.1625 -0.2075
    6MOL   H274 3384   3.219   3.176   1.302 -0.6100  0.3178  0.1733
    6MOL   H275 3385   3.328   3.241   1.424  0.9360 -0.7873  1.6553
    6MOL   H276 3386   3.438   3.007   1.433 -1.7314  0.9361  0.9106
    6MOL   H277 3387   3.448   3.059   1.266  2.2106  0.4505  1.9508
    6MOL   H278 3388   3.322   2.960   1.300 -0.1960 -1.6155  1.9911
    6MOL   H279 3389   2.772   3.290   1.785  2.6410 -1.5324 -0.5796
    6MOL   H280 3390   2.795   3.132   1.749 -2.0598 -0.7067 -0.3757
    6MOL   C281 3391   2.584   3.170   1.801 -0.6199  0.2317 -0.0641
    6MOL   O282 3392   2.550   3.039   1.848  0.0275  0.5202  0.1295
    6MOL   C283 3393   2.458   3.026   1.957  0.4027 -0.6214 -0.6752
    6MOL   C284 3394   2.451   2.887   2.001  0.7417 -0.2272  0.3066
    6MOL   C285 3395   2.354   2.852   2.112  0.2856 -0.0938  0.4040
    6MOL   C286 3396   2.337   2.702   2.127  0.5500  0.2320  0.1946
    6MOL   C287 3397   2.235   2.659   2.238 -0.8537 -0.2325 -0.5155
    6MOL   C288 3398   2.260   2.705   2.387 -0.5319 -0.0662 -0.4805
    6MOL   C289 3399   2.148   2.666   2.483  0.1009 -0.4954 -0.5482
    6MOL   C290 3400   2.137   2.519   2.500 -0.1336  0.3313  0.1072
    6MOL   C291 3401   2.540   3.178   1.654  0.1929  0.0630 -0.5727
    6MOL   H292 3402   2.533   3.250   1.855  0.8477  0.0688  1.5919
    6MOL   H293 3403   2.361   3.069   1.932 -0.3022 -1.3180  0.8107
    6MOL   H294 3404   2.487   3.083   2.045 -3.7688  0.6216  0.0497
    6MOL   H295 3405   2.541   2.847   2.047  0.6565  0.8323  1.4292
    6MOL   H296 3406   2.429   2.824   1.914 -0.1267  0.6579 -0.1286
    6MOL   H297 3407   2.376   2.893   2.211  0.0964 -0.9652  0.8120
    6MOL   H298 3408   2.261   2.904   2.087  1.1575  1.2397 -0.1328
    6MOL   H299 3409   2.316   2.645   2.036  1.0446  0.0154  0.2140
    6MOL   H300 3410   2.432   2.659   2.157  1.8256  1.6318 -1.6870
    6MOL   H301 3411   2.137   2.699   2.215 -1.5671 -1.8861 -0.4251
    6MOL   H302 3412   2.219   2.552   2.226 -0.6586 -0.4350  0.9703
    6MOL   H303 3413   2.274   2.813   2.395  1.3351 -0.2272 -1.2407
    6MOL   H304 3414   2.356   2.663   2.416 -0.2210  0.5940 -0.5365
    6MOL   H305 3415   2.176   2.699   2.583 -1.1492  1.0202 -0.6832
    6MOL   H306 3416   2.055   2.708   2.447  0.7215  0.4560 -1.0769
    6MOL   H307 3417   2.226   2.467   2.535 -1.8019 -3.1241 -0.5457
    6MOL   H308 3418   2.102   2.481   2.404 -1.1577  0.8328  0.2706
    6MOL   H309 3419   2.054   2.506   2.570 -0.5850  0.2538 -0.4373
    6MOL   H310 3420   2.584   3.259   1.596 -3.4086  1.4205 -1.5447
    6MOL   H311 3421   2.573   3.090   1.599  0.3137  0.9842 -2.0035
    6MOL   C312 3422   2.387   3.183   1.641 -0.4989 -0.1269 -0.2200
    6MOL   O313 3423   2.360   3.200   1.500  0.6365 -0.1238 -0.1368
    6MOL   C314 3424   2.366   3.085   1.423  0.2074  0.1121 -0.6606
    6MOL   C315 3425   2.316   3.125   1.284 -0.1717  0.1636  0.3566
    6MOL   C316 3426   2.168   3.164   1.288  1.2304 -0.3504 -0.1766
    6MOL   C317 3427   2.081   3.089   1.183 -0.1814 -1.2224 -0.1797
    6MOL   C318 3428   1.950   3.162   1.150 -0.1190  0.1004 -0.6506
    6MOL   C319 3429   1.878   3.080   1.041 -0.0924 -0.1343 -0.4462
    6MOL   C320 3430   1.732   3.115   1.036 -0.1152  0.5414  0.4990
    6MOL   C321 3431   1.659   3.066   0.918 -0.0697  0.3621 -0.4618
    6MOL   C322 3432   2.312   3.313   1.706 -0.3448 -0.2558 -0.2830
    6MOL   H323 3433   2.349   3.084   1.667  0.2643  0.1468  2.0169
    6MOL   H324 3434   2.305   3.007   1.467  0.3563  0.0807 -0.5093
    6MOL   H325 3435   2.465   3.040   1.428  0.2056  0.3018  1.3879
    6MOL   H326 3436   2.327   3.037   1.219  0.0548 -0.4512  1.2139
    6MOL   H327 3437   2.384   3.203   1.249  0.2080 -0.1283  0.4293
    6MOL   H328 3438   2.115   3.157   1.383 -0.1610  2.1839 -0.7044
    6MOL   H329 3439   2.154   3.268   1.258 -0.5522  0.1405  2.1518
    6MOL   H330 3440   2.145   3.082   1.096 -1.7351  0.4080 -1.5039
    6MOL   H331 3441   2.064   2.984   1.207 -0.4138 -1.6275 -2.0378
    6MOL   H332 3442   1.890   3.192   1.236  2.8437  0.3177  1.4336
    6MOL   H333 3443   1.984   3.253   1.100  3.0568 -1.2479 -1.0578
    6MOL   H334 3444   1.872   2.975   1.070  0.3935 -0.2762 -0.8391
    6MOL   H335 3445   1.935   3.088   0.948  0.2631  1.9089 -0.0521
    6MOL   H336 3446   1.675   3.096   1.127  0.8349 -0.2215  0.9326
    6MOL   H337 3447   1.729   3.224   1.029  4.1421  0.6983  0.1212
    6MOL   H338 3448   1.669   2.958   0.905  1.2778  0.2943  0.9570
    6MOL   H339 3449   1.703   3.109   0.828 -2.6328  0.5547 -1.6673
    6MOL   H340 3450   1.554   3.097   0.915 -0.8050 -1.9789 -0.0449
    6MOL   H341 3451   2.207   3.301   1.681  0.3276 -4.6218 -1.3756
    6MOL   H342 3452   2.310   3.302   1.815 -0.5149 -0.0038 -0.2592
    6MOL   C343 3453   2.355   3.453   1.651 -0.3987 -0.1800 -0.0900
    6MOL   O344 3454   2.489   3.495   1.687 -0.0735  0.1368 -0.2110
    6MOL   C345 3455   2.555   3.566   1.582  0.1454  0.0205  0.2713
    6MOL   C346 3456   2.678   3.616   1.655 -0.6489  0.2268  0.3272
    6MOL   C347 3457   2.647   3.672   1.797  0.2674  0.6162 -0.0677
    6MOL   C348 3458   2.770   3.728   1.876 -0.1754 -0.0423  0.0716
    6MOL   C349 3459   2.858   3.848   1.816  0.1833  0.1403  1.0156
    6MOL   C350 3460   2.974   3.883   1.903 -0.5853 -0.4393 -0.1092
    6MOL   C351 3461   3.052   3.998   1.847 -0.0070 -0.0119 -0.0486
    6MOL   C352 3462   3.171   4.042   1.935 -0.6095  0.3391  0.5685
    6MOL   C353 3463   2.263   3.563   1.713 -0.4025 -0.2122 -0.1854
    6MOL   H354 3464   2.339   3.451   1.544  1.6607 -1.7363 -0.3958
    6MOL   H355 3465   2.480   3.637   1.547 -0.5432 -1.0359 -0.4371
    6MOL   H356 3466   2.573   3.494   1.502  0.8583 -1.0065  1.3336
    6MOL   H357 3467   2.729   3.692   1.596 -1.1476  1.1868  1.1192
    6MOL   H358 3468   2.750   3.535   1.669 -1.7030 -0.4699  1.7834
    6MOL   H359 3469   2.561   3.739   1.802  0.4028  0.8277 -0.5787
    6MOL   H360 3470   2.604   3.586   1.849  0.0859 -0.6373 -2.2370
    6MOL   H361 3471   2.739   3.759   1.976  1.7817  1.0366  0.3789
    6MOL   H362 3472   2.837   3.648   1.906  0.1618 -1.1399 -3.4106
    6MOL   H363 3473   2.916   3.799   1.738  0.1082  0.0795  0.9979
    6MOL   H364 3474   2.803   3.932   1.771  2.1419 -0.0589 -1.8962
    6MOL   H365 3475   3.041   3.798   1.917  0.7332  0.3418 -1.4722
    6MOL   H366 3476   2.948   3.903   2.007 -0.0953  0.4874 -0.1558
    6MOL   H367 3477   3.096   3.948   1.761  1.3286  0.9370  0.0742
    6MOL   H368 3478   2.988   4.085   1.834  1.2802  1.3623  2.4982
    6MOL   H369 3479   3.244   3.961   1.942  0.0016  0.8870  0.6451
    6MOL   H370 3480   3.142   4.091   2.028 -0.5681 -0.5895  1.0771
    6MOL   H371 3481   3.228   4.117   1.880 -1.6092 -0.4409 -1.6008
    6MOL   H372 3482   2.288   3.558   1.819  2.7760  1.1185 -0.8114
    6MOL   H373 3483   2.303   3.659   1.682 -1.5510  0.8221  1.4378
    6MOL   C374 3484   2.112   3.556   1.701 -0.2104  0.7104 -0.0401
    6MOL   O375 3485   2.083   3.602   1.569 -0.0579 -0.1731  0.8544
    6MOL   C376 3486   2.050   3.501   1.473 -0.4996 -0.1982 -0.4700
    6MOL   C377 3487   2.063   3.557   1.335  0.4028 -0.2110 -0.3839
    6MOL   C378 3488   2.214   3.568   1.284 -0.0616  0.0123 -0.9229
    6MOL   C379 3489   2.214   3.635   1.145  0.5869 -0.1962  0.2285
    6MOL   C380 3490   2.346   3.637   1.075 -1.1276 -0.2164  0.0919
    6MOL   C381 3491   2.472   3.677   1.163  1.1564 -0.0233 -0.5510
    6MOL   C382 3492   2.598   3.691   1.074  0.2759  0.2259 -0.0612
    6MOL   C383 3493   2.719   3.735   1.144 -0.4736  0.2948  0.1238
    6MOL   C384 3494   2.032   3.641   1.799  0.0892  0.5224  0.0534
    6MOL   H385 3495   2.072   3.455   1.715 -0.6154  0.9092  0.2441
    6MOL   H386 3496   1.946   3.469   1.482  0.3542 -2.9617  0.1237
    6MOL   H387 3497   2.113   3.414   1.490  1.4709  1.3427  0.2340
    6MOL   H388 3498   2.027   3.659   1.336  2.1679  0.4282  0.2419
    6MOL   H389 3499   2.012   3.485   1.270  1.5291 -0.4904 -0.9780
    6MOL   H390 3500   2.271   3.632   1.352  1.6122 -2.7079  0.3139
    6MOL   H391 3501   2.267   3.473   1.272  0.6307  0.3295 -0.4151
    6MOL   H392 3502   2.149   3.575   1.080 -1.9654  1.8395  0.8161
    6MOL   H393 3503   2.179   3.738   1.153  1.3866  0.2662 -1.9343
    6MOL   H394 3504   2.375   3.542   1.031  0.8613  0.8179 -0.9057
    6MOL   H395 3505   2.340   3.713   0.998 -2.0442  0.1979  0.5745
    6MOL   H396 3506   2.482   3.599   1.238 -3.2828 -1.1621 -1.0254
    6MOL   H397 3507   2.444   3.766   1.219 -2.9319 -1.0913 -0.7630
    6MOL   H398 3508   2.617   3.606   1.009  1.2909  0.9877 -0.7705
    6MOL   H399 3509   2.578   3.770   1.002  0.7852 -0.4581 -0.9605
    6MOL   H400 3510   2.713   3.841   1.171 -1.9128  0.1410  0.4651
    6MOL   H401 3511   2.807   3.720   1.082 -1.3159  0.2641 -1.0694
    6MOL   H402 3512   2.745   3.676   1.232 -1.2883  2.0392  1.5672
    6MOL   H403 3513   2.084   3.737   1.792 -0.8842  1.4834  4.2669
    6MOL   H404 3514   1.932   3.663   1.762 -0.6395 -1.3306  0.8705
    6MOL   C405 3515   2.022   3.584   1.946  0.0418 -0.1826  0.1113
    6MOL   O406 3516   1.934   3.478   1.942 -0.2890 -0.1097 -0.2697
    6MOL   C407 3517   1.985   3.354   1.990  0.1500 -0.3059 -0.8830
    6MOL   C408 3518   1.908   3.240   1.935  0.4400  0.3351 -0.2940
    6MOL   C409 3519   1.963   3.199   1.798  0.2076  0.1142  0.6475
    6MOL   C410 3520   1.904   3.072   1.743 -0.0984  0.6160 -1.3551
    6MOL   C411 3521   1.953   3.043   1.596  0.4194  0.8309 -0.1214
    6MOL   C412 3522   1.898   2.909   1.531 -0.3608  0.1159  0.0057
    6MOL   C413 3523   1.738   2.903   1.530  0.0185  0.0421  0.1573
    6MOL   C414 3524   1.674   2.811   1.426  0.3091 -0.4228 -0.5171
    6MOL   C415 3525   1.972   3.682   2.053  0.0520  0.9507 -0.4604
    6MOL   H416 3526   2.124   3.552   1.969  0.3358 -0.6940 -1.8219
    6MOL   H417 3527   1.968   3.349   2.098 -2.8028  1.2177 -1.2424
    6MOL   H418 3528   2.088   3.326   1.966  0.6086 -0.2803  0.9775
    6MOL   H419 3529   1.804   3.272   1.931  0.7278  1.0618 -2.5976
    6MOL   H420 3530   1.926   3.156   2.003 -1.4803  0.4006  0.3366
    6MOL   H421 3531   1.930   3.291   1.748 -0.1311 -0.1879  0.3099
    6MOL   H422 3532   2.069   3.181   1.785  0.3948  2.1936 -0.9354
    6MOL   H423 3533   1.928   2.986   1.806  1.1345  1.5375 -0.5298
    6MOL   H424 3534   1.796   3.083   1.746 -0.3671 -1.9809 -0.4528
    6MOL   H425 3535   1.903   3.120   1.537  0.6050  1.4994  0.5871
    6MOL   H426 3536   2.062   3.047   1.587  0.4943  2.6169  1.2802
    6MOL   H427 3537   1.944   2.822   1.576  0.0595 -0.1159 -0.8571
    6MOL   H428 3538   1.912   2.910   1.423 -1.4849 -1.2177 -0.1665
    6MOL   H429 3539   1.709   2.864   1.628  0.5240 -0.0375  0.2760
    6MOL   H430 3540   1.713   3.009   1.523  1.9449  0.5501  0.7848
    6MOL   H431 3541   1.567   2.815   1.445  0.5322 -0.9067  0.8118
    6MOL   H432 3542   1.716   2.711   1.431  1.6982  0.0913 -1.2968
    6MOL   H433 3543   1.693   2.848   1.325 -1.6762  1.3594 -0.2593
    6MOL   H434 3544   1.875   3.722   2.023 -0.6204 -2.1693 -2.7103
    6MOL   H435 3545   1.951   3.632   2.148 -1.4272  3.1584  0.3958
    6MOL   C436 3546   2.064   3.805   2.067 -0.3404 -0.0056 -0.8448
    6MOL   O437 3547   2.182   3.741   2.121  0.0728 -0.2113 -0.2760
    6MOL   C438 3548   2.301   3.799   2.083  0.7887 -1.0410 -0.0159
    6MOL   C439 3549   2.408   3.724   2.172  0.4274  0.0834  0.6627
    6MOL   C440 3550   2.356   3.621   2.278 -0.6641  0.0664  0.7144
    6MOL   C441 3551   2.324   3.489   2.216  0.4674 -0.0669  0.8201
    6MOL   C442 3552   2.285   3.390   2.321 -0.0607  0.2844  0.2158
    6MOL   C443 3553   2.234   3.250   2.258  0.0686 -0.0543  0.6861
    6MOL   C444 3554   2.143   3.170   2.351 -0.1672  0.1865 -0.5941
    6MOL   C445 3555   2.051   3.060   2.292  0.0453  0.4681  0.3203
    6MOL   C446 3556   2.023   3.906   2.181  0.6602  0.1286 -0.3457
    6MOL   H447 3557   2.104   3.855   1.978 -1.2383 -0.9975 -1.8209
    6MOL   H448 3558   2.318   3.798   1.976 -0.0357  0.3291 -0.1751
    6MOL   H449 3559   2.308   3.905   2.110  1.8792 -0.8594 -0.9726
    6MOL   H450 3560   2.471   3.802   2.214  0.8604  0.0956  0.0082
    6MOL   H451 3561   2.484   3.675   2.111  0.1985  3.0410 -2.1490
    6MOL   H452 3562   2.430   3.609   2.357 -0.6424 -2.7946  0.3342
    6MOL   H453 3563   2.276   3.654   2.343 -1.2408  2.1281 -0.9853
    6MOL   H454 3564   2.248   3.505   2.140 -1.3044 -0.9483  2.3620
    6MOL   H455 3565   2.411   3.459   2.158 -0.3203  0.0004 -0.4226
    6MOL   H456 3566   2.371   3.369   2.384 -1.1966  0.7426  1.9698
    6MOL   H457 3567   2.202   3.431   2.378  0.6238  1.3048  0.4809
    6MOL   H458 3568   2.322   3.190   2.234  1.5350  3.0744 -2.0845
    6MOL   H459 3569   2.182   3.269   2.165  0.4567  1.1504  0.6970
    6MOL   H460 3570   2.205   3.129   2.430 -1.2836 -2.9847 -1.2903
    6MOL   H461 3571   2.067   3.227   2.405  0.7178 -1.5192  2.5520
    6MOL   H462 3572   2.113   2.985   2.243 -1.3891 -0.3342 -0.2781
    6MOL   H463 3573   1.985   3.104   2.218 -1.6151 -0.5526  1.1778
    6MOL   H464 3574   1.987   3.017   2.369  0.3817  1.4904  1.1868
    6MOL   H465 3575   2.053   3.867   2.279  0.2684  0.9411  0.0999
    6MOL   H466 3576   2.081   3.996   2.162  0.2738  0.5421  0.4221
    6MOL   C467 3577   1.880   3.962   2.180 -0.2437  0.2855 -0.7497
    6MOL   O468 3578   1.865   4.042   2.058 -0.7498  0.0258 -0.9913
    6MOL   C469 3579   1.724   4.064   2.028  0.2768 -0.0669  0.0077
    6MOL   C470 3580   1.716   4.110   1.879  0.5468  0.3774 -0.1043
    6MOL   C471 3581   1.775   4.007   1.775 -0.2257  0.0415 -0.7461
    6MOL   C472 3582   1.701   3.878   1.749  0.0817  0.3683 -0.0223
    6MOL   C473 3583   1.752   3.814   1.619  0.1866  0.2392 -0.0667
    6MOL   C474 3584   1.677   3.681   1.587  0.0757  0.1438 -0.8189
    6MOL   C475 3585   1.698   3.634   1.445  0.7938 -0.4195 -0.3969
    6MOL   C476 3586   1.649   3.492   1.419 -0.0569  0.1470  0.9531
    6MOL   C477 3587   1.862   4.053   2.306 -0.5386  0.4207  0.8679
    6MOL   H478 3588   1.812   3.876   2.188 -2.3129  1.6644 -2.9070
    6MOL   H479 3589   1.688   4.142   2.095 -3.3591 -1.8323  0.2383
    6MOL   H480 3590   1.673   3.971   2.054  3.0213 -1.6745 -0.1809
    6MOL   H481 3591   1.777   4.200   1.873  0.7036  0.1941 -1.3490
    6MOL   H482 3592   1.613   4.130   1.853  0.3678  1.1290  1.1260
    6MOL   H483 3593   1.783   4.057   1.679  2.9134  1.3230  0.1113
    6MOL   H484 3594   1.880   3.988   1.796 -0.3613 -1.6954 -1.5862
    6MOL   H485 3595   1.712   3.809   1.833 -0.3474 -0.8749 -0.9557
    6MOL   H486 3596   1.595   3.892   1.728  0.1106 -0.5703 -0.8694
    6MOL   H487 3597   1.736   3.884   1.537  2.1184  2.0625  1.0590
    6MOL   H488 3598   1.859   3.793   1.614  0.5903  2.4575 -1.2480
    6MOL   H489 3599   1.569   3.698   1.595  0.5692  3.2144 -0.2890
    6MOL   H490 3600   1.691   3.606   1.664  1.3501  0.2901 -0.9066
    6MOL   H491 3601   1.667   3.694   1.360 -0.3122 -1.4021 -0.7095
    6MOL   H492 3602   1.802   3.620   1.417  0.2830 -1.1560 -2.0089
    6MOL   H493 3603   1.541   3.480   1.431 -0.2490  0.1318 -0.5944
    6MOL   H494 3604   1.686   3.433   1.503  0.6229 -2.1012 -0.8647
    6MOL   H495 3605   1.674   3.451   1.321 -1.5456  0.5258  0.3975
    6MOL   H496 3606   1.947   4.119   2.323  0.4208 -0.2322 -1.1989
    6MOL   H497 3607   1.784   4.126   2.282  0.6992  0.9827 -1.6406
    6MOL   C498 3608   1.818   3.975   2.434 -0.4836  0.3333  0.4763
    6MOL   O499 3609   1.680   3.932   2.426 -0.7245 -0.3497  0.2655
    6MOL   C500 3610   1.663   3.788   2.418 -0.0970  0.4196  0.3740
    6MOL   C501 3611   1.517   3.751   2.397 -0.7050 -0.2444 -0.4986
    6MOL   C502 3612   1.473   3.748   2.251 -0.0331 -0.2888 -0.9185
    6MOL   C503 3613   1.525   3.635   2.160  0.3789 -0.3486  0.7303
    6MOL   C504 3614   1.484   3.654   2.013 -0.0605  0.4875  0.0024
    6MOL   C505 3615   1.556   3.557   1.917  0.2655 -0.3481 -0.1187
    6MOL   C506 3616   1.550   3.406   1.943  0.1389  0.0299  0.0415
    6MOL   C507 3617   1.572   3.313   1.822 -0.3463 -0.4049  0.1069
    6MOL   C508 3618   1.826   4.071   2.554  0.0164 -0.7689  1.1085
    6MOL   H509 3619   1.894   3.901   2.459  1.3713  2.3300  0.8484
    6MOL   H510 3620   1.690   3.759   2.520  0.7396  2.7092  0.8267
    6MOL   H511 3621   1.737   3.750   2.348 -2.0701 -0.5697 -1.2074
    6MOL   H512 3622   1.458   3.818   2.459  0.0530  0.3872 -0.4358
    6MOL   H513 3623   1.501   3.648   2.429  2.2682 -1.4757 -2.6598
    6MOL   H514 3624   1.365   3.743   2.258 -0.0910  1.0250 -0.7737
    6MOL   H515 3625   1.492   3.850   2.218  0.4931 -0.1862 -0.3119
    6MOL   H516 3626   1.634   3.636   2.163  0.3720  0.7060  0.8247
    6MOL   H517 3627   1.477   3.543   2.192 -2.1323 -1.0190 -4.4467
    6MOL   H518 3628   1.376   3.658   2.000 -0.2230  0.3192  1.2162
    6MOL   H519 3629   1.521   3.752   1.983  0.2820  0.7007  1.0825
    6MOL   H520 3630   1.658   3.595   1.910  0.0794  0.6026  2.0726
    6MOL   H521 3631   1.517   3.580   1.818 -1.8349 -2.7379  0.0890
    6MOL   H522 3632   1.622   3.374   2.018 -0.1503 -0.0806  0.2760
    6MOL   H523 3633   1.467   3.360   1.996  0.8751  0.0427  1.2195
    6MOL   H524 3634   1.599   3.212   1.855  1.6630  0.1607  0.2871
    6MOL   H525 3635   1.664   3.347   1.774 -0.2408  0.9803  1.2804
    6MOL   H526 3636   1.496   3.301   1.745 -0.5431  1.6670 -0.0493
    6MOL   H527 3637   1.922   4.123   2.551 -1.6453  2.4222  0.7335
    6MOL   H528 3638   1.750   4.149   2.543  0.0665 -0.7659  0.7570
    6MOL   C529 3639   1.810   4.001   2.691  0.5795 -0.4461 -0.1424
    6MOL   O530 3640   1.773   4.097   2.793 -0.0949 -0.3567 -0.0449
    6MOL   C531 3641   1.631   4.105   2.804  0.1064 -0.1595 -0.0054
    6MOL   C532 3642   1.574   4.208   2.906  0.1390 -0.1986  0.2617
    6MOL   C533 3643   1.631   4.350   2.898 -0.0766  0.1238 -0.0361
    6MOL   C534 3644   1.592   4.438   2.779 -0.4879  0.1503 -0.5861
    6MOL   C535 3645   1.643   4.587   2.797  0.1071 -0.1733  0.1904
    6MOL   C536 3646   1.576   4.688   2.712  0.3277  0.0036  0.5630
    6MOL   C537 3647   1.619   4.832   2.743 -0.3206 -0.5936 -0.2404
    6MOL   C538 3648   1.575   4.933   2.633 -0.1770 -0.3126 -1.0110
    6MOL   C539 3649   1.951   3.953   2.729 -0.1032 -0.2238 -0.3573
    6MOL   H540 3650   1.731   3.926   2.692  1.2066 -1.1133 -0.3632
    6MOL   H541 3651   1.587   4.109   2.705 -1.0830 -4.4526  0.2324
    6MOL   H542 3652   1.589   4.009   2.835 -1.6777  1.2388  2.0889
    6MOL   H543 3653   1.600   4.180   3.008 -2.0396  1.8859  1.4438
    6MOL   H544 3654   1.466   4.219   2.894  0.3869  1.2685 -0.7604
    6MOL   H545 3655   1.599   4.411   2.982 -0.9558 -0.1730 -0.1518
    6MOL   H546 3656   1.740   4.351   2.907 -0.2629  1.1770  2.1849
    6MOL   H547 3657   1.641   4.397   2.690  2.3717  0.9602  0.5666
    6MOL   H548 3658   1.485   4.436   2.761 -1.0151 -0.6101  2.3662
    6MOL   H549 3659   1.624   4.620   2.899 -0.1680  0.0466  0.0672
    6MOL   H550 3660   1.752   4.584   2.797  0.1128 -0.1838  1.2481
    6MOL   H551 3661   1.472   4.693   2.743 -0.1006 -1.6493 -0.5327
    6MOL   H552 3662   1.577   4.670   2.604 -1.6731 -0.7792  0.6602
    6MOL   H553 3663   1.571   4.865   2.835 -0.4676  0.6577 -0.7481
    6MOL   H554 3664   1.727   4.833   2.755 -0.4697 -0.9763  1.1914
    6MOL   H555 3665   1.625   5.029   2.649 -2.9898  0.8746  1.0386
    6MOL   H556 3666   1.466   4.940   2.633 -0.0526  2.4133 -1.6094
    6MOL   H557 3667   1.606   4.893   2.536  0.4296  0.1951 -1.0271
    6MOL   H558 3668   2.019   3.959   2.644  1.4377 -0.1522  0.8533
    6MOL   H559 3669   1.994   4.030   2.794 -1.0786 -0.8746  1.0817
    6MOL   C560 3670   1.955   3.822   2.804 -0.2739  0.3856 -0.2002
    6MOL   O561 3671   1.903   3.720   2.710  0.3653  0.8634 -0.1487
    6MOL   C562 3672   2.007   3.653   2.635  0.4333  0.0175 -0.0789
    6MOL   C563 3673   1.949   3.586   2.514  0.3502  0.0965  0.8145
    6MOL   C564 3674   1.854   3.468   2.542  0.7438 -0.0599  0.4243
    6MOL   C565 3675   1.776   3.415   2.420  0.4269 -0.1052 -0.3091
    6MOL   C566 3676   1.724   3.268   2.432 -0.0790 -0.1190 -0.0182
    6MOL   C567 3677   1.625   3.229   2.328 -0.2046  0.1895 -0.0309
    6MOL   C568 3678   1.610   3.075   2.314 -0.1260 -0.2206 -0.3983
    6MOL   C569 3679   1.486   3.035   2.232  0.9087 -0.1344 -0.0945
    6MOL   C570 3680   1.875   3.798   2.927 -0.0531  0.5782  0.6290
    6MOL   H571 3681   2.059   3.796   2.827 -0.4083  0.3136  0.3226
    6MOL   H572 3682   2.062   3.585   2.699 -0.6035 -0.8321 -0.0689
    6MOL   H573 3683   2.078   3.724   2.593  2.0858 -1.7114 -0.2634
    6MOL   H574 3684   2.033   3.564   2.448 -0.1729 -1.8511  0.7774
    6MOL   H575 3685   1.891   3.656   2.454  3.1927  2.2311  0.4458
    6MOL   H576 3686   1.894   3.392   2.608 -2.6937  0.4566  3.2673
    6MOL   H577 3687   1.781   3.516   2.607  2.1025  0.4465  1.5866
    6MOL   H578 3688   1.685   3.474   2.422 -0.1407 -0.9994  0.5163
    6MOL   H579 3689   1.834   3.429   2.329  2.2445  1.6686  1.0548
    6MOL   H580 3690   1.803   3.196   2.415 -0.7662 -0.9168  0.1528
    6MOL   H581 3691   1.677   3.261   2.530 -1.6231 -1.4853 -0.8344
    6MOL   H582 3692   1.659   3.277   2.237  1.8710  0.0484  0.6161
    6MOL   H583 3693   1.530   3.270   2.361  0.7173  2.3387  0.0694
    6MOL   H584 3694   1.704   3.033   2.280 -0.0879  0.1226 -0.7280
    6MOL   H585 3695   1.609   3.021   2.408 -1.5305 -1.6450 -1.2029
    6MOL   H586 3696   1.477   2.928   2.217  0.7337  0.1553 -2.3085
    6MOL   H587 3697   1.493   3.072   2.129 -0.2092  0.2026 -0.0536
    6MOL   H588 3698   1.399   3.078   2.282  2.0125  1.6306  0.3859
    6MOL   H589 3699   1.768   3.812   2.917 -0.0641  0.5425  0.6954
    6MOL   H590 3700   1.890   3.692   2.945  0.7879  0.2905 -1.6277
    6MOL   C591 3701   1.912   3.888   3.041  0.8999 -1.0098 -0.1738
    6MOL   O592 3702   2.053   3.871   3.064 -1.0743  0.0087 -0.1449
    6MOL   C593 3703   2.114   3.967   3.149 -0.4016 -1.0743 -0.1757
    6MOL   C594 3704   2.267   3.944   3.171 -1.2736  0.9788 -0.3769
    6MOL   C595 3705   2.301   3.801   3.219 -0.6933  0.2271  0.2072
    6MOL   C596 3706   2.451   3.771   3.253 -0.2222 -0.8390 -0.6249
    6MOL   C597 3707   2.488   3.842   3.385 -0.0224  0.0920 -0.3874
    6MOL   C598 3708   2.622   3.791   3.429 -0.6746  0.0211  0.1449
    6MOL   C599 3709   2.676   3.879   3.544 -0.0948 -0.5526  0.0496
    6MOL   C600 3710   2.821   3.847   3.588 -0.1193  0.4161  0.1340
    6MOL   C601 3711   1.825   3.849   3.164 -0.3722 -0.0203  0.2964
    6MOL   H602 3712   1.893   3.991   3.013  5.0607 -0.4189 -1.0521
    6MOL   H603 3713   2.065   3.963   3.246 -0.1066  2.1338  0.1553
    6MOL   H604 3714   2.092   4.068   3.115 -3.1896 -2.2338 -1.9993
    6MOL   H605 3715   2.311   4.022   3.233  1.9499  0.0085 -1.3263
    6MOL   H606 3716   2.312   3.954   3.072  2.8471 -0.0081  1.2992
    6MOL   H607 3717   2.244   3.781   3.309 -0.8240 -1.0737 -0.1450
    6MOL   H608 3718   2.266   3.729   3.144  0.9439 -1.3209  0.8741
    6MOL   H609 3719   2.468   3.663   3.258 -0.9450 -1.0403 -2.2299
    6MOL   H610 3720   2.517   3.804   3.172  0.7685 -1.6073 -0.1449
    6MOL   H611 3721   2.491   3.950   3.372  1.5089 -0.0772 -1.5932
    6MOL   H612 3722   2.408   3.815   3.455  0.4130  1.0164  0.4779
    6MOL   H613 3723   2.702   3.790   3.355  0.5496 -1.8411  1.4273
    6MOL   H614 3724   2.615   3.685   3.451  1.0922  0.1312  1.3502
    6MOL   H615 3725   2.693   3.986   3.531 -2.9491 -0.0298  0.4273
    6MOL   H616 3726   2.599   3.867   3.620 -0.3449  0.2260 -0.0781
    6MOL   H617 3727   2.890   3.872   3.508  0.0659  1.0317  0.4793
    6MOL   H618 3728   2.830   3.740   3.609 -1.4754  0.4044  0.7047
    6MOL   H619 3729   2.857   3.903   3.674 -0.4308  1.2797 -0.2859
    6MOL   H620 3730   1.859   3.884   3.262 -0.1865 -0.1127  0.2646
    6MOL   H621 3731   1.727   3.889   3.137  0.8669  2.1605 -1.0387
    6MOL   H622 3732   1.810   3.741   3.173 -2.4693  0.3631  1.9443
    7MOL     C1 3733   1.471   0.155   5.980  1.1158 -0.7893  0.4293
    7MOL     O2 3734   1.475   0.288   5.926 -0.2470 -0.6733 -0.6959
    7MOL     C3 3735   1.372   0.335   5.843 -0.0293 -0.0407 -0.2864
    7MOL     C4 3736   1.326   0.475   5.895 -0.9678  0.5628  0.2140
    7MOL     C5 3737   1.446   0.571   5.898  0.2031  0.0310 -0.1685
    7MOL     C6 3738   1.395   0.722   5.894  0.1199  0.2343  0.0309
    7MOL     C7 3739   1.497   0.823   5.945 -0.2571  0.1059 -0.6429
    7MOL     C8 3740   1.438   0.963   5.945  0.8399  0.8351  0.4442
    7MOL     C9 3741   1.539   1.068   6.009  0.5431  0.7711 -0.4877
    7MOL    C10 3742   1.508   1.210   5.964  0.2693 -0.1664 -0.3631
    7MOL    C11 3743   1.558   0.040   5.919  0.3307  0.2851 -0.2928
    7MOL    H12 3744   1.495   0.173   6.085  0.8886  2.7393 -0.0475
    7MOL    H13 3745   1.285   0.270   5.836 -0.3217  0.0825  1.9758
    7MOL    H14 3746   1.425   0.344   5.748 -0.4894 -1.9279 -0.7512
    7MOL    H15 3747   1.266   0.470   5.986 -1.9317 -1.5925 -0.5172
    7MOL    H16 3748   1.265   0.494   5.807  0.3449 -2.2184 -1.3472
    7MOL    H17 3749   1.508   0.545   5.984 -1.2622  2.3615  1.6515
    7MOL    H18 3750   1.505   0.555   5.808  0.2141  1.3219 -0.3990
    7MOL    H19 3751   1.367   0.741   5.790  0.2836  0.5399  0.0406
    7MOL    H20 3752   1.313   0.736   5.964 -1.7682 -2.6648 -1.5133
    7MOL    H21 3753   1.502   0.784   6.047 -2.9297  0.2204 -0.4265
    7MOL    H22 3754   1.594   0.823   5.896  0.4038 -0.9891  0.6199
    7MOL    H23 3755   1.351   0.976   6.010  1.4836 -2.8908  2.1829
    7MOL    H24 3756   1.401   0.992   5.847 -3.2328  2.1250  2.2388
    7MOL    H25 3757   1.525   1.057   6.117  0.7667 -1.1270 -0.6357
    7MOL    H26 3758   1.641   1.036   5.989  0.8001 -0.3023  2.3281
    7MOL    H27 3759   1.404   1.244   5.969 -0.1969 -1.2739 -2.3225
    7MOL    H28 3760   1.545   1.231   5.864 -0.7456 -0.5525 -0.8257
    7MOL    H29 3761   1.582   1.270   6.017 -0.2178 -1.7385  2.1987
    7MOL    H30 3762   1.531   7.726   5.977  2.1667 -0.2596 -0.2309
    7MOL    H31 3763   1.516   0.014   5.822  0.5491 -0.9555 -0.0592
    7MOL    H32 3764   1.364   0.137   5.989  0.6374  0.8163 -1.5876
    7MOL    C33 3765   1.709   0.066   5.926  0.2947 -0.5536  0.0351
    7MOL    O34 3766   1.748   0.167   5.829  0.4464  0.1883  0.0612
    7MOL    C35 3767   1.851   0.257   5.873  0.3886  0.7978  0.4318
    7MOL    C36 3768   1.907   0.337   5.759  0.4347  0.7907  0.2557
    7MOL    C37 3769   1.793   0.432   5.701 -0.2134 -0.6564 -0.1640
    7MOL    C38 3770   1.824   0.499   5.557  0.3169 -0.6277  0.2015
    7MOL    C39 3771   1.719   0.590   5.504 -0.0946  0.8561 -0.3418
    7MOL    C40 3772   1.582   0.520   5.459  0.4595 -0.4499  0.2046
    7MOL    C41 3773   1.464   0.618   5.447  0.2515  0.1000 -0.0886
    7MOL    C42 3774   1.339   0.533   5.419 -0.4661 -0.4100 -0.3796
    7MOL    C43 3775   1.799   7.717   5.904  0.2005 -0.0922 -0.2734
    7MOL    H44 3776   1.723   0.106   6.026  0.7520 -0.5160 -0.0433
    7MOL    H45 3777   1.929   0.197   5.920  1.9507  2.2444 -0.2585
    7MOL    H46 3778   1.816   0.327   5.949 -2.2216  0.4620 -0.4050
    7MOL    H47 3779   1.939   0.274   5.677  0.8250 -2.1861  2.6070
    7MOL    H48 3780   1.985   0.407   5.791 -0.4243  1.3971  1.0556
    7MOL    H49 3781   1.699   0.378   5.710 -1.1044  0.7119 -1.0971
    7MOL    H50 3782   1.799   0.514   5.772 -0.5999 -2.0859  1.5429
    7MOL    H51 3783   1.910   0.565   5.567  0.7150 -1.0401 -0.4436
    7MOL    H52 3784   1.845   0.423   5.482 -1.0875  0.2828 -1.1368
    7MOL    H53 3785   1.700   0.664   5.582 -1.4328  2.6322 -2.2784
    7MOL    H54 3786   1.767   0.645   5.424  2.2098 -1.3595 -0.5347
    7MOL    H55 3787   1.557   0.436   5.524  0.9579 -0.1159  0.8240
    7MOL    H56 3788   1.602   0.477   5.361 -0.1176  2.8350 -1.4285
    7MOL    H57 3789   1.440   0.659   5.545  1.4805 -0.2649  0.3763
    7MOL    H58 3790   1.484   0.696   5.374  3.7383 -1.1435 -0.5525
    7MOL    H59 3791   1.250   0.596   5.428  0.5755  0.7929  2.2117
    7MOL    H60 3792   1.328   0.470   5.508 -0.1399 -0.1961 -0.1825
    7MOL    H61 3793   1.348   0.475   5.328  2.4003 -1.4558  0.5104
    7MOL    H62 3794   1.771   7.665   5.813  0.7518  0.5287 -0.8055
    7MOL    H63 3795   1.902   7.746   5.884  0.4683 -0.3250  0.7147
    7MOL    C64 3796   1.788   7.618   6.022  0.1005 -0.4886  0.2795
    7MOL    O65 3797   1.857   7.667   6.132 -0.2918  0.4594 -0.4249
    7MOL    C66 3798   1.788   7.702   6.245 -0.1372 -0.5500  0.0023
    7MOL    C67 3799   1.887   7.771   6.345 -0.3008  0.4001  0.2036
    7MOL    C68 3800   1.968   0.116   6.280  0.6841  0.8006 -0.9788
    7MOL    C69 3801   2.087   0.166   6.360  0.5953 -0.3155 -0.4763
    7MOL    C70 3802   2.174   0.270   6.288  0.0635  0.8954  0.3338
    7MOL    C71 3803   2.293   0.320   6.368 -0.3165  0.1822  0.5749
    7MOL    C72 3804   2.346   0.458   6.322 -0.0273 -0.3093 -0.2117
    7MOL    C73 3805   2.475   0.513   6.393  0.0505  0.3400  0.4861
    7MOL    C74 3806   1.840   7.482   5.979 -0.3375  0.7129  0.3557
    7MOL    H75 3807   1.686   7.600   6.054 -0.0271  1.0698  0.8187
    7MOL    H76 3808   1.728   7.619   6.285  1.1875 -1.4137  0.2129
    7MOL    H77 3809   1.714   0.005   6.223  0.4253  0.0885  0.3586
    7MOL    H78 3810   1.953   7.691   6.376 -3.1218 -2.1294 -0.1103
    7MOL    H79 3811   1.843   0.039   6.436  1.7556 -1.5941  2.1976
    7MOL    H80 3812   2.013   0.082   6.186  1.3258  2.1513 -1.1717
    7MOL    H81 3813   1.910   0.198   6.238  1.6528  1.7896 -0.4297
    7MOL    H82 3814   2.049   0.210   6.452  1.1125 -0.4838 -0.1768
    7MOL    H83 3815   2.152   0.090   6.404 -0.1503 -1.6919 -1.7586
    7MOL    H84 3816   2.198   0.222   6.193  3.2235 -1.5573  2.2463
    7MOL    H85 3817   2.106   0.352   6.264  1.4625  1.7574 -0.7882
    7MOL    H86 3818   2.370   0.243   6.377 -0.5923 -0.4244 -1.9712
    7MOL    H87 3819   2.245   0.327   6.466 -0.4475  0.9291  0.4603
    7MOL    H88 3820   2.390   0.463   6.223 -0.2905  0.2239 -0.3054
    7MOL    H89 3821   2.275   0.541   6.320  0.1595 -0.1718 -1.0536
    7MOL    H90 3822   2.567   0.455   6.396 -0.4314 -0.6099 -1.6292
    7MOL    H91 3823   2.454   0.540   6.496 -2.6504  0.4103 -0.0582
    7MOL    H92 3824   2.493   0.610   6.344 -0.1617  0.4260  0.5788
    7MOL    H93 3825   1.922   7.500   5.909 -0.1706 -0.8658  0.1306
    7MOL    H94 3826   1.877   7.427   6.065  0.2062 -0.1710 -0.4406
    7MOL    C95 3827   1.735   7.400   5.896 -0.6092  0.3422  0.1453
    7MOL    O96 3828   1.630   7.360   5.973  0.3169  0.0092 -0.4662
    7MOL    C97 3829   1.507   7.338   5.902 -0.3544 -0.1019  0.4052
    7MOL    C98 3830   1.412   7.247   5.978  0.1216  0.0264 -1.0416
    7MOL    C99 3831   1.277   7.226   5.913 -0.9216 -0.4812 -0.2797
    7MOL   C100 3832   1.176   7.125   5.976 -0.0010  0.2882  0.1443
    7MOL   C101 3833   1.049   7.111   5.882 -0.0005  0.5992 -1.2830
    7MOL   C102 3834   0.947   7.014   5.930  0.1636 -0.3589  0.3283
    7MOL   C103 3835   0.901   6.915   5.817  0.4099  0.0815 -0.1604
    7MOL   C104 3836   0.781   6.834   5.862  0.3006  0.2054 -0.2227
    7MOL   C105 3837   1.798   7.281   5.817 -0.1769 -0.1666 -0.8202
    7MOL   H106 3838   1.697   7.469   5.820 -2.0069  0.0409  0.5594
    7MOL   H107 3839   1.526   7.282   5.810  1.2203  0.6472  0.2749
    7MOL   H108 3840   1.459   7.426   5.860  1.9640  0.8737 -0.2715
    7MOL   H109 3841   1.404   7.283   6.080  0.8341  1.4018 -1.4579
    7MOL   H110 3842   1.461   7.150   5.990  0.2381  0.3782  1.5380
    7MOL   H111 3843   1.227   7.322   5.905 -2.7299 -1.1929  1.9160
    7MOL   H112 3844   1.302   7.194   5.812 -1.1250  0.4381 -0.6229
    7MOL   H113 3845   1.222   7.027   5.991 -0.7446  0.0369  0.8054
    7MOL   H114 3846   1.160   7.153   6.080  0.6319 -0.7205  0.5160
    7MOL   H115 3847   1.010   7.213   5.871 -1.9132  0.0376  0.0392
    7MOL   H116 3848   1.080   7.093   5.779  0.2457 -0.8266 -0.9672
    7MOL   H117 3849   0.856   7.067   5.960 -0.0424 -0.4611 -0.1210
    7MOL   H118 3850   0.967   6.956   6.020  0.8012  1.2663  1.2595
    7MOL   H119 3851   0.862   6.968   5.730 -3.0366  0.9578  1.8326
    7MOL   H120 3852   0.990   6.856   5.795 -0.4059 -0.4626 -2.0944
    7MOL   H121 3853   0.705   6.902   5.901 -0.0805 -0.7672  0.7516
    7MOL   H122 3854   0.799   6.752   5.931  1.1850  0.4079 -0.2079
    7MOL   H123 3855   0.736   6.785   5.775 -0.2588 -1.0183  0.7479
    7MOL   H124 3856   1.871   7.228   5.878 -2.2687  0.0857  2.0035
    7MOL   H125 3857   1.721   7.208   5.791  0.1363 -1.7024  2.3196
    7MOL   C126 3858   1.880   7.315   5.687  0.0265  0.3212  0.4081
    7MOL   O127 3859   1.795   7.346   5.585 -0.7611  0.4677 -0.3572
    7MOL   C128 3860   1.826   7.461   5.512  0.5755  0.0385 -0.1703
    7MOL   C129 3861   1.755   7.449   5.380  0.7623  0.0367 -1.0406
    7MOL   C130 3862   1.599   7.455   5.396 -0.3456  0.4114 -0.1786
    7MOL   C131 3863   1.537   7.440   5.260 -0.8237  0.2827 -0.3613
    7MOL   C132 3864   1.387   7.474   5.248  0.0334 -0.0140  0.2887
    7MOL   C133 3865   1.338   7.492   5.109 -0.0440 -0.5336  0.0872
    7MOL   C134 3866   1.213   7.572   5.097  0.0783  0.0011  0.1696
    7MOL   C135 3867   1.167   7.574   4.949  0.0774 -0.0802 -0.5193
    7MOL   C136 3868   1.982   7.203   5.645  0.2869 -0.3783 -0.5607
    7MOL   H137 3869   1.941   7.401   5.716 -0.1144  0.3258  0.6850
    7MOL   H138 3870   1.931   7.475   5.484 -0.0236  1.5056 -1.7710
    7MOL   H139 3871   1.809   7.559   5.557 -0.5141  0.4629 -1.4783
    7MOL   H140 3872   1.779   7.351   5.339 -0.0047 -1.5768  2.1982
    7MOL   H141 3873   1.792   7.518   5.304  0.2023  0.8655 -0.5644
    7MOL   H142 3874   1.579   7.370   5.462  1.2872 -1.0257 -1.4582
    7MOL   H143 3875   1.557   7.544   5.441 -1.7839  0.3615 -1.3730
    7MOL   H144 3876   1.589   7.503   5.188  1.1498 -0.5215  0.3247
    7MOL   H145 3877   1.553   7.335   5.238 -0.8491 -0.5126  3.0873
    7MOL   H146 3878   1.320   7.407   5.302 -0.5388  0.2843 -0.0501
    7MOL   H147 3879   1.381   7.578   5.281  3.3377  0.3442  0.0011
    7MOL   H148 3880   1.327   7.401   5.050  3.0519 -1.2081  0.4833
    7MOL   H149 3881   1.409   7.553   5.054  1.7728 -2.0287  0.7371
    7MOL   H150 3882   1.140   7.529   5.166  1.8368 -0.1990  1.9602
    7MOL   H151 3883   1.217   7.678   5.123  0.7176  0.3940 -1.4588
    7MOL   H152 3884   1.237   7.635   4.893  1.7530 -0.5503  1.0222
    7MOL   H153 3885   1.076   7.633   4.944  0.3349  0.1930 -2.7241
    7MOL   H154 3886   1.150   7.475   4.905  1.1319 -0.8050  0.6884
    7MOL   H155 3887   1.930   7.107   5.644 -0.4126  0.0035 -1.6411
    7MOL   H156 3888   2.008   7.226   5.542  1.3014  0.5360 -0.1113
    7MOL   C157 3889   2.113   7.194   5.725 -0.4683 -0.6599  0.4811
    7MOL   O158 3890   2.191   7.313   5.686  0.2148 -0.7544 -0.0714
    7MOL   C159 3891   2.233   7.411   5.774 -0.5433 -0.3899 -0.0806
    7MOL   C160 3892   2.323   7.510   5.695  0.2842  0.0805  0.0726
    7MOL   C161 3893   2.249   7.592   5.593  0.6596  0.0637 -0.2638
    7MOL   C162 3894   2.320   7.713   5.545 -0.3486  0.5848  0.4983
    7MOL   C163 3895   2.234   0.047   5.493 -0.0553 -0.4964 -0.3182
    7MOL   C164 3896   2.166   7.770   5.366 -0.3799  0.6095  0.0785
    7MOL   C165 3897   2.118   0.106   5.275 -0.1363 -0.1872  0.4260
    7MOL   C166 3898   2.024   0.051   5.158  0.0576  0.3787  0.6549
    7MOL   C167 3899   2.200   7.069   5.696 -0.5765  0.6706  0.3282
    7MOL   H168 3900   2.101   7.200   5.833 -0.5385  1.5680  0.3626
    7MOL   H169 3901   2.291   7.366   5.855 -0.6056  1.7810  1.2145
    7MOL   H170 3902   2.150   7.449   5.834 -1.2906 -2.9764  0.5816
    7MOL   H171 3903   2.391   7.448   5.636 -1.4618 -3.0131  1.2100
    7MOL   H172 3904   2.373   7.576   5.766 -1.0559  2.0379 -0.7630
    7MOL   H173 3905   2.221   7.526   5.510 -2.1939  0.1578  0.5497
    7MOL   H174 3906   2.159   7.630   5.642  3.1252  3.5485  1.7191
    7MOL   H175 3907   2.384   7.761   5.619  0.4302 -0.2635  0.3820
    7MOL   H176 3908   2.383   7.691   5.459  0.4784  0.7399  1.0571
    7MOL   H177 3909   2.166   0.079   5.571 -1.2574 -0.3108 -1.4297
    7MOL   H178 3910   2.294   0.132   5.459  0.6326 -1.4883 -1.6315
    7MOL   H179 3911   2.079   7.714   5.399  0.2619 -0.2646  0.2936
    7MOL   H180 3912   2.234   7.703   5.314 -1.8680 -1.2609  0.5192
    7MOL   H181 3913   2.072   0.184   5.334  2.1420  0.8565  0.8662
    7MOL   H182 3914   2.206   0.149   5.227  0.4198 -2.4717 -0.7140
    7MOL   H183 3915   2.065   7.737   5.110 -2.8621  0.2113 -1.6816
    7MOL   H184 3916   2.018   0.129   5.083  1.1990 -1.9129 -1.9090
    7MOL   H185 3917   1.926   0.024   5.199  0.3707 -2.8171 -0.5626
    7MOL   H186 3918   2.204   7.048   5.589  0.8761 -2.2126  0.9136
    7MOL   H187 3919   2.303   7.099   5.719  0.0526 -0.0644 -1.4681
    7MOL   C188 3920   2.168   6.930   5.767 -0.9324  0.1879  0.0987
    7MOL   O189 3921   2.031   6.938   5.814 -0.0405 -0.3809 -0.1841
    7MOL   C190 3922   1.976   6.808   5.822 -0.0349 -0.5324  0.1645
    7MOL   C191 3923   1.840   6.825   5.884  0.2335 -0.3510 -0.5799
    7MOL   C192 3924   1.830   6.851   6.036  0.5736  0.5879  0.1267
    7MOL   C193 3925   1.691   6.863   6.089  0.4372 -0.4054  0.0131
    7MOL   C194 3926   1.685   6.852   6.243  0.2868 -0.3837 -0.0341
    7MOL   C195 3927   1.537   6.873   6.279 -0.7084  0.0125  0.7022
    7MOL   C196 3928   1.510   6.874   6.428 -0.3648  0.5669 -0.6586
    7MOL   C197 3929   1.371   6.930   6.458 -0.7361 -0.0311 -0.0093
    7MOL   C198 3930   2.261   6.908   5.881 -0.1026 -0.6435  0.2379
    7MOL   H199 3931   2.176   6.860   5.684  2.0382 -0.1641  0.6552
    7MOL   H200 3932   1.970   6.769   5.720 -0.5268  1.0046 -0.4123
    7MOL   H201 3933   2.036   6.743   5.886  0.9232  0.3124  0.1269
    7MOL   H202 3934   1.778   6.735   5.877 -0.1912 -0.0371 -0.9102
    7MOL   H203 3935   1.787   6.904   5.831 -1.8096 -2.0107 -1.0840
    7MOL   H204 3936   1.884   6.767   6.079 -0.5332 -0.1056  0.1668
    7MOL   H205 3937   1.886   6.939   6.066 -0.0351  1.3154 -0.8321
    7MOL   H206 3938   1.645   6.955   6.052  0.7364 -1.0479 -1.9976
    7MOL   H207 3939   1.639   6.778   6.045  0.1599 -1.0052  1.4529
    7MOL   H208 3940   1.724   6.755   6.272  0.2781 -0.9843 -1.9129
    7MOL   H209 3941   1.754   6.928   6.281  0.5454  0.2886 -1.7838
    7MOL   H210 3942   1.480   6.806   6.215  1.6532 -0.3021 -1.1719
    7MOL   H211 3943   1.510   6.973   6.245  1.9109  0.7593  0.6577
    7MOL   H212 3944   1.528   6.771   6.459 -0.3166  0.3012 -1.5419
    7MOL   H213 3945   1.579   6.941   6.480 -1.9015  1.1606  0.6472
    7MOL   H214 3946   1.357   7.034   6.429 -1.9662  0.4515  2.2235
    7MOL   H215 3947   1.362   6.932   6.566  0.0812  1.5159  0.0449
    7MOL   H216 3948   1.293   6.871   6.409 -0.7009  0.6044 -0.8410
    7MOL   H217 3949   2.285   7.009   5.915 -0.8247  0.0611 -1.3260
    7MOL   H218 3950   2.218   6.843   5.957 -0.6928 -1.1693 -0.5503
    7MOL   C219 3951   2.384   6.843   5.830 -0.2443 -0.2265  0.0774
    7MOL   O220 3952   2.350   6.710   5.780 -0.4360 -0.3751  0.4055
    7MOL   C221 3953   2.412   6.660   5.664  0.2472  0.0414 -0.3805
    7MOL   C222 3954   2.327   6.541   5.620 -0.0425 -0.0206 -0.2095
    7MOL   C223 3955   2.193   6.584   5.573 -0.2017 -0.0471 -0.1703
    7MOL   C224 3956   2.092   6.465   5.552  0.2228 -0.3420 -0.7711
    7MOL   C225 3957   2.066   6.419   5.412  0.3362  0.1601 -0.3947
    7MOL   C226 3958   2.183   6.343   5.356 -0.2222  0.3623  0.2724
    7MOL   C227 3959   2.165   6.257   5.229  0.0246  0.2044  0.4763
    7MOL   C228 3960   2.270   6.149   5.215 -0.2030  0.3691 -0.4632
    7MOL   C229 3961   2.495   6.825   5.944 -0.3425 -0.0220  0.1337
    7MOL   H230 3962   2.420   6.907   5.750 -0.6160 -1.2886 -0.9635
    7MOL   H231 3963   2.519   6.637   5.662 -0.0136 -1.1459 -1.0020
    7MOL   H232 3964   2.405   6.735   5.585  2.3429 -0.4375 -1.0492
    7MOL   H233 3965   2.326   6.462   5.694  2.2248 -0.9590 -1.1235
    7MOL   H234 3966   2.379   6.499   5.534 -0.8442 -2.3817  0.4366
    7MOL   H235 3967   2.153   6.656   5.644  0.3761 -0.3067  0.4192
    7MOL   H236 3968   2.201   6.638   5.479  0.7734 -1.8189 -1.1410
    7MOL   H237 3969   2.121   6.381   5.616 -1.0024 -0.2595 -0.0925
    7MOL   H238 3970   2.003   6.512   5.595 -0.1311  0.6951 -2.6088
    7MOL   H239 3971   1.983   6.349   5.406 -1.0655  1.6472  1.2288
    7MOL   H240 3972   2.041   6.502   5.347 -0.0181  0.3814  0.0220
    7MOL   H241 3973   2.213   6.275   5.436  1.1838 -0.1579 -0.6749
    7MOL   H242 3974   2.273   6.405   5.353 -0.7464  1.1785  1.0654
    7MOL   H243 3975   2.066   6.211   5.239  0.7670 -1.4254  0.4251
    7MOL   H244 3976   2.145   6.318   5.141 -0.7903 -0.8409 -0.0806
    7MOL   H245 3977   2.212   6.061   5.185 -0.5577  0.2808  0.4774
    7MOL   H246 3978   2.322   6.128   5.309  1.5007  1.6304 -1.1011
    7MOL   H247 3979   2.356   6.151   5.148  1.3264 -0.5187  1.4386
    7MOL   H248 3980   2.573   6.770   5.891 -0.9593  1.7035 -2.6862
    7MOL   H249 3981   2.528   6.926   5.967  1.3371  0.0247 -2.2972
    7MOL   C250 3982   2.455   6.748   6.070  0.2058  0.1900  0.0152
    7MOL   O251 3983   2.384   6.834   6.153  0.0002  0.2882 -0.3264
    7MOL   C252 3984   2.285   6.791   6.242  0.2877  0.0027 -0.0616
    7MOL   C253 3985   2.232   6.909   6.326  0.2681  0.1681  0.3699
    7MOL   C254 3986   2.156   7.018   6.250  0.1572 -0.3814  0.3182
    7MOL   C255 3987   2.064   7.105   6.337  0.2915  0.4293 -0.9014
    7MOL   C256 3988   2.016   7.240   6.281 -0.1133  0.4373 -0.0611
    7MOL   C257 3989   1.918   7.312   6.372  0.4684  0.3503 -0.0421
    7MOL   C258 3990   1.779   7.241   6.387  0.3324  0.5769 -0.0589
    7MOL   C259 3991   1.686   7.253   6.263 -0.4308 -0.4816 -0.2368
    7MOL   C260 3992   2.576   6.676   6.140 -0.5220 -0.3668 -0.1374
    7MOL   H261 3993   2.382   6.676   6.035  1.3732 -1.5143  1.0269
    7MOL   H262 3994   2.325   6.720   6.315  1.7622  0.3191 -0.5324
    7MOL   H263 3995   2.204   6.744   6.186  0.8967  0.2418 -1.1694
    7MOL   H264 3996   2.314   6.961   6.375  0.2558  1.5954 -1.0527
    7MOL   H265 3997   2.164   6.866   6.399  2.8186 -0.6458  2.3332
    7MOL   H266 3998   2.222   7.078   6.187 -0.4582  0.1287  0.1540
    7MOL   H267 3999   2.104   6.960   6.174  1.9015 -1.5255 -0.0563
    7MOL   H268 4000   1.971   7.049   6.352 -0.3133  1.8797  0.9858
    7MOL   H269 4001   2.108   7.115   6.436  0.6032 -1.1898 -0.8685
    7MOL   H270 4002   2.090   7.303   6.232 -2.3913  0.7863 -3.2040
    7MOL   H271 4003   1.950   7.208   6.201 -1.4171  1.3616  0.6339
    7MOL   H272 4004   1.911   7.416   6.338  0.0132  0.4807  0.4436
    7MOL   H273 4005   1.965   7.316   6.470 -0.2693  0.7247  0.3001
    7MOL   H274 4006   1.784   7.135   6.413 -3.5557  0.5306  0.7772
    7MOL   H275 4007   1.734   7.273   6.481  2.0931 -0.4649  1.1733
    7MOL   H276 4008   1.599   7.187   6.273 -1.8381  1.5784  1.6080
    7MOL   H277 4009   1.738   7.243   6.168 -0.2732 -2.4724  0.0250
    7MOL   H278 4010   1.639   7.351   6.264  1.4060  0.4197  2.4565
    7MOL   H279 4011   2.648   6.755   6.163 -1.1080  0.6384 -1.6732
    7MOL   H280 4012   2.542   6.639   6.237  1.0697  0.0547  0.6062
    7MOL   C281 4013   2.643   6.558   6.066  0.1027  0.1550  0.4970
    7MOL   O282 4014   2.546   6.462   6.085  0.2873  0.2521 -0.4007
    7MOL   C283 4015   2.494   6.402   5.964  0.6255  0.0912 -0.3597
    7MOL   C284 4016   2.360   6.328   5.994 -0.2685  0.4533  0.6047
    7MOL   C285 4017   2.238   6.420   6.000 -0.2586  0.0136  0.1547
    7MOL   C286 4018   2.113   6.348   6.038 -0.2714 -0.8392  0.7901
    7MOL   C287 4019   1.995   6.442   6.064  0.1297  0.4393  0.2348
    7MOL   C288 4020   1.875   6.367   6.136  0.1665 -0.8084  0.2843
    7MOL   C289 4021   1.747   6.454   6.135  0.9899  0.5201 -0.2364
    7MOL   C290 4022   1.615   6.378   6.167 -0.8277  0.1422 -1.2581
    7MOL   C291 4023   2.769   6.518   6.133 -0.1754  0.4804  0.5148
    7MOL   H292 4024   2.668   6.563   5.960 -0.0610  1.3511  0.5073
    7MOL   H293 4025   2.572   6.334   5.929  0.7546  0.9387 -1.7320
    7MOL   H294 4026   2.472   6.469   5.882  0.0357 -0.8577 -0.9936
    7MOL   H295 4027   2.371   6.288   6.095  1.9978  0.8266  0.5449
    7MOL   H296 4028   2.356   6.240   5.930  1.5649  1.5273 -1.0482
    7MOL   H297 4029   2.263   6.493   6.077 -1.4525  0.7445 -0.1332
    7MOL   H298 4030   2.234   6.471   5.904 -0.0948 -0.0495  0.1147
    7MOL   H299 4031   2.088   6.258   5.981  2.5303 -0.8620 -0.5115
    7MOL   H300 4032   2.135   6.313   6.139 -3.6826 -0.8458  1.5877
    7MOL   H301 4033   2.018   6.532   6.122 -0.1928  0.8741 -0.2993
    7MOL   H302 4034   1.968   6.485   5.967 -2.7211 -2.6282 -0.3996
    7MOL   H303 4035   1.890   6.335   6.239  0.2682  0.6949  0.7435
    7MOL   H304 4036   1.869   6.270   6.086  0.4032  0.8729 -3.1425
    7MOL   H305 4037   1.761   6.532   6.210  2.6213  1.7052 -1.7266
    7MOL   H306 4038   1.724   6.498   6.038 -1.5098  0.3276  0.2402
    7MOL   H307 4039   1.520   6.423   6.140 -0.4826  0.9568 -1.1146
    7MOL   H308 4040   1.609   6.365   6.275  1.4866  1.4313 -0.9460
    7MOL   H309 4041   1.619   6.281   6.117 -2.7711 -0.9570  0.6354
    7MOL   H310 4042   2.834   6.603   6.154  0.0447  0.3625  0.3096
    7MOL   H311 4043   2.738   6.493   6.235  1.1537  0.9264  1.0428
    7MOL   C312 4044   2.833   6.400   6.061 -0.2281  0.8385  0.1336
    7MOL   O313 4045   2.911   6.326   6.158  0.1533 -0.1646  0.3341
    7MOL   C314 4046   2.840   6.240   6.233  0.9199 -0.2335 -0.3584
    7MOL   C315 4047   2.936   6.133   6.284  0.0215 -0.2226 -0.9685
    7MOL   C316 4048   2.999   6.053   6.175 -0.6041  0.8679 -0.2930
    7MOL   C317 4049   3.068   5.915   6.214 -0.2363  0.2181 -0.3992
    7MOL   C318 4050   2.962   5.808   6.242  0.4503  0.5475  0.8825
    7MOL   C319 4051   3.013   5.675   6.303 -0.0314 -0.4065  0.2589
    7MOL   C320 4052   2.919   5.558   6.305  0.6728  0.0020 -0.6022
    7MOL   C321 4053   2.985   5.441   6.378  0.3553  0.1715  0.3037
    7MOL   C322 4054   2.939   6.442   5.957  0.0583  0.2923  0.2907
    7MOL   H323 4055   2.760   6.331   6.019  0.2788  0.4283 -0.0793
    7MOL   H324 4056   2.767   6.195   6.166 -1.0020  0.6389  1.0965
    7MOL   H325 4057   2.793   6.287   6.320  0.9172 -0.6604 -0.1279
    7MOL   H326 4058   2.879   6.066   6.348  1.0124 -0.8770 -0.7525
    7MOL   H327 4059   3.013   6.187   6.340  0.6001 -1.4849 -0.5275
    7MOL   H328 4060   2.929   6.042   6.092 -0.6995 -2.0777  0.1305
    7MOL   H329 4061   3.073   6.122   6.136 -0.9540  2.3328  1.5641
    7MOL   H330 4062   3.139   5.891   6.134 -1.6948 -1.2675 -1.2696
    7MOL   H331 4063   3.131   5.935   6.301 -0.4446 -1.0017  0.0369
    7MOL   H332 4064   2.884   5.852   6.305  0.9774  3.2528 -0.2764
    7MOL   H333 4065   2.910   5.779   6.150  1.6391  1.0938  0.0333
    7MOL   H334 4066   3.066   5.696   6.396  3.1709 -0.2501 -1.5066
    7MOL   H335 4067   3.096   5.643   6.240 -1.5842 -0.2316 -1.9606
    7MOL   H336 4068   2.825   5.586   6.353  2.3847  1.6128  1.9802
    7MOL   H337 4069   2.904   5.537   6.199 -0.5055 -0.4440 -0.3468
    7MOL   H338 4070   2.914   5.363   6.405 -0.2438  0.7957  0.5605
    7MOL   H339 4071   3.025   5.485   6.470 -2.0461  0.0597  1.4176
    7MOL   H340 4072   3.058   5.401   6.308 -0.6637  1.4425 -1.5223
    7MOL   H341 4073   2.898   6.505   5.878  0.1838 -1.9815 -1.6229
    7MOL   H342 4074   3.003   6.516   6.005 -0.9623  0.7468  0.9649
    7MOL   C343 4075   3.016   6.328   5.883  0.6799 -0.1481 -0.1502
    7MOL   O344 4076   3.087   6.387   5.775 -0.3399 -0.1328  0.8064
    7MOL   C345 4077   3.210   6.447   5.795  0.5013 -0.2817  0.0055
    7MOL   C346 4078   3.294   6.441   5.666 -0.7049 -0.0899  0.6368
    7MOL   C347 4079   3.249   6.517   5.548  0.1539 -0.2280  0.2397
    7MOL   C348 4080   3.257   6.442   5.409  0.2688 -0.2263 -0.5706
    7MOL   C349 4081   3.158   6.318   5.389 -0.3965  0.2692 -0.3633
    7MOL   C350 4082   3.154   6.262   5.247 -0.0153  0.2496 -0.0406
    7MOL   C351 4083   3.096   6.117   5.250  0.1233 -0.1800 -0.2530
    7MOL   C352 4084   3.086   6.052   5.117 -0.3421  0.3194  0.1108
    7MOL   C353 4085   2.919   6.220   5.827  0.2749 -0.3932  0.0016
    7MOL   H354 4086   3.086   6.273   5.947 -0.2848  0.5119  1.5141
    7MOL   H355 4087   3.262   6.380   5.863 -0.2837  0.3794  1.2671
    7MOL   H356 4088   3.209   6.544   5.845  0.8420  0.0639 -0.6460
    7MOL   H357 4089   3.334   6.342   5.643 -0.1468  0.1557  0.5384
    7MOL   H358 4090   3.383   6.498   5.692 -0.9876  0.9487 -0.6174
    7MOL   H359 4091   3.147   6.551   5.564 -0.6962 -1.3827 -2.4429
    7MOL   H360 4092   3.299   6.614   5.539  1.8523 -1.0270  0.8091
    7MOL   H361 4093   3.233   6.513   5.329  1.0507  0.6766 -0.0095
    7MOL   H362 4094   3.359   6.407   5.395  0.1275 -1.8712  2.2757
    7MOL   H363 4095   3.195   6.238   5.452 -1.6421 -0.6563 -0.8000
    7MOL   H364 4096   3.060   6.337   5.431  0.6495  1.8754  1.4467
    7MOL   H365 4097   3.255   6.264   5.207 -0.0603  1.6389 -0.1106
    7MOL   H366 4098   3.100   6.328   5.178 -2.0825 -0.0052  1.3006
    7MOL   H367 4099   3.148   6.045   5.313 -0.7901 -0.4901  0.1525
    7MOL   H368 4100   2.994   6.120   5.289  0.1253 -0.1471 -0.2491
    7MOL   H369 4101   3.182   6.065   5.066 -1.3360  2.1019 -1.3783
    7MOL   H370 4102   3.011   6.112   5.066  0.4453  1.3488  0.1288
    7MOL   H371 4103   3.060   5.947   5.113  4.3866 -0.9845  0.2865
    7MOL   H372 4104   2.868   6.176   5.913 -0.0252 -0.8022 -0.3799
    7MOL   H373 4105   2.848   6.276   5.766  2.4747  1.5982 -0.8048
    7MOL   C374 4106   2.971   6.109   5.729 -0.1862  0.7856 -0.0790
    7MOL   O375 4107   2.852   6.040   5.690 -0.0009 -0.1990  0.1962
    7MOL   C376 4108   2.817   6.082   5.560  0.3648  0.3322  0.6585
    7MOL   C377 4109   2.664   6.081   5.548 -0.0516 -0.3361  0.0397
    7MOL   C378 4110   2.591   6.177   5.652  0.0815 -0.1617  1.0539
    7MOL   C379 4111   2.443   6.184   5.637 -0.3152 -0.4280  0.1819
    7MOL   C380 4112   2.367   6.061   5.675  0.3177 -0.4406  0.2011
    7MOL   C381 4113   2.223   6.086   5.706 -0.1569 -0.3530 -0.6881
    7MOL   C382 4114   2.169   5.966   5.781  0.5524 -0.3713  0.1454
    7MOL   C383 4115   2.019   5.985   5.807  0.5440 -0.2463  0.0139
    7MOL   C384 4116   3.068   6.000   5.804  0.1153 -0.1341  0.4375
    7MOL   H385 4117   3.023   6.154   5.644  0.5974 -1.1661 -0.6602
    7MOL   H386 4118   2.865   6.022   5.482 -0.5155  0.7084 -0.1758
    7MOL   H387 4119   2.847   6.184   5.536  2.7049  0.0604  2.2204
    7MOL   H388 4120   2.617   5.983   5.554  0.9669 -0.7988  0.6265
    7MOL   H389 4121   2.647   6.116   5.446  1.0803 -0.0647 -0.0602
    7MOL   H390 4122   2.613   6.141   5.752  0.5216  0.8141  1.3184
    7MOL   H391 4123   2.628   6.279   5.640 -0.1907  0.0346  1.8534
    7MOL   H392 4124   2.400   6.266   5.696 -0.9751 -0.6755  0.0478
    7MOL   H393 4125   2.411   6.209   5.536 -0.3328 -1.4385 -0.0631
    7MOL   H394 4126   2.390   5.984   5.601  1.0127  0.2438 -0.3029
    7MOL   H395 4127   2.419   6.025   5.764  0.7235  1.4558  0.7634
    7MOL   H396 4128   2.162   6.109   5.618 -3.0513 -1.2811  1.0105
    7MOL   H397 4129   2.199   6.175   5.764 -3.5200 -0.5243 -1.6764
    7MOL   H398 4130   2.174   5.876   5.719 -2.3473 -0.4657 -0.0093
    7MOL   H399 4131   2.227   5.949   5.872  0.9590 -1.8295 -0.3610
    7MOL   H400 4132   1.963   5.893   5.828 -0.3614  0.6640  1.6879
    7MOL   H401 4133   1.966   6.032   5.724 -0.7501 -0.9464  0.4246
    7MOL   H402 4134   1.993   6.037   5.899 -1.2782 -0.0315 -0.5914
    7MOL   H403 4135   3.168   6.043   5.815  0.7099 -1.1810 -0.7471
    7MOL   H404 4136   3.026   5.976   5.902  0.2731 -2.5284 -0.0401
    7MOL   C405 4137   3.080   5.867   5.725 -0.3749 -0.4976 -0.6956
    7MOL   O406 4138   3.150   5.781   5.811 -0.1428  0.1455 -1.4582
    7MOL   C407 4139   3.064   5.698   5.893 -0.2917 -0.3516 -0.0815
    7MOL   C408 4140   3.156   5.597   5.960  0.3370  0.0027 -0.4794
    7MOL   C409 4141   3.206   5.493   5.867  1.2951 -0.0890  0.6812
    7MOL   C410 4142   3.307   5.387   5.914 -0.3891  0.6186  0.0732
    7MOL   C411 4143   3.344   5.271   5.814 -0.2774 -0.2159  0.4978
    7MOL   C412 4144   3.439   5.315   5.699  0.5258  0.6425  1.1910
    7MOL   C413 4145   3.585   5.302   5.739 -0.6578 -0.4580  0.4038
    7MOL   C414 4146   3.675   5.328   5.617  0.1178  0.1571 -0.6737
    7MOL   C415 4147   3.155   5.902   5.596 -1.1133 -0.3879  0.1636
    7MOL   H416 4148   2.978   5.838   5.702 -0.2290 -2.1194  0.6171
    7MOL   H417 4149   2.997   5.647   5.824 -1.4410 -0.1344  0.8596
    7MOL   H418 4150   3.007   5.764   5.960 -0.5849  0.7080 -1.3549
    7MOL   H419 4151   3.110   5.550   6.047  1.6642  2.3191  1.5091
    7MOL   H420 4152   3.241   5.641   6.012 -1.1966 -0.2696  2.3784
    7MOL   H421 4153   3.115   5.444   5.833  0.4154  1.7709  0.3005
    7MOL   H422 4154   3.235   5.556   5.783  2.1100  2.3822  2.7694
    7MOL   H423 4155   3.396   5.438   5.953  1.1548 -1.8652 -0.0812
    7MOL   H424 4156   3.267   5.345   6.007  0.5024  0.0842  0.2245
    7MOL   H425 4157   3.386   5.181   5.859  2.2472  0.6281 -0.0527
    7MOL   H426 4158   3.252   5.239   5.766  0.9562  0.3304 -2.3122
    7MOL   H427 4159   3.414   5.414   5.662 -1.0341 -0.1676  0.0112
    7MOL   H428 4160   3.432   5.251   5.611 -0.4594  0.5854  1.2993
    7MOL   H429 4161   3.614   5.378   5.811  0.0516 -1.3575  1.0888
    7MOL   H430 4162   3.608   5.208   5.791  0.5180  0.2757  1.2450
    7MOL   H431 4163   3.778   5.311   5.648  0.0546 -0.3764 -0.7430
    7MOL   H432 4164   3.676   5.431   5.583  4.3477  0.6118  0.5732
    7MOL   H433 4165   3.665   5.260   5.532 -0.5950 -0.2263 -0.2856
    7MOL   H434 4166   3.105   5.983   5.544 -0.2713  1.7182  2.4924
    7MOL   H435 4167   3.254   5.939   5.625 -1.7730 -0.3357  2.4933
    7MOL   C436 4168   3.150   5.783   5.497  0.3143  0.5306 -0.0419
    7MOL   O437 4169   3.250   5.814   5.403  0.3855 -0.3169  0.5427
    7MOL   C438 4170   3.328   5.705   5.354  0.6698 -1.0261  0.3103
    7MOL   C439 4171   3.436   5.737   5.254  0.1727  0.1116 -0.4929
    7MOL   C440 4172   3.528   5.863   5.287 -0.0066 -0.6938  0.1446
    7MOL   C441 4173   3.624   5.892   5.180  0.3229  0.4775 -0.4054
    7MOL   C442 4174   3.674   6.035   5.189 -0.0540 -0.6787 -0.0239
    7MOL   C443 4175   3.780   6.063   5.084 -0.5547 -0.2004 -0.2011
    7MOL   C444 4176   3.917   6.011   5.120  0.0867  0.2786 -0.4598
    7MOL   C445 4177   4.013   6.010   5.000 -0.6469 -0.8425 -0.0634
    7MOL   C446 4178   3.015   5.757   5.430  0.3217  0.3410 -0.1985
    7MOL   H447 4179   3.182   5.696   5.554  1.0796  0.4677 -0.5697
    7MOL   H448 4180   3.371   5.660   5.443  0.0273  0.6656  1.4899
    7MOL   H449 4181   3.267   5.625   5.312 -1.6171 -0.4002  2.3122
    7MOL   H450 4182   3.392   5.761   5.157  0.7878 -1.8387 -1.2802
    7MOL   H451 4183   3.488   5.645   5.229 -1.7927 -1.1111 -0.1465
    7MOL   H452 4184   3.466   5.953   5.289  1.3139  0.2454 -0.6800
    7MOL   H453 4185   3.591   5.856   5.376  2.4683 -1.3176 -1.6034
    7MOL   H454 4186   3.709   5.827   5.202 -0.4247 -0.2620  0.3716
    7MOL   H455 4187   3.598   5.863   5.079 -1.5970  0.5898  0.0501
    7MOL   H456 4188   3.587   6.098   5.170 -0.2293 -0.4828  1.3818
    7MOL   H457 4189   3.726   6.047   5.284 -0.5822  0.2764  0.1543
    7MOL   H458 4190   3.796   6.168   5.060 -0.5061 -0.4798 -1.4203
    7MOL   H459 4191   3.752   6.015   4.990  0.8083  0.4496 -0.9595
    7MOL   H460 4192   3.975   6.059   5.199 -2.4813 -0.6498  2.0999
    7MOL   H461 4193   3.907   5.912   5.167 -1.9890  0.9748  0.6072
    7MOL   H462 4194   3.997   5.924   4.936 -2.2093 -0.9175  0.4125
    7MOL   H463 4195   4.118   6.020   5.029 -0.6815  1.0201 -0.5304
    7MOL   H464 4196   4.010   6.106   4.948  0.5819 -0.2390  0.9461
    7MOL   H465 4197   2.940   5.830   5.462  0.8979  1.2647 -0.9078
    7MOL   H466 4198   3.017   5.771   5.322  0.1869 -0.0284 -0.2502
    7MOL   C467 4199   2.946   5.634   5.489 -0.5185 -0.3313  0.3414
    7MOL   O468 4200   3.024   5.536   5.425 -0.6190 -0.3903  0.3282
    7MOL   C469 4201   3.022   5.407   5.485  0.4308  0.0081 -0.3199
    7MOL   C470 4202   3.154   5.342   5.456 -0.3499 -0.6122 -0.8555
    7MOL   C471 4203   3.177   5.295   5.308  0.3421 -1.2930  0.2083
    7MOL   C472 4204   3.319   5.249   5.281 -0.2267  0.1203  0.4945
    7MOL   C473 4205   3.413   5.362   5.251 -0.3426 -0.1934  0.2554
    7MOL   C474 4206   3.537   5.317   5.177 -0.4974 -0.0914 -0.5353
    7MOL   C475 4207   3.650   5.424   5.161 -0.1035 -0.0097  0.0630
    7MOL   C476 4208   3.704   5.475   5.293 -0.0614 -0.0259  0.0500
    7MOL   C477 4209   2.792   5.617   5.452 -0.1243 -0.0138  0.4356
    7MOL   H478 4210   2.975   5.634   5.594 -1.0651  2.9421  0.5265
    7MOL   H479 4211   2.937   5.347   5.456 -0.4253  1.6780 -1.3550
    7MOL   H480 4212   3.008   5.413   5.593 -1.9372  0.5339 -0.6426
    7MOL   H481 4213   3.168   5.266   5.533 -2.9214  1.2287  1.4811
    7MOL   H482 4214   3.233   5.411   5.486 -1.1904  0.1239 -0.3208
    7MOL   H483 4215   3.116   5.209   5.281  1.3626 -1.5521 -1.3235
    7MOL   H484 4216   3.146   5.371   5.237  1.4204 -1.4546 -0.4432
    7MOL   H485 4217   3.347   5.206   5.378  0.9900 -1.2062 -0.4163
    7MOL   H486 4218   3.319   5.175   5.201  2.2941 -0.9276  1.4050
    7MOL   H487 4219   3.365   5.441   5.192 -0.8553 -1.2852 -0.8068
    7MOL   H488 4220   3.442   5.410   5.344  0.7479  1.7822 -1.0628
    7MOL   H489 4221   3.509   5.290   5.075  0.1207  0.6272 -0.8987
    7MOL   H490 4222   3.576   5.227   5.224 -1.9557 -0.3464  0.2450
    7MOL   H491 4223   3.718   5.378   5.089  0.2140  1.4935 -0.6100
    7MOL   H492 4224   3.616   5.507   5.098 -2.1771 -0.6545  0.2987
    7MOL   H493 4225   3.628   5.515   5.359  0.3800  1.3293 -0.2386
    7MOL   H494 4226   3.775   5.558   5.284 -0.0240 -0.1845 -1.3250
    7MOL   H495 4227   3.744   5.392   5.351  0.8227  0.6116  0.3747
    7MOL   H496 4228   2.785   5.658   5.351  1.3957  1.8123  1.0285
    7MOL   H497 4229   2.769   5.511   5.453  2.4689 -0.6019 -0.4345
    7MOL   C498 4230   2.702   5.699   5.543  0.1190  0.4948  0.1749
    7MOL   O499 4231   2.700   5.640   5.672 -0.0016  0.2226  0.1698
    7MOL   C500 4232   2.679   5.739   5.774  0.4469  0.2469  0.3274
    7MOL   C501 4233   2.645   5.656   5.902  0.2172 -0.1980  0.0228
    7MOL   C502 4234   2.616   5.739   6.028  0.4164  0.5328  0.6011
    7MOL   C503 4235   2.469   5.787   6.039  0.5193 -0.0766  0.0442
    7MOL   C504 4236   2.430   5.870   6.170 -0.3345 -0.2139 -0.6477
    7MOL   C505 4237   2.275   5.878   6.191  1.3472 -0.9790 -0.2049
    7MOL   C506 4238   2.243   5.966   6.315 -0.3194  0.0937  0.0872
    7MOL   C507 4239   2.085   5.973   6.325 -0.1105 -0.0145  0.7964
    7MOL   C508 4240   2.556   5.724   5.489 -0.6019  0.1897 -0.6048
    7MOL   H509 4241   2.736   5.802   5.532 -0.8467  0.6191 -1.9891
    7MOL   H510 4242   2.587   5.797   5.764 -0.1567 -1.0822 -2.1045
    7MOL   H511 4243   2.761   5.811   5.776 -0.2202  1.0649 -0.9564
    7MOL   H512 4244   2.733   5.595   5.924  0.8282  0.2001 -1.2453
    7MOL   H513 4245   2.572   5.577   5.882 -1.2892  1.4038 -0.9182
    7MOL   H514 4246   2.629   5.670   6.111 -0.7413 -0.0380  0.3183
    7MOL   H515 4247   2.693   5.816   6.040 -0.4816  2.2450 -3.6997
    7MOL   H516 4248   2.446   5.852   5.954  0.0603  2.3536  1.9872
    7MOL   H517 4249   2.396   5.706   6.041 -1.3871  1.5683 -1.2500
    7MOL   H518 4250   2.492   5.840   6.255 -0.7996 -1.7022 -0.8211
    7MOL   H519 4251   2.469   5.971   6.159  4.4921 -1.8382 -0.0285
    7MOL   H520 4252   2.226   5.781   6.192 -1.0404  0.1466 -2.1190
    7MOL   H521 4253   2.232   5.927   6.104  2.3914 -1.9057 -1.2445
    7MOL   H522 4254   2.299   5.927   6.400  1.8136 -1.1081 -1.8080
    7MOL   H523 4255   2.279   6.068   6.302  0.8896 -0.7482 -3.8222
    7MOL   H524 4256   2.032   5.878   6.317 -0.8884  0.4072  0.7907
    7MOL   H525 4257   2.047   6.016   6.232  1.0235  0.4069  0.5267
    7MOL   H526 4258   2.045   6.023   6.413 -2.1375  0.1285 -0.1737
    7MOL   H527 4259   2.507   5.629   5.510 -1.9656  0.7706 -1.1367
    7MOL   H528 4260   2.499   5.786   5.557 -1.4655 -0.7983 -0.4222
    7MOL   C529 4261   2.533   5.751   5.342 -0.7384  0.6220  0.2230
    7MOL   O530 4262   2.604   5.877   5.322  1.1137  0.5628  0.1840
    7MOL   C531 4263   2.663   5.898   5.196 -0.0388  0.5942  0.2114
    7MOL   C532 4264   2.656   6.048   5.175 -0.2485 -0.6227  0.4779
    7MOL   C533 4265   2.687   6.090   5.028 -0.0688  0.1252 -0.1925
    7MOL   C534 4266   2.659   6.241   5.012 -0.1245 -0.5669  0.2526
    7MOL   C535 4267   2.686   6.293   4.872 -0.4864  0.4208  0.1306
    7MOL   C536 4268   2.662   6.439   4.880 -0.9068  0.5301  0.4477
    7MOL   C537 4269   2.677   6.508   4.745 -0.2098 -0.1214  0.1423
    7MOL   C538 4270   2.651   6.658   4.752  0.3268  0.0663  0.0329
    7MOL   C539 4271   2.389   5.781   5.305 -0.4840  0.0128  0.1668
    7MOL   H540 4272   2.574   5.671   5.281 -1.6394 -0.7301  1.3637
    7MOL   H541 4273   2.768   5.870   5.206 -0.1390 -0.6393 -1.9568
    7MOL   H542 4274   2.612   5.835   5.123  1.0287  0.4582 -0.4358
    7MOL   H543 4275   2.729   6.103   5.236  1.4442 -2.7221  0.4171
    7MOL   H544 4276   2.557   6.084   5.203  0.2011 -0.3857  1.8148
    7MOL   H545 4277   2.790   6.061   5.010  0.0780 -0.4638  1.4739
    7MOL   H546 4278   2.621   6.035   4.961  2.5656 -3.0714 -0.2879
    7MOL   H547 4279   2.556   6.255   5.045  0.3077 -0.0485  1.3967
    7MOL   H548 4280   2.713   6.304   5.082  0.4439 -0.5862 -0.1640
    7MOL   H549 4281   2.780   6.260   4.828 -1.0400  0.8062 -1.3735
    7MOL   H550 4282   2.611   6.258   4.800 -1.6428  0.8683  1.1119
    7MOL   H551 4283   2.728   6.492   4.949 -0.1728 -0.0363  0.1780
    7MOL   H552 4284   2.558   6.437   4.912 -0.7971 -1.7089  0.7278
    7MOL   H553 4285   2.783   6.520   4.722 -0.0655  0.8915  1.2492
    7MOL   H554 4286   2.636   6.457   4.658  0.4409 -0.3261 -0.0488
    7MOL   H555 4287   2.556   6.675   4.802 -0.1006 -1.8442 -0.1134
    7MOL   H556 4288   2.634   6.701   4.653 -2.6360 -1.1028 -0.0344
    7MOL   H557 4289   2.720   6.718   4.811  1.5918 -1.0127 -0.3341
    7MOL   H558 4290   2.333   5.845   5.372 -2.1799 -0.3659 -0.8622
    7MOL   H559 4291   2.394   5.840   5.213 -0.7662 -0.3414 -0.0772
    7MOL   C560 4292   2.307   5.647   5.281  0.0419  0.3239  0.2969
    7MOL   O561 4293   2.274   5.576   5.402  0.3370  0.0570 -0.1614
    7MOL   C562 4294   2.178   5.646   5.477 -0.2342 -0.2926 -0.0374
    7MOL   C563 4295   2.165   5.576   5.614  0.4333 -0.1626  0.2247
    7MOL   C564 4296   2.286   5.573   5.704 -0.2453  0.2188 -0.0030
    7MOL   C565 4297   2.261   5.509   5.838 -0.2893  0.3718 -0.0087
    7MOL   C566 4298   2.155   5.574   5.929 -0.1799  0.0091  0.3678
    7MOL   C567 4299   2.115   5.497   6.056 -0.0640  0.3870 -0.5100
    7MOL   C568 4300   1.996   5.569   6.123 -0.4775 -0.0143 -0.6905
    7MOL   C569 4301   1.973   5.525   6.264 -0.1256 -0.0789  0.4052
    7MOL   C570 4302   2.360   5.545   5.175 -0.1038  0.0836 -0.5416
    7MOL   H571 4303   2.210   5.680   5.244  0.2207  0.8854  0.3318
    7MOL   H572 4304   2.083   5.652   5.423 -1.1197 -0.5615  1.4745
    7MOL   H573 4305   2.208   5.750   5.492  1.8608 -0.9526  0.4322
    7MOL   H574 4306   2.124   5.476   5.597 -1.8655  1.1116 -1.9917
    7MOL   H575 4307   2.090   5.640   5.659  0.4096  0.9106 -1.2969
    7MOL   H576 4308   2.361   5.513   5.653  0.1041  1.0080 -0.4167
    7MOL   H577 4309   2.334   5.669   5.721  0.6186  0.0296 -1.2542
    7MOL   H578 4310   2.245   5.404   5.817 -2.4578  0.9959 -1.6542
    7MOL   H579 4311   2.357   5.513   5.891 -1.0951  0.8976  1.4485
    7MOL   H580 4312   2.184   5.678   5.945 -1.5648  0.0311  2.9153
    7MOL   H581 4313   2.066   5.577   5.865  0.7073 -2.0734 -1.0253
    7MOL   H582 4314   2.197   5.497   6.128  0.9209  0.4658 -1.6133
    7MOL   H583 4315   2.095   5.393   6.030 -0.9111  0.3476  0.2872
    7MOL   H584 4316   2.015   5.675   6.132 -1.1580 -0.1103  2.6782
    7MOL   H585 4317   1.900   5.549   6.074 -0.6324 -1.2030  0.0718
    7MOL   H586 4318   1.956   5.420   6.286  0.0507 -0.2683 -0.3666
    7MOL   H587 4319   1.885   5.572   6.310  0.0949 -0.6720  1.4488
    7MOL   H588 4320   2.052   5.547   6.336 -1.4504  2.4604  1.1815
    7MOL   H589 4321   2.447   5.497   5.220 -1.3389 -1.3534  0.3692
    7MOL   H590 4322   2.284   5.467   5.170 -0.7084  0.2711  3.6940
    7MOL   C591 4323   2.388   5.596   5.033 -0.6751 -0.4576  0.1380
    7MOL   O592 4324   2.264   5.641   4.984 -0.3230  0.2063 -0.1870
    7MOL   C593 4325   2.264   5.734   4.878 -0.0999 -0.9604  0.2651
    7MOL   C594 4326   2.309   5.871   4.921  0.0352  0.0681 -0.3330
    7MOL   C595 4327   2.276   5.968   4.803  0.8615 -0.2115  0.4962
    7MOL   C596 4328   2.282   6.115   4.841  0.1963  0.2967  0.0520
    7MOL   C597 4329   2.271   6.205   4.716 -0.6924 -0.6257  0.4646
    7MOL   C598 4330   2.253   6.355   4.763  0.0705 -0.5223  0.9052
    7MOL   C599 4331   2.224   6.453   4.648  0.6318 -0.4112 -0.4783
    7MOL   C600 4332   2.229   6.596   4.699  0.2372  0.3215  0.4792
    7MOL   C601 4333   2.430   5.484   4.937 -0.9793  0.9778 -0.6421
    7MOL   H602 4334   2.465   5.673   5.036 -1.5847  0.5356 -1.7636
    7MOL   H603 4335   2.161   5.741   4.846 -0.4622 -1.7341  1.2357
    7MOL   H604 4336   2.319   5.701   4.790 -1.2847  0.8849 -1.1968
    7MOL   H605 4337   2.416   5.868   4.938 -0.2617 -3.1114  1.2572
    7MOL   H606 4338   2.259   5.906   5.011  1.2582 -0.7594  0.6738
    7MOL   H607 4339   2.336   5.942   4.716  1.4414  1.0020  0.5358
    7MOL   H608 4340   2.171   5.957   4.775  0.7770  0.3941  0.5852
    7MOL   H609 4341   2.203   6.134   4.915 -0.0051 -0.6010  0.0770
    7MOL   H610 4342   2.367   6.132   4.908  1.8808  0.3050 -2.0522
    7MOL   H611 4343   2.368   6.196   4.669 -0.7124  1.0286  0.0772
    7MOL   H612 4344   2.192   6.168   4.651 -0.1310 -0.0174 -0.5828
    7MOL   H613 4345   2.349   6.376   4.809  0.3168 -0.7008  0.4758
    7MOL   H614 4346   2.172   6.354   4.836 -1.3946  1.1063 -0.6405
    7MOL   H615 4347   2.305   6.451   4.576  0.0949  2.1567 -1.2321
    7MOL   H616 4348   2.129   6.420   4.605  0.3327 -1.7135  1.1541
    7MOL   H617 4349   2.193   6.656   4.615 -0.9723 -2.1695 -0.8338
    7MOL   H618 4350   2.333   6.623   4.717  0.4435 -0.5477  0.5956
    7MOL   H619 4351   2.163   6.596   4.786 -0.6366  1.7711 -0.1489
    7MOL   H620 4352   2.528   5.442   4.959 -1.0935  0.6104 -0.8310
    7MOL   H621 4353   2.359   5.401   4.946  0.3414 -0.3781 -2.3291
    7MOL   H622 4354   2.426   5.505   4.830 -0.2646 -0.9312 -1.0603
    8MOL     C1 4355   4.463   2.149   7.284 -0.3889 -0.1330  0.9963
    8MOL     O2 4356   4.556   2.098   7.377 -0.4054 -0.4545 -0.1099
    8MOL     C3 4357   4.641   2.200   7.424 -0.3358  0.0228 -0.0261
    8MOL     C4 4358   4.759   2.119   7.468  0.2572 -0.4527 -0.4403
    8MOL     C5 4359   4.710   2.025   7.581 -0.3455 -0.0504 -0.2276
    8MOL     C6 4360   4.828   1.953   7.646 -0.1077 -0.1380  0.2248
    8MOL     C7 4361   4.782   1.852   7.759 -0.1438  0.4099  0.0673
    8MOL     C8 4362   4.894   1.781   0.056 -1.0073 -0.3953  0.2394
    8MOL     C9 4363   4.845   1.682   0.163  0.1475  0.8047 -0.2459
    8MOL    C10 4364   4.778   1.743   0.284 -0.4099 -0.7344  0.3936
    8MOL    C11 4365   4.345   2.052   7.264  1.3142  0.2708  0.2547
    8MOL    H12 4366   4.422   2.246   7.312 -1.3262 -0.7098  1.6841
    8MOL    H13 4367   4.604   2.259   7.508  1.9815  2.5909 -0.7365
    8MOL    H14 4368   4.682   2.269   7.351 -1.6382 -0.1852 -0.9533
    8MOL    H15 4369   4.834   2.179   7.520  0.6427 -0.5398 -0.8907
    8MOL    H16 4370   4.804   2.057   7.390  0.3191  0.4885 -1.1543
    8MOL    H17 4371   4.668   2.073   7.669  0.5059  1.3827 -0.5719
    8MOL    H18 4372   4.641   1.952   7.540 -0.1950 -0.0266 -0.5250
    8MOL    H19 4373   4.880   1.894   7.571 -1.9012  0.8557 -1.8510
    8MOL    H20 4374   4.894   2.029   7.688  1.7787 -0.0776 -2.7109
    8MOL    H21 4375   4.710   1.900   0.050 -0.8699 -0.3088 -0.1973
    8MOL    H22 4376   4.732   1.773   7.703  0.5569 -1.4197  1.9647
    8MOL    H23 4377   4.949   1.868   0.090 -0.6802  0.2873 -1.9146
    8MOL    H24 4378   4.963   1.730   7.762 -0.6038  1.9065 -1.1242
    8MOL    H25 4379   4.770   1.620   0.115 -0.5025  2.1718 -1.0181
    8MOL    H26 4380   4.926   1.618   0.200 -1.4073 -0.0757  1.7652
    8MOL    H27 4381   4.722   1.664   0.334 -0.2164 -1.0051  0.1802
    8MOL    H28 4382   4.703   1.818   0.256 -1.0238 -1.5003 -0.0488
    8MOL    H29 4383   4.849   1.794   0.350 -1.0634 -0.9882  1.3133
    8MOL    H30 4384   4.298   2.074   7.168  2.5501 -0.0060 -0.4366
    8MOL    H31 4385   4.372   1.946   7.254 -2.7370 -0.9055  0.8093
    8MOL    H32 4386   4.508   2.167   7.187  0.6484  1.0678  1.6855
    8MOL    C33 4387   4.238   2.068   7.375  0.0290  0.2895  0.0908
    8MOL    O34 4388   4.192   2.201   7.396  0.1315 -0.0572  0.4880
    8MOL    C35 4389   4.123   2.253   7.283 -0.3741  0.1582 -0.1042
    8MOL    C36 4390   4.061   2.391   7.315 -1.3362 -0.4434 -0.6058
    8MOL    C37 4391   3.977   2.400   7.443 -0.2488  0.8463 -0.1610
    8MOL    C38 4392   4.050   2.429   7.580 -0.4891 -0.3271  0.0375
    8MOL    C39 4393   3.971   2.436   7.707  0.6130 -0.5365  0.2466
    8MOL    C40 4394   3.829   2.514   7.700  0.2225  0.0409 -0.3323
    8MOL    C41 4395   3.755   2.522   0.058 -0.5294 -0.3910  0.0156
    8MOL    C42 4396   3.619   2.587   0.043  1.0335 -0.4167 -0.2969
    8MOL    C43 4397   4.291   2.023   7.517  0.4994 -0.5609 -0.4547
    8MOL    H44 4398   4.154   2.005   7.348 -0.1545 -0.1532  1.6230
    8MOL    H45 4399   4.043   2.185   7.253  1.3684 -1.2060 -1.7944
    8MOL    H46 4400   4.190   2.255   7.197  2.4503 -0.8524  1.9763
    8MOL    H47 4401   3.995   2.409   7.230 -0.5721  0.8842 -0.9199
    8MOL    H48 4402   4.142   2.461   7.334 -1.6466 -0.2932  0.1530
    8MOL    H49 4403   3.900   2.476   7.428  0.5714  1.5183 -1.0126
    8MOL    H50 4404   3.927   2.304   7.450 -0.4123  0.8049 -1.7201
    8MOL    H51 4405   4.139   2.366   7.587 -0.0209  0.3908  0.6160
    8MOL    H52 4406   4.095   2.528   7.570  0.2423 -0.6762 -0.2323
    8MOL    H53 4407   3.950   2.332   7.732  2.1480 -0.7764  0.5454
    8MOL    H54 4408   4.027   2.483   0.013 -0.4150  1.8414 -0.3736
    8MOL    H55 4409   3.776   2.472   7.615 -0.9262  0.2692  0.2660
    8MOL    H56 4410   3.854   2.613   7.661 -1.2005 -0.4695 -2.6041
    8MOL    H57 4411   3.744   2.423   0.103  1.1115  0.0632  1.5027
    8MOL    H58 4412   3.798   2.591   0.130 -0.8483 -0.7751  0.5799
    8MOL    H59 4413   3.546   2.536   7.756  0.2042 -0.8514  1.0207
    8MOL    H60 4414   3.636   2.687   0.002 -0.1430 -1.1251 -2.5349
    8MOL    H61 4415   3.573   2.602   0.141 -0.6588 -0.5501 -1.0651
    8MOL    H62 4416   4.314   1.917   7.502  0.4956 -0.6370  0.0856
    8MOL    H63 4417   4.370   2.092   7.542  2.0324 -1.6865 -2.0389
    8MOL    C64 4418   4.172   2.025   7.615  0.2520 -0.5295  0.4980
    8MOL    O65 4419   4.230   2.033   7.750  0.4447  0.2482 -0.1031
    8MOL    C66 4420   4.258   2.165   0.015  0.2256 -0.3723 -0.1089
    8MOL    C67 4421   4.284   2.173   0.164 -0.4394 -0.0922  0.4556
    8MOL    C68 4422   4.306   2.317   0.212 -0.2807 -0.2112 -0.0760
    8MOL    C69 4423   4.365   2.313   0.359 -0.0069  0.4182  0.1196
    8MOL    C70 4424   4.417   2.439   0.411  0.0802 -1.0720 -0.4129
    8MOL    C71 4425   4.470   2.420   0.560  1.5989 -0.3191 -0.7194
    8MOL    C72 4426   4.556   2.542   0.616 -0.5749  0.4710  0.4650
    8MOL    C73 4427   4.498   2.676   0.582 -0.0413 -0.5575 -0.0027
    8MOL    C74 4428   4.082   1.903   7.610 -0.4246  0.4256  0.1946
    8MOL    H75 4429   4.114   2.117   7.608  0.3762 -0.4872  0.0285
    8MOL    H76 4430   4.175   2.233   7.772 -0.6357 -1.7541 -1.5408
    8MOL    H77 4431   4.349   2.203   7.742 -0.0419  0.4267  0.0093
    8MOL    H78 4432   4.372   2.111   0.180  1.5419  1.6253 -2.9768
    8MOL    H79 4433   4.199   2.127   0.213  0.5554 -2.5033 -0.0119
    8MOL    H80 4434   4.385   2.361   0.150 -0.2464 -1.8648 -1.2294
    8MOL    H81 4435   4.217   2.378   0.199 -0.3588 -0.5253 -1.0675
    8MOL    H82 4436   4.297   2.270   0.433  0.0671  1.2288  0.6637
    8MOL    H83 4437   4.448   2.242   0.363  0.2326  0.7157  0.4430
    8MOL    H84 4438   4.498   2.470   0.346  0.0431  0.9140  0.4387
    8MOL    H85 4439   4.344   2.519   0.418  2.0259  0.6543  0.6968
    8MOL    H86 4440   4.525   2.326   0.576 -0.0447 -1.2995 -0.7465
    8MOL    H87 4441   4.386   2.436   0.627  0.5740  4.0741 -2.8731
    8MOL    H88 4442   4.574   2.534   0.723  1.2657 -0.2174  0.1329
    8MOL    H89 4443   4.655   2.537   0.570 -1.6308 -2.8297 -1.6521
    8MOL    H90 4444   4.543   2.766   0.625  1.6020 -1.5161  0.3326
    8MOL    H91 4445   4.391   2.683   0.602  0.0556  0.0681  0.3189
    8MOL    H92 4446   4.501   2.682   0.474 -0.9784 -1.4958 -0.0895
    8MOL    H93 4447   4.036   1.905   7.511 -0.3785  1.1375  0.1858
    8MOL    H94 4448   4.139   1.810   7.611 -0.9985  0.0788  1.0283
    8MOL    C95 4449   3.983   1.887   7.725  0.1733 -0.1297 -0.1254
    8MOL    O96 4450   3.927   1.753   7.711 -0.4036  0.3793 -0.4630
    8MOL    C97 4451   3.959   1.664   0.042 -0.2010  0.3014 -0.4924
    8MOL    C98 4452   3.868   1.535   0.037 -0.0394 -0.2083  0.0571
    8MOL    C99 4453   3.715   1.560   0.061  0.5500 -0.4028 -0.5239
    8MOL   C100 4454   3.641   1.431   0.087 -0.0204  0.0128 -0.3309
    8MOL   C101 4455   3.499   1.442   0.026 -1.2139 -0.4123 -0.2837
    8MOL   C102 4456   3.409   1.314   0.049 -0.1586  0.1919  0.9183
    8MOL   C103 4457   3.269   1.324   0.002 -1.1806  0.0683  0.4448
    8MOL   C104 4458   3.197   1.191   0.021  0.3225  0.2280 -0.6170
    8MOL   C105 4459   3.868   1.991   7.743 -0.0400  0.0043 -0.0314
    8MOL   H106 4460   4.039   1.888   0.045  2.0473 -2.1703 -1.1577
    8MOL   H107 4461   3.936   1.716   0.135  1.3279 -1.0062  0.6390
    8MOL   H108 4462   4.063   1.637   0.026 -0.0083 -0.2201  1.5467
    8MOL   H109 4463   3.901   1.465   0.112  0.1591  0.2434  0.3923
    8MOL   H110 4464   3.880   1.497   7.710 -1.1458  2.6928 -1.2187
    8MOL   H111 4465   3.706   1.611   0.156 -2.2067 -1.3842 -0.2128
    8MOL   H112 4466   3.668   1.626   7.762  1.6652  1.1127  0.1091
    8MOL   H113 4467   3.702   1.350   0.047  1.9935  1.4690 -0.2925
    8MOL   H114 4468   3.646   1.415   0.195 -1.3337  0.0720 -0.2546
    8MOL   H115 4469   3.442   1.527   0.062 -1.3581  0.8478 -3.2779
    8MOL   H116 4470   3.510   1.463   7.693  0.0903  1.2905  0.1612
    8MOL   H117 4471   3.399   1.284   0.153 -0.0769  0.0055  0.8743
    8MOL   H118 4472   3.456   1.232   7.769  1.1076  1.3187  0.2923
    8MOL   H119 4473   3.215   1.397   0.061 -0.4464  0.7110  0.3211
    8MOL   H120 4474   3.257   1.353   7.671 -2.4492  0.6090  0.7284
    8MOL   H121 4475   3.242   1.110   7.737  0.4859 -0.0679 -0.0766
    8MOL   H122 4476   3.093   1.207   7.767  0.1672  1.6169  0.7351
    8MOL   H123 4477   3.186   1.164   0.126 -0.1322 -3.0904 -1.4331
    8MOL   H124 4478   3.906   2.093   7.739 -2.2055  0.8935  1.4156
    8MOL   H125 4479   3.805   1.981   7.655  2.4732  0.1460 -1.9096
    8MOL   C126 4480   3.781   1.985   0.097  0.2124 -0.0804 -0.5545
    8MOL   O127 4481   3.673   2.077   0.090  0.1383 -0.3128 -0.2681
    8MOL   C128 4482   3.562   2.011   0.044 -0.7415  0.7663  0.6986
    8MOL   C129 4483   3.440   2.109   0.032  0.2551  0.4019 -0.0204
    8MOL   C130 4484   3.472   2.241   7.744 -0.7487 -0.5867 -0.0212
    8MOL   C131 4485   3.504   2.212   7.590 -0.1994 -0.5451  0.7459
    8MOL   C132 4486   3.508   2.329   7.499  0.2634  0.1038 -0.8497
    8MOL   C133 4487   3.569   2.310   7.359 -0.1491 -0.1693 -0.0815
    8MOL   C134 4488   3.585   2.442   7.284 -0.0014  0.1558  0.8140
    8MOL   C135 4489   3.473   2.473   7.183  0.0624 -0.5481 -0.3972
    8MOL   C136 4490   3.862   2.019   0.226 -0.0591 -0.1420  0.0110
    8MOL   H137 4491   3.746   1.884   0.115 -2.1183  0.4253 -2.1020
    8MOL   H138 4492   3.535   1.929   0.110  1.0461 -1.0562 -0.7636
    8MOL   H139 4493   3.584   1.962   7.723  0.3504  0.4914  1.0795
    8MOL   H140 4494   3.413   2.129   0.136 -0.8933 -1.6343  0.1129
    8MOL   H141 4495   3.354   2.062   7.757 -0.4594  2.0575 -0.3683
    8MOL   H142 4496   3.381   2.300   7.755 -1.3882 -1.6958  0.8084
    8MOL   H143 4497   3.554   2.293   0.018  0.1537  0.0628 -2.1749
    8MOL   H144 4498   3.607   2.176   7.582 -1.0979 -2.4288 -4.7029
    8MOL   H145 4499   3.442   2.136   7.542  0.1032 -0.2248 -0.1433
    8MOL   H146 4500   3.407   2.365   7.483  0.4032  2.5526  3.0183
    8MOL   H147 4501   3.563   2.414   7.540  2.1265 -1.7366  0.6474
    8MOL   H148 4502   3.503   2.240   7.308  0.0545 -0.4000 -0.0230
    8MOL   H149 4503   3.667   2.266   7.375 -0.9752 -1.9654  0.1704
    8MOL   H150 4504   3.608   2.524   7.352 -1.4542  0.2997  1.1609
    8MOL   H151 4505   3.679   2.448   7.229 -0.4724  0.0245 -0.0300
    8MOL   H152 4506   3.490   2.575   7.149  1.2073 -0.9572 -1.0791
    8MOL   H153 4507   3.373   2.466   7.226 -0.2525 -0.8981 -1.1778
    8MOL   H154 4508   3.475   2.408   7.096  2.5438 -0.8580 -0.1395
    8MOL   H155 4509   3.943   1.948   0.244  0.0234  0.2229  1.1231
    8MOL   H156 4510   3.920   2.109   0.209 -1.6356  0.7802 -0.5939
    8MOL   C157 4511   3.773   2.030   0.354  0.1062 -0.0497  0.6744
    8MOL   O158 4512   3.867   2.088   0.448  0.3445 -0.3375 -0.3081
    8MOL   C159 4513   3.868   2.229   0.470 -0.1784  0.0346  0.4402
    8MOL   C160 4514   3.984   2.264   0.568 -0.2762  0.0766 -0.6055
    8MOL   C161 4515   3.955   2.205   0.705  0.0673 -0.0801  0.2711
    8MOL   C162 4516   4.010   2.281   0.825 -0.3022 -0.4071 -0.1182
    8MOL   C163 4517   3.957   2.209   0.956  0.5856 -0.3084 -0.2377
    8MOL   C164 4518   4.004   2.285   1.086 -0.2804 -0.0429 -0.4090
    8MOL   C165 4519   4.156   2.321   1.089  0.3732  0.5442 -0.1357
    8MOL   C166 4520   4.221   2.368   1.223  0.1151 -0.2723  0.3014
    8MOL   C167 4521   3.726   1.898   0.409  0.1218 -0.4549  0.9338
    8MOL   H168 4522   3.690   2.094   0.326  1.8860  0.7839 -3.0552
    8MOL   H169 4523   3.778   2.268   0.517  0.5144 -0.2804  2.0834
    8MOL   H170 4524   3.892   2.275   0.374 -1.2069 -0.1150  0.1046
    8MOL   H171 4525   3.991   2.371   0.587  3.9733 -0.1909 -0.3284
    8MOL   H172 4526   4.080   2.224   0.535  0.0004 -0.2499  0.5878
    8MOL   H173 4527   3.848   2.202   0.729  0.6452 -0.3211  2.9700
    8MOL   H174 4528   4.011   2.112   0.710 -0.3730 -0.4574 -1.3978
    8MOL   H175 4529   4.119   2.282   0.819 -0.3179  2.8769 -0.7722
    8MOL   H176 4530   3.982   2.386   0.819  0.2281 -0.2351  0.4053
    8MOL   H177 4531   3.849   2.199   0.960  0.5530  0.5131  1.7706
    8MOL   H178 4532   3.980   2.103   0.949  2.0260  0.0970 -1.9485
    8MOL   H179 4533   3.985   2.218   1.170  1.8479  0.8602  0.8319
    8MOL   H180 4534   3.943   2.375   1.093 -1.1619 -0.4949 -1.9671
    8MOL   H181 4535   4.220   2.242   1.051 -1.1660 -0.4755 -0.6735
    8MOL   H182 4536   4.177   2.402   1.019  2.8233  1.4484  1.5724
    8MOL   H183 4537   4.322   2.329   1.236  0.6643  0.4420 -1.6773
    8MOL   H184 4538   4.155   2.341   1.306  0.8461  1.9464  1.6503
    8MOL   H185 4539   4.234   2.476   1.220 -0.3584 -0.2229 -0.0549
    8MOL   H186 4540   3.645   1.867   0.343  1.2753 -1.7766  0.1254
    8MOL   H187 4541   3.805   1.825   0.398  1.6756  1.1722  1.0385
    8MOL   C188 4542   3.674   1.891   0.561  0.5596  0.1946 -0.6178
    8MOL   O189 4543   3.612   1.769   0.589  0.7737 -0.4587 -0.0900
    8MOL   C190 4544   3.703   1.670   0.638  0.5723 -0.4350 -0.3557
    8MOL   C191 4545   3.623   1.559   0.709 -0.0675  0.5349  0.5233
    8MOL   C192 4546   3.550   1.460   0.619 -0.5013  1.1088 -0.0673
    8MOL   C193 4547   3.647   1.345   0.577 -0.5094  0.3403  1.0644
    8MOL   C194 4548   3.571   1.243   0.492 -0.0935  0.3635  0.9918
    8MOL   C195 4549   3.669   1.128   0.446 -0.5699  0.0878  0.3505
    8MOL   C196 4550   3.646   1.066   0.303 -0.2328 -0.6124 -0.4407
    8MOL   C197 4551   3.527   0.974   0.298 -0.4257 -0.2158  0.4206
    8MOL   C198 4552   3.563   1.995   0.582 -0.0783 -0.0327  0.4898
    8MOL   H199 4553   3.755   1.921   0.627 -0.3814  2.2115 -0.3471
    8MOL   H200 4554   3.779   1.642   0.566 -0.4930 -0.7689 -1.3594
    8MOL   H201 4555   3.764   1.714   0.717 -1.1210 -0.8546  1.2207
    8MOL   H202 4556   3.553   1.605   0.779 -0.6768  3.2653 -1.7864
    8MOL   H203 4557   3.691   1.503   0.774 -1.5534 -0.4267  1.2731
    8MOL   H204 4558   3.472   1.408   0.674  1.2385  0.8392  2.2425
    8MOL   H205 4559   3.495   1.497   0.533 -1.2674  1.7766  0.7061
    8MOL   H206 4560   3.724   1.390   0.514 -1.7151  0.9426 -0.0037
    8MOL   H207 4561   3.690   1.296   0.664  1.2622 -0.6732 -0.3532
    8MOL   H208 4562   3.488   1.197   0.546  2.0993 -3.5517  1.2631
    8MOL   H209 4563   3.524   1.277   0.400 -1.9947 -1.9057  1.0755
    8MOL   H210 4564   3.660   1.043   0.514  0.3207 -0.7497 -0.5816
    8MOL   H211 4565   3.771   1.162   0.458 -1.1483  1.5330  1.4185
    8MOL   H212 4566   3.619   1.143   0.231 -2.4331 -1.2857 -0.3481
    8MOL   H213 4567   3.734   1.018   0.262  0.4024 -0.4959  0.7406
    8MOL   H214 4568   3.448   1.027   0.350  0.2909 -0.9615  2.3299
    8MOL   H215 4569   3.529   0.875   0.345  0.7307  0.0893  1.0532
    8MOL   H216 4570   3.498   0.967   0.194  1.1159  0.9220 -0.1030
    8MOL   H217 4571   3.587   2.098   0.556  3.0520 -0.4385  1.5355
    8MOL   H218 4572   3.488   1.970   0.508  0.9233  1.7653 -1.1701
    8MOL   C219 4573   3.495   2.004   0.723  0.4055  0.2405 -0.8940
    8MOL   O220 4574   3.372   2.081   0.716 -0.4278  0.2085  0.3181
    8MOL   C221 4575   3.272   2.029   0.638 -0.1204  0.4598 -0.4167
    8MOL   C222 4576   3.142   2.065   0.700  0.3173 -0.4687  0.0848
    8MOL   C223 4577   3.020   2.037   0.614  0.7977 -0.8834  0.7286
    8MOL   C224 4578   2.888   2.047   0.694 -0.8715  0.4637  0.0579
    8MOL   C225 4579   2.761   1.963   0.632  0.1904 -0.0099 -0.0845
    8MOL   C226 4580   2.636   1.946   0.719  0.3401  0.3140  0.1648
    8MOL   C227 4581   2.512   1.900   0.639 -0.5454 -0.3297  0.6499
    8MOL   C228 4582   2.527   1.760   0.576  0.0627  0.1177  0.5454
    8MOL   C229 4583   3.571   2.077   0.836 -0.2913  0.9532  0.4350
    8MOL   H230 4584   3.459   1.902   0.737 -1.8410  0.7954 -2.2799
    8MOL   H231 4585   3.282   1.920   0.643 -1.9520  0.3453  3.4505
    8MOL   H232 4586   3.273   2.069   0.537 -0.5926  1.7197  0.0713
    8MOL   H233 4587   3.142   2.174   0.706  2.3497 -0.5219  1.3136
    8MOL   H234 4588   3.131   2.030   0.803  0.1865 -0.3617  0.1081
    8MOL   H235 4589   3.017   2.115   0.539 -0.7579  0.4054  2.0935
    8MOL   H236 4590   3.040   1.937   0.576 -1.0656 -0.5140 -1.3298
    8MOL   H237 4591   2.907   2.019   0.797  0.1826  0.5439 -0.1082
    8MOL   H238 4592   2.857   2.151   0.699  0.4849  0.8327  0.9467
    8MOL   H239 4593   2.743   2.019   0.540  0.2178  1.0990  0.5695
    8MOL   H240 4594   2.799   1.862   0.615  2.4433  0.7783  0.0601
    8MOL   H241 4595   2.614   2.043   0.764 -3.2096 -0.2792 -0.1669
    8MOL   H242 4596   2.650   1.881   0.805  1.3996  0.6013  0.2207
    8MOL   H243 4597   2.431   1.887   0.710 -0.1361 -1.2305  0.9542
    8MOL   H244 4598   2.494   1.978   0.564  2.4923 -0.7071 -0.5383
    8MOL   H245 4599   2.441   1.733   0.515  0.7238  2.1380 -1.3522
    8MOL   H246 4600   2.535   1.685   0.654  3.2377 -0.2187 -0.0199
    8MOL   H247 4601   2.615   1.767   0.511 -1.0756  1.1581 -0.9231
    8MOL   H248 4602   3.676   2.102   0.820  0.4020 -0.7160  2.1126
    8MOL   H249 4603   3.524   2.174   0.854 -1.5658  1.3195 -4.2084
    8MOL   C250 4604   3.575   2.000   0.966  0.7025 -0.4084  0.5017
    8MOL   O251 4605   3.641   2.080   1.071 -0.5126  0.2641 -0.0104
    8MOL   C252 4606   3.571   2.111   1.190 -0.9876  0.2341  0.6860
    8MOL   C253 4607   3.654   2.208   1.272  0.4038  0.4781  0.5380
    8MOL   C254 4608   3.638   2.353   1.229 -0.4363 -0.6643  0.2659
    8MOL   C255 4609   3.721   2.451   1.310  0.1700 -0.0353 -0.1756
    8MOL   C256 4610   3.712   2.592   1.268 -0.4644 -0.0706 -0.5936
    8MOL   C257 4611   3.777   2.688   1.368 -0.2038 -0.3782  0.0363
    8MOL   C258 4612   3.764   2.836   1.326  0.1187  0.3756  0.3464
    8MOL   C259 4613   3.831   2.942   1.407  0.2710 -0.4055  0.4504
    8MOL   C260 4614   3.651   1.867   0.948 -0.0876 -0.1859 -0.8537
    8MOL   H261 4615   3.474   1.982   1.001  1.2620 -3.8175  0.5317
    8MOL   H262 4616   3.559   2.020   1.249  0.6807 -1.1476 -1.0618
    8MOL   H263 4617   3.473   2.154   1.171  0.2126  2.4451 -0.7250
    8MOL   H264 4618   3.759   2.184   1.261  0.3501 -0.0407  1.1254
    8MOL   H265 4619   3.619   2.192   1.374 -1.5190  1.2517  0.0307
    8MOL   H266 4620   3.660   2.367   1.123 -2.3016  0.4750  0.0226
    8MOL   H267 4621   3.535   2.387   1.230  0.4571  2.1960 -0.9036
    8MOL   H268 4622   3.686   2.438   1.412  2.3844 -1.2257  0.4686
    8MOL   H269 4623   3.824   2.417   1.323 -0.1872 -1.0574  0.1070
    8MOL   H270 4624   3.733   2.609   1.163  1.5967 -1.4244 -0.4294
    8MOL   H271 4625   3.605   2.610   1.278 -0.8195 -2.1761 -0.3807
    8MOL   H272 4626   3.882   2.660   1.379 -0.0067 -1.1330 -3.4072
    8MOL   H273 4627   3.722   2.666   1.460  0.0293 -1.5607 -0.0984
    8MOL   H274 4628   3.808   2.851   1.228  0.9447  2.5001  1.0264
    8MOL   H275 4629   3.661   2.870   1.325  0.7322  2.3898  1.8860
    8MOL   H276 4630   3.772   3.033   1.409  2.3438  0.9508  0.9557
    8MOL   H277 4631   3.933   2.963   1.374 -0.2707  3.3108  0.9528
    8MOL   H278 4632   3.840   2.910   1.511  0.3050 -1.2215  0.2006
    8MOL   H279 4633   3.624   1.812   0.858  1.1024 -2.9416  0.4216
    8MOL   H280 4634   3.755   1.893   0.929  0.3648  0.9920  2.7731
    8MOL   C281 4635   3.635   1.772   1.066 -0.1816 -0.1883 -0.3232
    8MOL   O282 4636   3.731   1.669   1.060 -0.1398 -0.5383 -0.0334
    8MOL   C283 4637   3.855   1.701   1.127 -0.4935 -0.3904 -0.0816
    8MOL   C284 4638   3.946   1.579   1.122  0.7171  0.4800  0.2541
    8MOL   C285 4639   4.074   1.594   1.211  0.7841 -0.3693 -0.4289
    8MOL   C286 4640   4.194   1.495   1.192  0.3177  0.4230  0.0499
    8MOL   C287 4641   4.320   1.539   1.269  0.2836  0.1359  0.4234
    8MOL   C288 4642   4.302   1.567   1.413 -0.2394  0.5280 -0.2461
    8MOL   C289 4643   4.291   1.449   1.505 -0.0824  0.6471 -0.8340
    8MOL   C290 4644   4.306   1.494   1.650  0.5269  0.0362 -0.1179
    8MOL   C291 4645   3.499   1.701   1.075  0.1905 -0.6224 -0.5482
    8MOL   H292 4646   3.654   1.828   1.158 -1.4903 -2.2867  1.2870
    8MOL   H293 4647   3.822   1.716   1.229  0.6538 -3.0460  0.7298
    8MOL   H294 4648   3.907   1.785   1.081  1.6076 -0.7928  1.4834
    8MOL   H295 4649   3.975   1.559   1.019 -0.1911 -0.3757  0.1496
    8MOL   H296 4650   3.884   1.499   1.163 -0.0157  1.1027  0.3829
    8MOL   H297 4651   4.105   1.694   1.179  0.4222 -0.5580 -1.3773
    8MOL   H298 4652   4.036   1.590   1.313  0.4111  2.1639 -0.4230
    8MOL   H299 4653   4.161   1.405   1.243  1.2585 -0.7182 -1.3294
    8MOL   H300 4654   4.208   1.469   1.087 -0.2503 -1.5636  0.4622
    8MOL   H301 4655   4.384   1.452   1.253  0.5602  0.8618 -2.8154
    8MOL   H302 4656   4.375   1.621   1.223  0.4309  0.7121  1.6194
    8MOL   H303 4657   4.218   1.636   1.428 -1.1217 -0.9654  1.9163
    8MOL   H304 4658   4.397   1.605   1.451 -1.5121  1.3685  2.2107
    8MOL   H305 4659   4.194   1.399   1.498 -0.2231  0.8938 -0.6176
    8MOL   H306 4660   4.358   1.365   1.488  1.6815  1.9343 -0.2959
    8MOL   H307 4661   4.251   1.588   1.662 -0.6720 -0.8615  1.7379
    8MOL   H308 4662   4.410   1.515   1.676  0.3530 -1.4820  1.8977
    8MOL   H309 4663   4.267   1.424   1.724  1.8239  0.0772  0.6265
    8MOL   H310 4664   3.419   1.775   1.074  0.5159 -0.2502  0.7848
    8MOL   H311 4665   3.480   1.645   0.983  0.6617 -1.7839  0.0540
    8MOL   C312 4666   3.480   1.609   1.188  0.3411 -0.7163 -0.0565
    8MOL   O313 4667   3.340   1.560   1.193 -1.0001  0.0171 -0.3200
    8MOL   C314 4668   3.311   1.430   1.144  0.0512 -0.2967  0.0204
    8MOL   C315 4669   3.168   1.411   1.183  0.2970  0.5919  0.1082
    8MOL   C316 4670   3.113   1.266   1.177 -0.2633  0.1207 -0.9652
    8MOL   C317 4671   2.973   1.250   1.243 -0.0523 -0.3740 -0.4307
    8MOL   C318 4672   2.921   1.106   1.242  0.6859  0.5172  0.4882
    8MOL   C319 4673   2.779   1.086   1.290 -0.3051  0.1772 -0.9034
    8MOL   C320 4674   2.743   0.933   1.296  0.4660  0.9263 -0.4729
    8MOL   C321 4675   2.592   0.922   1.323  0.3098 -0.5149  0.2699
    8MOL   C322 4676   3.520   1.654   1.330 -0.6114 -0.2794 -0.3694
    8MOL   H323 4677   3.543   1.525   1.162 -2.4602 -2.9945  0.2915
    8MOL   H324 4678   3.375   1.353   1.187 -0.0043  0.1140  0.8433
    8MOL   H325 4679   3.318   1.427   1.035 -2.0366  1.5178 -0.2033
    8MOL   H326 4680   3.098   1.468   1.121  2.0104  1.2149 -1.2974
    8MOL   H327 4681   3.154   1.453   1.282  0.5174  1.9082 -0.4037
    8MOL   H328 4682   3.120   1.235   1.072  2.7058 -0.4642 -0.6279
    8MOL   H329 4683   3.178   1.201   1.236 -0.8411  0.1462 -0.2943
    8MOL   H330 4684   2.973   1.280   1.348 -1.1393 -1.5004 -0.0910
    8MOL   H331 4685   2.906   1.324   1.199  0.4897 -0.2517 -1.0738
    8MOL   H332 4686   2.921   1.069   1.140 -3.2681  1.3774  0.1065
    8MOL   H333 4687   2.985   1.045   1.306  0.3885 -2.6909 -2.1565
    8MOL   H334 4688   2.709   1.136   1.223  0.3198 -0.2507 -1.8798
    8MOL   H335 4689   2.766   1.132   1.388 -2.2633 -0.4074 -0.8663
    8MOL   H336 4690   2.769   0.887   1.200  1.5802  0.9571 -0.1987
    8MOL   H337 4691   2.795   0.887   1.380  0.0839 -0.5922 -1.0529
    8MOL   H338 4692   2.556   0.949   1.422  0.1711 -1.1534  0.3955
    8MOL   H339 4693   2.561   0.818   1.310 -1.0193 -0.5906  3.5222
    8MOL   H340 4694   2.523   0.976   1.257  1.3128 -0.3707 -0.6753
    8MOL   H341 4695   3.535   1.560   1.383  1.0214  0.8143  1.1440
    8MOL   H342 4696   3.614   1.709   1.334 -1.7767  1.6591  0.8769
    8MOL   C343 4697   3.406   1.736   1.396  0.1145 -0.8679 -0.3974
    8MOL   O344 4698   3.367   1.841   1.317  0.2580  0.2585 -0.1786
    8MOL   C345 4699   3.234   1.877   1.334  0.1571 -0.0293  0.1705
    8MOL   C346 4700   3.201   2.003   1.243  0.9634  0.7013  0.3306
    8MOL   C347 4701   3.057   2.066   1.258 -0.2258  0.4362 -0.2108
    8MOL   C348 4702   3.041   2.165   1.151 -0.1082 -0.1899 -0.0193
    8MOL   C349 4703   2.935   2.280   1.186 -0.4472 -0.0710 -1.2665
    8MOL   C350 4704   2.871   2.356   1.062  0.3850 -0.1733 -0.1241
    8MOL   C351 4705   2.982   2.382   0.950  0.2664 -0.7057  0.4508
    8MOL   C352 4706   2.933   2.443   0.821 -0.0111  0.4627 -0.6449
    8MOL   C353 4707   3.463   1.810   1.526  0.4211 -0.5889  0.3274
    8MOL   H354 4708   3.324   1.668   1.418  0.5846 -1.1980  0.3625
    8MOL   H355 4709   3.209   1.899   1.438  0.2295  0.9843 -0.0190
    8MOL   H356 4710   3.175   1.794   1.296 -1.5984  0.6089  1.4551
    8MOL   H357 4711   3.200   1.966   1.140 -0.0880  1.8700 -0.0983
    8MOL   H358 4712   3.273   2.081   1.268 -1.2561  2.4068  1.5608
    8MOL   H359 4713   2.989   1.981   1.252 -1.5657  1.4096  0.8001
    8MOL   H360 4714   3.046   2.113   1.356 -0.8980 -0.6521  0.2438
    8MOL   H361 4715   3.127   2.224   1.117 -0.5602  1.9646  2.3827
    8MOL   H362 4716   3.012   2.115   1.059 -0.1636  0.9118 -0.6093
    8MOL   H363 4717   2.854   2.220   1.227 -0.6539  3.0839  3.2792
    8MOL   H364 4718   2.982   2.337   1.266 -2.4296 -0.7258  0.3934
    8MOL   H365 4719   2.819   2.446   1.096  1.0106 -0.3100  1.2208
    8MOL   H366 4720   2.795   2.291   1.021 -0.4953  0.5590  0.3310
    8MOL   H367 4721   3.058   2.444   0.998  1.5326 -0.6887 -1.5177
    8MOL   H368 4722   3.027   2.286   0.923  2.1230  0.4942 -0.8587
    8MOL   H369 4723   2.901   2.547   0.823 -0.2711  0.3714  0.0517
    8MOL   H370 4724   2.844   2.392   0.784 -0.1057 -1.7456  2.4532
    8MOL   H371 4725   3.010   2.426   0.745  0.8373 -0.0216  0.3143
    8MOL   H372 4726   3.535   1.880   1.484  0.6429 -1.0805 -0.1139
    8MOL   H373 4727   3.390   1.879   1.569  0.6816 -0.5112  0.6479
    8MOL   C374 4728   3.524   1.726   1.639  0.3280 -0.4184 -0.6010
    8MOL   O375 4729   3.429   1.618   1.653 -0.7648  0.0806  0.4339
    8MOL   C376 4730   3.458   1.510   1.749  0.3026 -0.5490  0.6303
    8MOL   C377 4731   3.376   1.382   1.709 -0.2627 -0.0351 -0.2001
    8MOL   C378 4732   3.435   1.315   1.587  0.3511 -0.2892 -0.2345
    8MOL   C379 4733   3.343   1.196   1.547 -0.7717 -0.5303 -0.2518
    8MOL   C380 4734   3.416   1.125   1.432 -0.2428 -0.6311  0.1387
    8MOL   C381 4735   3.334   1.009   1.363 -0.5622 -0.5558  1.2364
    8MOL   C382 4736   3.355   0.987   1.217  0.6816  0.0586  0.2121
    8MOL   C383 4737   3.256   0.905   1.136  0.5921 -0.0776 -0.4202
    8MOL   C384 4738   3.544   1.793   1.774  0.1140 -0.0565 -0.4362
    8MOL   H385 4739   3.621   1.681   1.616  0.0689 -0.9630 -0.6340
    8MOL   H386 4740   3.415   1.518   1.848  0.1058 -1.0296  0.5873
    8MOL   H387 4741   3.563   1.483   1.751  0.1071 -1.4384 -0.4067
    8MOL   H388 4742   3.273   1.417   1.696  0.2788  1.2530 -1.1096
    8MOL   H389 4743   3.366   1.318   1.796 -0.0619  0.3345  0.0923
    8MOL   H390 4744   3.448   1.391   1.510  0.7303  2.6140  2.6265
    8MOL   H391 4745   3.535   1.279   1.611 -0.4877 -0.7687  2.7990
    8MOL   H392 4746   3.322   1.118   1.621  1.3534  1.5995  2.7166
    8MOL   H393 4747   3.255   1.242   1.504 -0.6680 -0.0425  0.0590
    8MOL   H394 4748   3.432   1.204   1.359  2.7201 -1.3502 -0.0310
    8MOL   H395 4749   3.519   1.100   1.455  0.1047 -1.2839 -2.0498
    8MOL   H396 4750   3.228   1.028   1.382 -1.0006 -0.2045 -1.3792
    8MOL   H397 4751   3.346   0.916   1.418 -0.5062 -0.4576  1.3906
    8MOL   H398 4752   3.378   1.083   1.172 -0.4348  0.1163 -0.2509
    8MOL   H399 4753   3.445   0.927   1.203 -0.0875 -0.9067 -0.6504
    8MOL   H400 4754   3.284   0.913   1.031  1.4677  1.9767 -0.0598
    8MOL   H401 4755   3.156   0.950   1.134 -0.8124 -3.0176  1.1125
    8MOL   H402 4756   3.243   0.809   1.185  3.3977 -0.4953 -0.4239
    8MOL   H403 4757   3.447   1.812   1.818 -0.3302  0.8135 -1.7493
    8MOL   H404 4758   3.596   1.727   1.843 -1.1155 -1.1612 -0.5694
    8MOL   C405 4759   3.628   1.926   1.772 -0.4069  0.6624  0.7506
    8MOL   O406 4760   3.550   2.027   1.708 -0.3656  0.9728  0.6642
    8MOL   C407 4761   3.433   2.083   1.761 -0.4779  0.5084 -0.1495
    8MOL   C408 4762   3.393   2.209   1.692 -0.3827  0.1440 -0.2730
    8MOL   C409 4763   3.350   2.196   1.548  0.1743 -0.1222 -0.2544
    8MOL   C410 4764   3.274   2.330   1.510  0.2468 -0.2550 -0.9427
    8MOL   C411 4765   3.374   2.458   1.508 -0.7234 -0.1464  0.4034
    8MOL   C412 4766   3.302   2.599   1.510  0.7485 -0.3952 -0.4959
    8MOL   C413 4767   3.200   2.627   1.409  0.0961  0.3312  0.6098
    8MOL   C414 4768   3.255   2.625   1.259  0.2672  0.3919 -0.1426
    8MOL   C415 4769   3.764   1.911   1.701  0.0408 -0.3064 -0.6123
    8MOL   H416 4770   3.643   1.956   1.875  2.0791 -1.5505  1.1053
    8MOL   H417 4771   3.463   2.104   1.863  0.6623 -0.3420 -0.3089
    8MOL   H418 4772   3.354   2.007   1.760 -0.8824  0.9264 -1.7749
    8MOL   H419 4773   3.481   2.272   1.701 -1.2088  1.1777  0.6503
    8MOL   H420 4774   3.317   2.257   1.754 -0.5384  1.7662 -1.6876
    8MOL   H421 4775   3.436   2.188   1.481  1.1444  3.8344  0.3958
    8MOL   H422 4776   3.279   2.116   1.530 -1.0842  0.9727 -0.2626
    8MOL   H423 4777   3.224   2.319   1.413 -0.8952 -0.8226 -0.2902
    8MOL   H424 4778   3.190   2.351   1.576 -1.2929 -1.3888 -2.4703
    8MOL   H425 4779   3.435   2.456   1.597 -0.2121  0.9541  0.0854
    8MOL   H426 4780   3.440   2.451   1.421 -2.0632  2.3928 -0.8944
    8MOL   H427 4781   3.387   2.667   1.506  1.0944 -0.8142 -0.2361
    8MOL   H428 4782   3.256   2.616   1.607  2.4233 -0.8385  0.3913
    8MOL   H429 4783   3.125   2.548   1.400 -2.0350  2.3352  0.4279
    8MOL   H430 4784   3.141   2.716   1.430 -3.1184 -1.9527  1.5526
    8MOL   H431 4785   3.175   2.625   1.185  1.4157 -0.7620 -1.4234
    8MOL   H432 4786   3.295   2.525   1.241 -1.3399 -0.4418  0.6985
    8MOL   H433 4787   3.330   2.702   1.243 -1.1862  1.6962 -0.8410
    8MOL   H434 4788   3.809   1.829   1.756 -1.1241  0.4866  1.5948
    8MOL   H435 4789   3.756   1.873   1.600  0.2493 -0.9265 -0.3970
    8MOL   C436 4790   3.865   2.031   1.708  0.1503 -0.0216  0.0422
    8MOL   O437 4791   3.984   1.994   1.641 -0.0067 -0.1324  0.2417
    8MOL   C438 4792   3.983   2.016   1.502 -0.0242  0.1129 -0.0131
    8MOL   C439 4793   4.114   1.969   1.434  0.6655 -0.3002 -0.1664
    8MOL   C440 4794   4.248   2.037   1.480 -0.5225  0.3435  0.0094
    8MOL   C441 4795   4.294   1.996   1.622 -0.3323  0.1550 -0.1382
    8MOL   C442 4796   4.440   2.033   1.663  0.3588  0.7402  0.0435
    8MOL   C443 4797   4.495   2.010   1.803  0.2608 -0.2143  0.8319
    8MOL   C444 4798   4.653   2.029   1.815 -0.5419 -0.0668 -0.5826
    8MOL   C445 4799   4.723   1.995   1.952  0.3831 -0.0796 -0.0396
    8MOL   C446 4800   3.891   2.074   1.852  0.2216  0.9250  0.8903
    8MOL   H447 4801   3.820   2.114   1.654 -1.1901  0.6670  2.1285
    8MOL   H448 4802   3.894   1.963   1.467  0.3973  0.0943 -1.0893
    8MOL   H449 4803   3.968   2.121   1.477  1.6195 -0.1228 -2.1487
    8MOL   H450 4804   4.098   1.987   1.328 -1.8113 -1.9050 -0.0980
    8MOL   H451 4805   4.122   1.861   1.421 -2.4759 -0.2720 -2.8794
    8MOL   H452 4806   4.334   1.997   1.425 -0.3576  1.5247 -0.5858
    8MOL   H453 4807   4.242   2.145   1.486 -0.4952  0.3279  0.3919
    8MOL   H454 4808   4.227   2.035   1.699 -1.1120 -0.1938 -0.6420
    8MOL   H455 4809   4.279   1.888   1.623 -0.1686  0.1204  2.7308
    8MOL   H456 4810   4.495   1.967   1.595 -1.0545  0.3332 -0.7233
    8MOL   H457 4811   4.487   2.123   1.623 -0.0659  0.0116 -2.1496
    8MOL   H458 4812   4.477   1.907   1.833 -1.1239 -0.7215 -1.5788
    8MOL   H459 4813   4.433   2.070   1.870 -2.5397 -1.7270 -0.3315
    8MOL   H460 4814   4.708   1.970   1.742  1.4404 -1.0350  1.5990
    8MOL   H461 4815   4.686   2.130   1.788 -0.9692 -0.7119 -3.6688
    8MOL   H462 4816   4.829   2.022   1.949 -0.0261  1.4285 -1.9677
    8MOL   H463 4817   4.717   1.886   1.959 -0.7044  0.0038  0.5091
    8MOL   H464 4818   4.682   2.046   2.040  1.0912  1.4578 -0.5873
    8MOL   H465 4819   3.958   2.159   1.848  0.8046  0.4351  0.0812
    8MOL   H466 4820   3.799   2.118   1.892  0.7961  1.0556  2.0875
    8MOL   C467 4821   3.959   1.977   1.947 -0.2312  0.2920  0.5162
    8MOL   O468 4822   3.860   1.889   1.996 -0.9002 -0.5052  0.6578
    8MOL   C469 4823   3.903   1.754   2.002  0.6292  0.2462 -0.6254
    8MOL   C470 4824   3.780   1.679   2.047 -0.5065 -0.5181 -0.4432
    8MOL   C471 4825   3.768   1.521   2.006 -1.1476 -0.0589 -0.1036
    8MOL   C472 4826   3.632   1.457   2.056  0.3166  0.8696 -0.2996
    8MOL   C473 4827   3.636   1.397   2.201  0.4484  0.2615 -0.1629
    8MOL   C474 4828   3.504   1.324   2.235 -0.2843  0.5014 -0.3582
    8MOL   C475 4829   3.497   1.280   2.387  0.1155 -0.2910 -0.3446
    8MOL   C476 4830   3.463   1.399   2.477  0.1483  0.4757 -0.4370
    8MOL   C477 4831   4.012   2.067   2.064  0.2627  0.0319 -0.2103
    8MOL   H478 4832   4.044   1.923   1.906 -1.6730 -0.5394 -1.4316
    8MOL   H479 4833   3.989   1.735   2.066  0.3206 -0.3588 -0.3836
    8MOL   H480 4834   3.927   1.723   1.900 -1.3670  0.5350 -1.2058
    8MOL   H481 4835   3.685   1.730   2.030 -2.1412 -2.4569  2.4740
    8MOL   H482 4836   3.790   1.673   2.155 -0.2615 -1.8133 -0.5387
    8MOL   H483 4837   3.775   1.516   1.897 -0.4680  1.9495 -0.1873
    8MOL   H484 4838   3.855   1.468   2.043 -0.3733 -0.4920 -2.4815
    8MOL   H485 4839   3.548   1.525   2.072  0.5838  0.7084  1.9607
    8MOL   H486 4840   3.591   1.384   1.987  1.2401 -0.1572  0.2114
    8MOL   H487 4841   3.722   1.331   2.209 -0.2850 -0.7356 -0.3196
    8MOL   H488 4842   3.657   1.465   2.283 -2.1907 -0.9690  1.6061
    8MOL   H489 4843   3.511   1.232   2.177 -0.5176  0.4998 -0.3846
    8MOL   H490 4844   3.419   1.383   2.201 -1.8598 -1.0132  0.8556
    8MOL   H491 4845   3.420   1.204   2.402 -0.4106  0.0475 -1.2559
    8MOL   H492 4846   3.586   1.224   2.416 -0.3571 -0.7439  0.2440
    8MOL   H493 4847   3.397   1.470   2.426  0.5944  2.6813  1.9326
    8MOL   H494 4848   3.556   1.452   2.495 -0.0359  0.5979  0.1681
    8MOL   H495 4849   3.427   1.368   2.575 -1.3611  0.9246 -0.8290
    8MOL   H496 4850   3.938   2.142   2.091  2.7887  2.0801  1.2019
    8MOL   H497 4851   4.025   2.018   2.161  0.7981  1.1420  0.2877
    8MOL   C498 4852   4.150   2.143   2.031  0.7480  0.2732  0.6065
    8MOL   O499 4853   4.245   2.100   2.130 -0.1681 -0.0838 -0.4230
    8MOL   C500 4854   4.276   1.959   2.132  0.0589 -0.3024  0.8425
    8MOL   C501 4855   4.404   1.951   2.210 -0.5787  0.0249  0.7534
    8MOL   C502 4856   4.373   1.980   2.362 -0.3466  0.3938 -0.1407
    8MOL   C503 4857   4.272   1.874   2.424  0.2919  0.5175 -0.4314
    8MOL   C504 4858   4.278   1.868   2.575 -0.2725  0.5128 -0.5518
    8MOL   C505 4859   4.206   1.981   2.650 -0.1856 -0.1880 -0.2235
    8MOL   C506 4860   4.203   1.941   2.796 -0.3045 -0.4420 -0.3918
    8MOL   C507 4861   4.102   2.020   2.887 -0.0972  0.3219  0.0724
    8MOL   C508 4862   4.148   2.295   2.067  0.0410 -0.3122  0.1996
    8MOL   H509 4863   4.188   2.120   1.931  2.7832  2.9166  0.7200
    8MOL   H510 4864   4.303   1.925   2.032 -2.5717  0.4000 -0.1379
    8MOL   H511 4865   4.192   1.899   2.166  1.2131 -1.6614  1.3618
    8MOL   H512 4866   4.479   2.026   2.182 -0.9559  1.3087  3.0646
    8MOL   H513 4867   4.454   1.857   2.186 -2.9497 -0.9165 -0.7004
    8MOL   H514 4868   4.469   1.985   2.413 -0.3488  0.5680 -0.1508
    8MOL   H515 4869   4.330   2.079   2.376 -0.3781  0.4362 -0.5114
    8MOL   H516 4870   4.179   1.913   2.382  1.4147  1.5380 -2.0324
    8MOL   H517 4871   4.278   1.773   2.385  1.8099  0.5882 -0.4132
    8MOL   H518 4872   4.236   1.770   2.597  2.5211 -0.7385 -0.5723
    8MOL   H519 4873   4.382   1.857   2.607 -0.8153 -1.2769  0.6325
    8MOL   H520 4874   4.102   1.989   2.621 -0.5206 -0.4485  0.8944
    8MOL   H521 4875   4.257   2.076   2.636 -2.5597  1.0797 -0.3936
    8MOL   H522 4876   4.162   1.840   2.810 -2.7437  0.6446  0.6481
    8MOL   H523 4877   4.299   1.955   2.847  0.6592  1.8203 -2.7326
    8MOL   H524 4878   4.059   1.969   2.973  1.9553  1.0132  1.5635
    8MOL   H525 4879   4.023   2.054   2.820 -0.1054 -1.8194 -1.0440
    8MOL   H526 4880   4.163   2.098   2.932  0.1030  1.2929 -1.8256
    8MOL   H527 4881   4.094   2.297   2.161 -0.0061 -1.4905  0.1984
    8MOL   H528 4882   4.246   2.343   2.068  0.0000 -0.2148 -0.1729
    8MOL   C529 4883   4.075   2.385   1.962  0.3877  0.1417 -0.5981
    8MOL   O530 4884   4.152   2.384   1.839  0.8219 -0.6514  0.2575
    8MOL   C531 4885   4.072   2.401   1.720  0.3388  0.3934  0.1351
    8MOL   C532 4886   4.156   2.460   1.607 -0.1534 -0.1206 -0.3760
    8MOL   C533 4887   4.205   2.603   1.631  0.5963 -0.0667 -0.1387
    8MOL   C534 4888   4.092   2.710   1.617 -0.3948 -0.5060  0.2260
    8MOL   C535 4889   4.126   2.848   1.678  0.0131  0.5290 -0.3898
    8MOL   C536 4890   4.158   2.857   1.833 -0.4971  0.0725  0.7568
    8MOL   C537 4891   4.207   2.987   1.899 -0.1659  0.1923 -0.2063
    8MOL   C538 4892   4.332   2.968   1.979  0.4556  0.5055  0.4862
    8MOL   C539 4893   4.047   2.540   1.997 -0.0166  0.2793 -0.2791
    8MOL   H540 4894   3.976   2.342   1.946  0.1810  0.6671 -0.7633
    8MOL   H541 4895   4.037   2.301   1.693 -0.1623  0.5484  0.2128
    8MOL   H542 4896   3.981   2.459   1.735 -0.5977 -0.7420 -1.0082
    8MOL   H543 4897   4.100   2.456   1.514  0.2499  0.3666 -0.6367
    8MOL   H544 4898   4.253   2.411   1.596 -0.3469 -0.5732 -0.0799
    8MOL   H545 4899   4.247   2.610   1.731 -1.8230  0.0215  0.8898
    8MOL   H546 4900   4.293   2.619   1.568  0.4054  0.4130 -0.2803
    8MOL   H547 4901   4.058   2.717   1.514 -1.7034 -1.1629  0.6148
    8MOL   H548 4902   4.007   2.668   1.669  1.7087 -1.0430  3.3545
    8MOL   H549 4903   4.208   2.891   1.620 -1.0193  1.4254 -1.2048
    8MOL   H550 4904   4.039   2.910   1.659  0.2656  0.7976 -0.6772
    8MOL   H551 4905   4.221   2.773   1.862  1.4437  0.9036 -0.9982
    8MOL   H552 4906   4.063   2.833   1.882 -0.5305  0.0790  0.6936
    8MOL   H553 4907   4.232   3.061   1.823 -1.3738  1.7691  0.9003
    8MOL   H554 4908   4.132   3.032   1.965  0.1054  0.3845 -0.0242
    8MOL   H555 4909   4.422   2.931   1.929 -0.2781  0.3496 -0.7332
    8MOL   H556 4910   4.303   2.907   2.065  0.2302  0.1700  0.1736
    8MOL   H557 4911   4.364   3.067   2.012  0.9658  0.5647 -0.1828
    8MOL   H558 4912   4.149   2.577   2.008  0.8647 -2.4325  1.2085
    8MOL   H559 4913   3.997   2.595   1.918 -1.8728  0.9380  1.3007
    8MOL   C560 4914   3.954   2.551   2.117 -0.5661 -0.3938  0.5362
    8MOL   O561 4915   3.843   2.473   2.089 -0.0518  0.6108 -0.2941
    8MOL   C562 4916   3.793   2.388   2.187 -0.0469  0.0756 -0.4363
    8MOL   C563 4917   3.664   2.332   2.134  0.6340  0.9666  0.4182
    8MOL   C564 4918   3.622   2.217   2.225 -0.3020  0.3255  0.4957
    8MOL   C565 4919   3.497   2.147   2.172 -0.3728 -0.2297  0.4619
    8MOL   C566 4920   3.517   1.995   2.174 -0.3835  0.2505  0.5436
    8MOL   C567 4921   3.391   1.914   2.148 -0.1411 -0.6422 -0.3150
    8MOL   C568 4922   3.411   1.765   2.170  0.1210  0.7529 -0.3291
    8MOL   C569 4923   3.281   1.704   2.210  0.5321 -0.1335 -0.3636
    8MOL   C570 4924   3.914   2.695   2.153 -0.1109 -0.0172  0.6140
    8MOL   H571 4925   4.011   2.513   2.201  0.9004 -0.8704 -0.6398
    8MOL   H572 4926   3.765   2.437   2.281  0.2568 -1.3855  0.4291
    8MOL   H573 4927   3.870   2.315   2.211  1.4091  1.1110 -1.8543
    8MOL   H574 4928   3.683   2.303   2.031  0.4048  0.9765  0.3729
    8MOL   H575 4929   3.584   2.406   2.131  0.4286  0.7188 -0.3929
    8MOL   H576 4930   3.709   2.152   2.237 -1.2920 -0.7745  1.8700
    8MOL   H577 4931   3.606   2.257   2.325  0.2404  1.4145  0.1517
    8MOL   H578 4932   3.406   2.161   2.230 -1.5238  0.8244 -1.5521
    8MOL   H579 4933   3.467   2.181   2.073  2.7040  1.0095 -0.1111
    8MOL   H580 4934   3.594   1.965   2.104 -2.2173  1.2455 -1.9890
    8MOL   H581 4935   3.552   1.957   2.270 -0.1172  2.3642  1.3134
    8MOL   H582 4936   3.349   1.930   2.048 -3.2540 -1.5819  0.7866
    8MOL   H583 4937   3.311   1.956   2.208 -0.1249 -1.9195  0.6251
    8MOL   H584 4938   3.451   1.713   2.084  1.8754 -0.6439  1.2843
    8MOL   H585 4939   3.486   1.735   2.243 -0.9864 -1.5869 -0.0998
    8MOL   H586 4940   3.194   1.738   2.153  0.0004  2.2488  1.7696
    8MOL   H587 4941   3.247   1.735   2.309 -1.2108 -0.0780 -0.9466
    8MOL   H588 4942   3.286   1.596   2.204 -3.5938 -0.4896  0.6908
    8MOL   H589 4943   3.867   2.731   2.061 -0.2583 -1.6041  0.0534
    8MOL   H590 4944   3.838   2.697   2.231 -0.7190  1.1251  0.0024
    8MOL   C591 4945   4.028   2.786   2.195  0.7191  0.2867  0.0707
    8MOL   O592 4946   4.076   2.726   2.310 -0.1721  0.0075  0.0306
    8MOL   C593 4947   4.207   2.763   2.346  0.3241 -0.4272 -0.3150
    8MOL   C594 4948   4.258   2.683   2.467  0.1087 -0.1838 -0.7451
    8MOL   C595 4949   4.246   2.527   2.449 -0.3624  0.1506 -1.0849
    8MOL   C596 4950   4.340   2.443   2.536 -0.1465 -0.4030 -0.5672
    8MOL   C597 4951   4.313   2.433   2.692 -0.8666  0.4396  0.7623
    8MOL   C598 4952   4.444   2.388   2.761  0.3603 -0.4472  0.8997
    8MOL   C599 4953   4.423   2.355   2.907  0.4490 -0.0398  0.0432
    8MOL   C600 4954   4.541   2.273   2.971 -0.0162  0.0113  0.0386
    8MOL   C601 4955   3.983   2.929   2.236  0.0893  0.3828 -0.0275
    8MOL   H602 4956   4.103   2.794   2.116  0.4234 -0.7099 -0.3127
    8MOL   H603 4957   4.214   2.870   2.367  0.0375 -0.6439  0.9819
    8MOL   H604 4958   4.263   2.746   2.255 -0.2272 -1.2665 -0.5075
    8MOL   H605 4959   4.205   2.711   2.558 -0.2195 -1.7794 -0.4360
    8MOL   H606 4960   4.364   2.706   2.477  0.1630 -0.5942 -0.3752
    8MOL   H607 4961   4.145   2.486   2.444  0.0418 -1.4394  2.6994
    8MOL   H608 4962   4.282   2.505   2.348  0.2286 -1.1593 -0.5876
    8MOL   H609 4963   4.355   2.342   2.499 -0.0254 -0.6930  0.2472
    8MOL   H610 4964   4.435   2.492   2.512 -1.2368  1.4635 -1.1793
    8MOL   H611 4965   4.278   2.527   2.733  0.1223  1.2283 -0.1534
    8MOL   H612 4966   4.227   2.370   2.713  0.4533 -1.3126  1.0882
    8MOL   H613 4967   4.515   2.469   2.744  0.0093 -0.7647 -2.3278
    8MOL   H614 4968   4.497   2.303   2.717  2.4592  0.8248  0.8882
    8MOL   H615 4969   4.421   2.450   2.959  1.6303  0.0742 -0.1212
    8MOL   H616 4970   4.325   2.307   2.917  1.0236 -0.9228  1.7724
    8MOL   H617 4971   4.535   2.174   2.927  1.2153  0.8435 -2.0902
    8MOL   H618 4972   4.527   2.271   3.079 -0.2593 -0.6699 -0.0038
    8MOL   H619 4973   4.644   2.305   2.956 -0.4826  0.8222 -1.5342
    8MOL   H620 4974   4.072   2.987   2.261  0.5685 -0.1499 -0.4949
    8MOL   H621 4975   3.928   2.973   2.153  0.0996  0.4914  0.0223
    8MOL   H622 4976   3.920   2.926   2.326  0.8584 -3.4994  0.4539
    9MOL     C1 4977   7.233   4.956   0.668 -0.9283 -0.1757  0.2875
    9MOL     O2 4978   7.282   4.996   0.542 -0.2322  0.1723  0.0339
    9MOL     C3 4979   7.194   5.056   0.454 -0.4246  0.2554 -0.3008
    9MOL     C4 4980   7.240   5.047   0.307 -0.8319  0.5431  0.3083
    9MOL     C5 4981   7.161   5.129   0.210 -0.3732 -0.8210 -0.2928
    9MOL     C6 4982   7.187   5.076   0.063 -0.9926  0.1915  0.2989
    9MOL     C7 4983   7.090   4.965   0.030  0.0474  0.2621  0.4626
    9MOL     C8 4984   7.125   4.914   7.662  0.4494 -0.3651 -0.4755
    9MOL     C9 4985   7.071   5.010   7.556  1.1700 -0.4946  0.3154
    9MOL    C10 4986   7.133   4.978   7.417 -0.2996 -0.5223 -0.6062
    9MOL    C11 4987   7.350   4.915   0.756  0.3860 -0.2469 -0.2417
    9MOL    H12 4988   7.182   5.040   0.715 -0.0745  1.1544 -1.1185
    9MOL    H13 4989   7.181   5.159   0.489 -2.1832  0.2853 -0.9792
    9MOL    H14 4990   7.095   5.013   0.467  0.4963 -1.7191  0.3964
    9MOL    H15 4991   7.248   4.940   0.286 -0.1700  0.4325  1.0942
    9MOL    H16 4992   7.341   5.090   0.309 -0.4500 -0.3492  0.8129
    9MOL    H17 4993   7.058   5.113   0.243 -0.4813  0.1673 -0.1183
    9MOL    H18 4994   7.180   5.236   0.227 -0.1208 -0.7003 -1.3126
    9MOL    H19 4995   7.158   5.164   0.006  0.6566 -0.3656 -1.4444
    9MOL    H20 4996   7.295   5.060   0.052 -1.1523  0.4990 -1.9611
    9MOL    H21 4997   7.098   4.880   0.097  2.7592  0.2866  0.2187
    9MOL    H22 4998   6.988   5.002   0.041  0.4008  2.4637 -2.7997
    9MOL    H23 4999   7.072   4.820   7.647  2.4031 -1.4120 -0.9073
    9MOL    H24 5000   7.231   4.907   7.639  1.1318 -1.0924  2.5785
    9MOL    H25 5001   6.962   5.013   7.557  1.1112 -1.2362 -1.5676
    9MOL    H26 5002   7.106   5.111   7.577 -0.2566  0.2778 -0.9030
    9MOL    H27 5003   7.096   4.881   7.383 -2.0625  0.0037 -0.2318
    9MOL    H28 5004   7.241   4.975   7.427 -0.2473  0.6121 -0.8050
    9MOL    H29 5005   7.111   5.047   7.336  0.4827 -1.0215 -1.2494
    9MOL    H30 5006   7.400   4.837   0.698 -1.5309 -0.7951 -1.2112
    9MOL    H31 5007   7.426   4.993   0.766  0.0615 -0.2391  2.2917
    9MOL    H32 5008   7.167   4.870   0.659  0.1501 -1.0024  0.1485
    9MOL    C33 5009   7.293   4.884   0.899 -0.4997  0.0622 -1.0122
    9MOL    O34 5010   7.212   4.993   0.954  0.0223  0.0691 -0.1237
    9MOL    C35 5011   7.094   4.947   1.022  0.2978 -0.5065  0.2480
    9MOL    C36 5012   7.026   5.065   1.090 -0.2200  0.7742 -0.3596
    9MOL    C37 5013   6.991   5.181   0.989 -0.0740  0.5111  0.3176
    9MOL    C38 5014   6.911   5.300   1.055 -0.1688 -0.9075  0.3733
    9MOL    C39 5015   6.850   5.403   0.966 -0.7261  0.0719 -0.0317
    9MOL    C40 5016   6.703   5.378   0.928  0.2457 -0.2013 -0.0784
    9MOL    C41 5017   6.659   5.475   0.816 -0.4325  0.2378 -0.2186
    9MOL    C42 5018   6.516   5.444   0.761 -0.4518  0.9336 -0.2143
    9MOL    C43 5019   7.389   4.833   1.006  0.1547  0.1988 -0.0086
    9MOL    H44 5020   7.222   4.803   0.881 -1.0960  0.6565 -1.4073
    9MOL    H45 5021   7.113   4.866   1.093  0.8807 -1.0076 -0.4729
    9MOL    H46 5022   7.025   4.910   0.946 -1.9127 -1.4468  2.6450
    9MOL    H47 5023   7.089   5.100   1.172 -1.0887  1.0960  0.1860
    9MOL    H48 5024   6.932   5.038   1.138 -1.1291  1.1557 -1.9144
    9MOL    H49 5025   7.080   5.223   0.942  1.3293 -1.0807  1.4825
    9MOL    H50 5026   6.929   5.149   0.905 -0.6566  1.8172  0.2270
    9MOL    H51 5027   6.827   5.271   1.118 -0.0618  1.2692  1.5359
    9MOL    H52 5028   6.980   5.347   1.124 -0.5952  2.0624 -1.1295
    9MOL    H53 5029   6.870   5.503   1.006  0.2073 -0.4951  0.9475
    9MOL    H54 5030   6.912   5.410   0.876 -2.9259 -1.8514 -1.7562
    9MOL    H55 5031   6.641   5.403   1.014 -0.3113  0.7383 -0.7412
    9MOL    H56 5032   6.694   5.272   0.902  0.9364  0.0692 -1.4721
    9MOL    H57 5033   6.664   5.574   0.861  0.0534  0.7710 -1.4304
    9MOL    H58 5034   6.735   5.471   0.738 -1.5172  0.3730 -1.3000
    9MOL    H59 5035   6.446   5.443   0.844 -0.2396 -4.1275  0.0327
    9MOL    H60 5036   6.503   5.342   0.725  1.5720 -0.5785  3.0882
    9MOL    H61 5037   6.483   5.513   0.683 -0.1803  0.4362 -0.7765
    9MOL    H62 5038   7.456   4.915   1.031 -0.7989  0.3649  2.0715
    9MOL    H63 5039   7.323   4.823   1.092 -1.5590  3.8859 -0.7723
    9MOL    C64 5040   7.450   4.696   0.979  0.3330  0.7252 -0.2951
    9MOL    O65 5041   7.355   4.591   0.965 -0.1336 -0.0525 -0.2665
    9MOL    C66 5042   7.388   4.495   0.873 -0.1955  0.1224 -0.6359
    9MOL    C67 5043   7.292   4.384   0.907  0.5820  1.0816 -0.6130
    9MOL    C68 5044   7.299   4.352   1.061  0.5880  0.5297 -0.2488
    9MOL    C69 5045   7.219   4.223   1.116  0.3534 -0.1303 -0.0065
    9MOL    C70 5046   7.068   4.239   1.124 -0.4713  0.1502  0.4891
    9MOL    C71 5047   7.002   4.125   1.206 -0.4358 -0.3458 -0.3949
    9MOL    C72 5048   6.854   4.113   1.157 -0.1263  0.6109  0.6294
    9MOL    C73 5049   6.771   4.234   1.201 -0.7022  0.2167  0.1886
    9MOL    C74 5050   7.554   4.643   1.086  0.7671 -0.3222 -0.4377
    9MOL    H75 5051   7.508   4.708   0.887 -0.0873  2.4808 -0.3452
    9MOL    H76 5052   7.491   4.462   0.883 -0.2637  0.1648  0.1660
    9MOL    H77 5053   7.375   4.518   0.767 -1.2613  0.8881 -0.3381
    9MOL    H78 5054   7.314   4.296   0.848 -2.4226  0.2997 -0.6477
    9MOL    H79 5055   7.187   4.406   0.885  0.6438  1.9989 -0.0470
    9MOL    H80 5056   7.403   4.326   1.083  0.2083 -2.1617 -1.4637
    9MOL    H81 5057   7.293   4.439   1.127  0.0480  0.4093 -0.1388
    9MOL    H82 5058   7.253   4.129   1.071  1.4270  0.9412 -1.4808
    9MOL    H83 5059   7.246   4.206   1.220  1.0931  0.6227 -0.0740
    9MOL    H84 5060   7.041   4.330   1.176  0.1996  1.7769 -1.8946
    9MOL    H85 5061   7.031   4.247   1.021  1.3426 -1.0273 -0.2827
    9MOL    H86 5062   7.012   4.134   1.314 -1.3346  1.8872 -0.4614
    9MOL    H87 5063   7.053   4.036   1.171 -0.2436 -0.2204 -0.4307
    9MOL    H88 5064   6.849   4.105   1.049 -1.3634  1.3435  0.6239
    9MOL    H89 5065   6.805   4.021   1.192  0.4012  0.3957  0.8131
    9MOL    H90 5066   6.664   4.212   1.200 -0.2753 -1.8890 -0.1139
    9MOL    H91 5067   6.789   4.316   1.131  0.7527 -1.4265 -1.4153
    9MOL    H92 5068   6.802   4.270   1.299 -0.0348  0.0752  0.0325
    9MOL    H93 5069   7.499   4.649   1.180  3.0605  1.0537  0.8802
    9MOL    H94 5070   7.572   4.537   1.069 -1.4058 -0.6581 -0.7383
    9MOL    C95 5071   7.677   4.724   1.114 -0.4233 -0.4307 -0.6606
    9MOL    O96 5072   7.741   4.769   0.995  0.5524 -0.1517  0.1715
    9MOL    C97 5073   7.770   4.905   0.995  0.5944 -0.3577 -0.4822
    9MOL    C98 5074   0.055   4.940   0.856  0.1166  0.4847 -0.0071
    9MOL    C99 5075   7.728   4.927   0.739  0.5410 -0.4558 -0.1517
    9MOL   C100 5076   0.017   4.953   0.598 -0.7038  0.0955  0.3057
    9MOL   C101 5077   7.698   4.944   0.480 -0.5153  0.6068  0.6533
    9MOL   C102 5078   7.771   4.973   0.346  0.5003  0.0681  0.1937
    9MOL   C103 5079   0.126   4.888   0.330  0.1085  0.6349  0.8428
    9MOL   C104 5080   0.199   4.904   0.199  0.0026  0.0240  0.1618
    9MOL   C105 5081   0.012   4.638   1.171 -0.1736  0.1035 -0.0671
    9MOL   H106 5082   7.648   4.803   1.184  2.1320 -0.4852  0.5303
    9MOL   H107 5083   0.064   4.939   1.074 -0.1487  0.6693 -0.2740
    9MOL   H108 5084   7.681   4.966   1.012 -0.2483 -1.4932 -0.8096
    9MOL   H109 5085   0.145   4.880   0.840 -0.1925  0.1514 -0.4926
    9MOL   H110 5086   0.093   5.042   0.865  1.1621  0.3187 -2.2701
    9MOL   H111 5087   7.690   4.825   0.753 -0.1009 -0.0920  0.8166
    9MOL   H112 5088   7.647   4.996   0.764 -0.3716 -1.6447  0.2428
    9MOL   H113 5089   0.071   5.048   0.595  1.9055 -1.3851 -0.7757
    9MOL   H114 5090   0.099   4.883   0.584 -0.0744  1.3215 -2.4170
    9MOL   H115 5091   7.646   4.848   0.473 -1.2601  1.0266  0.4954
    9MOL   H116 5092   7.607   4.999   0.500  0.0090  1.9684 -0.6551
    9MOL   H117 5093   0.024   5.076   0.325  0.2346  0.3422  1.1829
    9MOL   H118 5094   7.702   4.934   0.271  1.0691  0.6374 -0.6284
    9MOL   H119 5095   0.196   4.929   0.403 -0.7781  0.9980  1.4953
    9MOL   H120 5096   0.105   4.784   0.356  0.3463  0.0896 -1.0660
    9MOL   H121 5097   0.156   4.928   0.102 -0.0611 -0.0008  0.1840
    9MOL   H122 5098   0.248   4.810   0.175 -1.9947 -1.3720  1.4461
    9MOL   H123 5099   0.273   4.983   0.210 -2.0894  1.8352  1.6941
    9MOL   H124 5100   0.043   4.554   1.109  0.1024  0.9036 -1.0343
    9MOL   H125 5101   0.104   4.698   1.171 -1.6925  2.4940 -0.2246
    9MOL   C126 5102   0.003   4.588   1.322 -0.1697 -0.0081  0.2189
    9MOL   O127 5103   7.673   4.498   1.338 -0.1953 -0.4600 -0.3052
    9MOL   C128 5104   7.690   4.364   1.304  0.2476 -0.2445 -0.8422
    9MOL   C129 5105   7.574   4.282   1.359  0.0348 -0.4676 -0.0356
    9MOL   C130 5106   7.586   4.268   1.513 -0.0564 -0.3896 -0.1996
    9MOL   C131 5107   7.473   4.180   1.569 -0.3955 -0.0011 -0.3201
    9MOL   C132 5108   7.477   4.142   1.716  0.6826 -0.4315  0.0680
    9MOL   C133 5109   7.601   4.063   1.745  0.0042 -0.6953  0.4373
    9MOL   C134 5110   7.600   3.930   1.671  0.3171 -0.3037 -0.8271
    9MOL   C135 5111   7.715   3.837   1.728 -0.2367 -0.0762  0.1524
    9MOL   C136 5112   7.755   4.700   1.426 -0.6167 -1.0782 -0.8991
    9MOL   H137 5113   0.102   4.543   1.331  1.1275  2.9212  1.0525
    9MOL   H138 5114   0.008   4.336   1.354 -1.1495 -2.2515  0.7080
    9MOL   H139 5115   7.705   4.355   1.197  0.1651  3.0247 -1.1817
    9MOL   H140 5116   7.571   4.187   1.305 -0.3968 -1.1337  1.1413
    9MOL   H141 5117   7.478   4.330   1.339  0.2096 -0.0685  0.0843
    9MOL   H142 5118   7.686   4.235   1.543 -0.4421 -0.2952  1.2105
    9MOL   H143 5119   7.566   4.369   1.550 -1.0938 -0.9974  0.9072
    9MOL   H144 5120   7.385   4.244   1.557  2.1261  3.5506 -0.7538
    9MOL   H145 5121   7.448   4.099   1.501  0.8733 -1.2704  0.7076
    9MOL   H146 5122   7.459   4.233   1.774 -0.7445 -0.7334  0.1122
    9MOL   H147 5123   7.393   4.074   1.730  2.6083 -2.8747 -0.0237
    9MOL   H148 5124   7.593   4.055   1.854  0.0950  1.3149  0.6065
    9MOL   H149 5125   7.689   4.123   1.723 -1.1218  1.1081  0.7713
    9MOL   H150 5126   7.507   3.878   1.693 -1.4691  3.2933  0.4984
    9MOL   H151 5127   7.606   3.934   1.562  2.1740 -1.9972 -0.8189
    9MOL   H152 5128   0.037   3.886   1.709 -0.1209 -1.3198 -2.7358
    9MOL   H153 5129   7.728   3.738   1.685 -0.5399 -0.9214  1.9619
    9MOL   H154 5130   7.722   3.827   1.836 -1.3595 -1.1235  0.1265
    9MOL   H155 5131   0.050   4.785   1.419 -2.1083  0.2896  0.4534
    9MOL   H156 5132   7.653   4.732   1.409 -1.0073 -0.9647  1.4613
    9MOL   C157 5133   7.758   4.659   1.585 -0.2305 -0.0239  0.8092
    9MOL   O158 5134   7.720   4.771   1.659  0.4449  0.5147 -0.1002
    9MOL   C159 5135   7.583   4.808   1.670 -0.3234  0.4920  0.2756
    9MOL   C160 5136   7.528   4.763   1.806 -0.9227 -0.4799  0.1956
    9MOL   C161 5137   7.382   4.787   1.827 -0.6800 -0.4805  0.1408
    9MOL   C162 5138   7.327   4.752   1.969 -0.0104 -0.2874  0.1364
    9MOL   C163 5139   7.175   4.765   1.967  0.4309 -0.6887  0.2877
    9MOL   C164 5140   7.111   4.732   2.101 -0.9117 -0.4047  1.1821
    9MOL   C165 5141   6.961   4.774   2.091  0.1687 -0.0384 -0.2185
    9MOL   C166 5142   6.888   4.763   2.228 -0.7718 -0.4136  0.1780
    9MOL   C167 5143   0.124   4.618   1.624 -0.3045 -0.0914 -0.1300
    9MOL   H168 5144   7.683   4.581   1.599  0.6486 -1.1642 -0.6422
    9MOL   H169 5145   7.517   4.763   1.595 -0.4254 -2.7454  2.2263
    9MOL   H170 5146   7.579   4.917   1.660 -1.1907  0.4678  0.2765
    9MOL   H171 5147   7.591   4.821   1.873  1.1652 -1.4187 -0.9257
    9MOL   H172 5148   7.546   4.657   1.822 -2.0056 -0.6431  0.3665
    9MOL   H173 5149   7.358   4.890   1.803 -0.9078 -0.7779 -0.9276
    9MOL   H174 5150   7.329   4.721   1.759 -1.5780  1.3829 -0.9951
    9MOL   H175 5151   7.347   4.650   2.000  1.3038  0.1190  0.6640
    9MOL   H176 5152   7.362   4.822   2.044 -1.5094 -0.1127  0.6926
    9MOL   H177 5153   7.164   4.874   1.970  0.9834 -0.6557  1.1455
    9MOL   H178 5154   7.122   4.725   1.881  0.8434 -0.2256 -0.1875
    9MOL   H179 5155   7.155   4.792   2.180  2.8679  0.3046 -1.3262
    9MOL   H180 5156   7.104   4.625   2.118  0.4135 -0.9410 -1.3730
    9MOL   H181 5157   6.947   4.874   2.050 -1.8518 -0.9338 -1.7963
    9MOL   H182 5158   6.914   4.702   2.024 -0.8165  2.2701 -2.0706
    9MOL   H183 5159   6.936   4.799   2.319 -1.8079  0.8496  0.2436
    9MOL   H184 5160   6.869   4.658   2.252 -3.3668  0.3055  1.4846
    9MOL   H185 5161   6.792   4.815   2.223 -0.4837  0.2786  1.5922
    9MOL   H186 5162   0.162   4.539   1.560 -1.0307  0.9517 -1.8981
    9MOL   H187 5163   0.197   4.699   1.617 -0.0406 -0.3404 -0.2201
    9MOL   C188 5164   0.133   4.570   1.771 -0.7322  0.2464  0.4057
    9MOL   O189 5165   0.264   4.510   1.790 -0.1567 -0.1256 -0.3579
    9MOL   C190 5166   0.369   4.593   1.824 -0.1061  0.1832 -0.4151
    9MOL   C191 5167   0.488   4.508   1.872  0.2870  0.0210 -0.2383
    9MOL   C192 5168   0.624   4.584   1.894  0.3623 -0.1755 -0.0986
    9MOL   C193 5169   0.733   4.509   1.967  0.7107  0.3546  0.6383
    9MOL   C194 5170   0.880   4.547   1.935 -0.2814  0.0050  0.2381
    9MOL   C195 5171   0.993   4.471   2.014  0.2977 -0.5975  0.3350
    9MOL   C196 5172   1.116   4.568   2.017  0.8380 -0.0564 -0.0943
    9MOL   C197 5173   1.248   4.505   2.067 -0.0944  0.3288 -0.0248
    9MOL   C198 5174   0.036   4.459   1.818 -0.2313 -0.0223 -0.1186
    9MOL   H199 5175   0.133   4.655   1.839  0.7283 -0.5089  1.3870
    9MOL   H200 5176   0.389   4.647   1.732 -0.5651  1.7937  0.4000
    9MOL   H201 5177   0.339   4.667   1.899  1.5349 -0.1732  0.6191
    9MOL   H202 5178   0.504   4.423   1.806 -2.2149 -1.9027  1.5652
    9MOL   H203 5179   0.460   4.466   1.969 -1.5848  1.4785 -0.1250
    9MOL   H204 5180   0.658   4.639   1.806 -2.0720 -1.3804 -1.8447
    9MOL   H205 5181   0.603   4.663   1.967  2.7100  0.0291  0.3976
    9MOL   H206 5182   0.703   4.505   2.072 -1.7635 -1.5131 -0.1033
    9MOL   H207 5183   0.718   4.405   1.942  0.3507  0.9156 -1.5721
    9MOL   H208 5184   0.898   4.548   1.827  1.4265  1.6410  0.5077
    9MOL   H209 5185   0.869   4.654   1.951 -2.9850  0.0216 -1.4265
    9MOL   H210 5186   1.026   4.386   1.955  0.1705  0.5252 -1.3858
    9MOL   H211 5187   0.956   4.443   2.113  0.2625  1.5956  0.9752
    9MOL   H212 5188   1.131   4.622   1.923 -1.0313  0.7533  0.0673
    9MOL   H213 5189   1.090   4.651   2.082 -0.7691 -1.8288  1.5895
    9MOL   H214 5190   1.276   4.427   1.996  2.1213 -0.4117  1.6062
    9MOL   H215 5191   1.220   4.464   2.163 -4.5822  1.7282 -0.6405
    9MOL   H216 5192   1.329   4.576   2.083 -0.5011  1.3243 -2.0999
    9MOL   H217 5193   7.705   4.468   1.793 -0.4237 -0.1486  0.6352
    9MOL   H218 5194   0.066   4.372   1.760 -1.4528  0.0760 -0.9227
    9MOL   C219 5195   0.031   4.426   1.972  0.1704  0.6134  0.4151
    9MOL   O220 5196   7.746   4.295   1.992 -0.2693 -0.3262  0.2042
    9MOL   C221 5197   0.033   4.227   2.105  0.1483  0.4137  0.3779
    9MOL   C222 5198   0.014   4.074   2.086 -0.3864  0.3200  0.1709
    9MOL   C223 5199   0.084   4.003   2.201  0.3065  1.3860 -0.1030
    9MOL   C224 5200   0.127   3.863   2.145  0.4693 -0.6866 -0.0570
    9MOL   C225 5201   0.218   3.785   2.242  0.7343 -0.1200 -0.5111
    9MOL   C226 5202   0.181   3.629   2.237  0.0835 -0.1452 -0.2531
    9MOL   C227 5203   0.203   3.559   2.098  0.0071  0.1305 -0.1052
    9MOL   C228 5204   0.350   3.550   2.061  0.3969  0.2131  0.0342
    9MOL   C229 5205   7.724   4.531   2.052 -0.2211  0.4227 -0.6599
    9MOL   H230 5206   0.134   4.419   2.005  1.0455  0.6273 -2.1528
    9MOL   H231 5207   7.756   4.258   2.196 -2.7052 -3.4931  0.1813
    9MOL   H232 5208   0.136   4.262   2.114 -0.0440  1.5011 -1.3585
    9MOL   H233 5209   0.070   4.048   1.996 -0.6892 -1.5537  0.5080
    9MOL   H234 5210   7.685   4.041   2.082 -1.0050  2.1741  0.5150
    9MOL   H235 5211   0.171   4.062   2.228  2.5219 -1.3578 -0.9125
    9MOL   H236 5212   0.035   3.990   2.297  0.4542 -0.7198 -0.2921
    9MOL   H237 5213   0.040   3.808   2.112 -0.0426 -0.0362  0.1941
    9MOL   H238 5214   0.180   3.874   2.050  2.3797  0.1803  1.0705
    9MOL   H239 5215   0.324   3.802   2.224  1.0878 -1.1846  0.4989
    9MOL   H240 5216   0.192   3.823   2.341 -1.3481  2.9062 -2.1248
    9MOL   H241 5217   0.078   3.605   2.264 -0.1657  1.9668  0.7368
    9MOL   H242 5218   0.245   3.564   2.296  1.7406  1.2490 -0.4796
    9MOL   H243 5219   0.146   3.467   2.092 -0.5723  0.2152  3.1958
    9MOL   H244 5220   0.157   3.615   2.016  1.3740  0.8626 -0.4034
    9MOL   H245 5221   0.383   3.653   2.045  2.2381 -0.2634  0.6358
    9MOL   H246 5222   0.360   3.504   1.963  1.0240  0.4828 -0.0388
    9MOL   H247 5223   0.415   3.514   2.141  0.5041 -0.6355 -0.4363
    9MOL   H248 5224   7.711   4.624   1.995  1.0858  0.4319 -0.9439
    9MOL   H249 5225   7.626   4.485   2.066  1.5291 -3.1528  0.5066
    9MOL   C250 5226   7.773   4.566   2.193  0.1154  0.1438  0.3288
    9MOL   O251 5227   7.660   4.638   2.245  0.4286  0.0632 -0.0014
    9MOL   C252 5228   7.588   4.572   2.346  0.0857 -0.2835 -0.7682
    9MOL   C253 5229   7.452   4.643   2.356 -0.2326 -0.1507 -0.0347
    9MOL   C254 5230   7.361   4.606   2.473  0.2121  0.1548 -0.6055
    9MOL   C255 5231   7.242   4.700   2.491  0.3900 -0.1394 -0.6402
    9MOL   C256 5232   7.147   4.648   2.594 -0.5960 -0.0466  0.1994
    9MOL   C257 5233   7.080   4.511   2.563  0.6723 -0.0756  0.1238
    9MOL   C258 5234   6.980   4.474   2.678  0.4949  0.1356  0.0792
    9MOL   C259 5235   6.874   4.360   2.651 -0.1026  0.1356 -1.1276
    9MOL   C260 5236   0.125   4.659   2.191  0.1604  0.5440 -0.2259
    9MOL   H261 5237   0.016   4.477   2.254 -0.3563 -0.1831 -0.0104
    9MOL   H262 5238   7.645   4.564   2.438  0.1234 -0.8229 -0.8366
    9MOL   H263 5239   7.568   4.469   2.318 -1.7385 -0.0702 -0.2756
    9MOL   H264 5240   7.391   4.640   2.266 -0.4739  2.9130 -0.0351
    9MOL   H265 5241   7.474   4.750   2.361  1.2504 -0.2835 -2.8964
    9MOL   H266 5242   7.336   4.500   2.468  3.5585 -0.6420 -2.5253
    9MOL   H267 5243   7.413   4.615   2.569  2.7746  0.4438 -1.9850
    9MOL   H268 5244   7.260   4.799   2.533  1.2785 -0.5592 -0.0275
    9MOL   H269 5245   7.192   4.721   2.396  1.1904 -1.8637 -1.4733
    9MOL   H270 5246   7.202   4.636   2.688 -1.6417 -1.9874  0.5943
    9MOL   H271 5247   7.062   4.716   2.607 -0.8207  0.1564 -2.1823
    9MOL   H272 5248   7.149   4.427   2.556  0.0840 -0.3433 -3.3090
    9MOL   H273 5249   7.037   4.521   2.464  2.2374  0.9929 -0.4831
    9MOL   H274 5250   7.042   4.454   2.765  0.9115  3.6675  0.6882
    9MOL   H275 5251   6.932   4.563   2.719  1.1113  0.9812 -0.9859
    9MOL   H276 5252   6.826   4.330   2.744 -0.1273  0.1425 -1.1378
    9MOL   H277 5253   6.912   4.262   2.622 -0.5419 -0.8409  1.4669
    9MOL   H278 5254   6.797   4.382   2.576  0.8141  0.3984 -2.0068
    9MOL   H279 5255   0.212   4.624   2.135 -0.7002  0.5124 -1.5876
    9MOL   H280 5256   0.084   4.747   2.141 -1.2108 -0.8268 -1.5907
    9MOL   C281 5257   0.178   4.699   2.330  0.1970  0.5552  0.2966
    9MOL   O282 5258   0.219   4.836   2.333 -0.8371 -0.5030  0.6676
    9MOL   C283 5259   0.118   4.932   2.373  0.5286  0.6982  0.6439
    9MOL   C284 5260   0.171   5.061   2.336 -0.2015  0.0163  0.7026
    9MOL   C285 5261   0.297   5.089   2.413 -0.5038  0.2601 -0.6294
    9MOL   C286 5262   0.367   5.225   2.380  0.5420 -0.2953  0.4133
    9MOL   C287 5263   0.497   5.242   2.473  1.0379 -0.3709 -0.1320
    9MOL   C288 5264   0.542   5.391   2.495 -0.6084 -0.0963 -0.1856
    9MOL   C289 5265   0.645   5.406   2.601  0.2077  0.2262 -0.7657
    9MOL   C290 5266   0.702   5.542   2.608  0.4853 -0.3638  0.3896
    9MOL   C291 5267   0.298   4.623   2.374  0.0753  0.5033  0.4079
    9MOL   H292 5268   0.112   4.667   2.410  1.4157 -0.4805  0.8923
    9MOL   H293 5269   0.102   4.924   2.480  0.4711 -1.3337  0.4936
    9MOL   H294 5270   0.033   4.897   2.315  0.0666  0.3606  1.5153
    9MOL   H295 5271   0.096   5.132   2.370 -0.9382 -0.2769 -0.2740
    9MOL   H296 5272   0.172   5.067   2.227  1.6169  1.5878  0.7884
    9MOL   H297 5273   0.265   5.096   2.517  1.3008  2.1275 -0.1532
    9MOL   H298 5274   0.375   5.014   2.398  0.2571  0.7423  0.8339
    9MOL   H299 5275   0.389   5.233   2.274  0.0187  0.7041  0.3742
    9MOL   H300 5276   0.294   5.299   2.413 -2.3472 -1.8872 -2.1711
    9MOL   H301 5277   0.474   5.195   2.569 -0.8504  0.8096  0.0303
    9MOL   H302 5278   0.572   5.173   2.435  1.6244 -0.3098  0.8909
    9MOL   H303 5279   0.460   5.462   2.509  0.4067  1.1612 -0.5517
    9MOL   H304 5280   0.585   5.427   2.402 -1.5996  0.3287 -0.4944
    9MOL   H305 5281   0.589   5.383   2.692  0.5880 -0.3807 -0.6873
    9MOL   H306 5282   0.717   5.325   2.607 -0.3398 -0.0843  2.2153
    9MOL   H307 5283   0.737   5.560   2.710  0.5985 -0.8877  0.4433
    9MOL   H308 5284   0.615   5.608   2.601  1.0967  0.3547 -0.4035
    9MOL   H309 5285   0.779   5.554   2.533  0.2990  1.0332  0.4058
    9MOL   H310 5286   0.374   4.631   2.297 -0.8347  0.3572 -0.5145
    9MOL   H311 5287   0.341   4.664   2.466  2.4289 -0.0633 -0.4012
    9MOL   C312 5288   0.270   4.470   2.397 -0.0489  0.0527  0.2174
    9MOL   O313 5289   0.170   4.470   2.503 -0.1596  0.4204  0.3496
    9MOL   C314 5290   0.120   4.340   2.518  0.3466  0.5601  0.8348
    9MOL   C315 5291   0.027   4.346   2.639  0.4922 -0.7216  0.2890
    9MOL   C316 5292   0.093   4.404   2.763 -0.3593 -0.8317  0.0430
    9MOL   C317 5293   0.003   4.372   2.886  0.3860 -0.4312  0.1105
    9MOL   C318 5294   0.069   4.377   3.028 -0.2117  0.0459  0.3199
    9MOL   C319 5295   7.747   4.364   3.149 -0.2342 -0.0690 -0.0649
    9MOL   C320 5296   0.049   4.399   3.280 -0.2796  0.4089  0.4534
    9MOL   C321 5297   7.732   4.368   3.396  0.6529 -0.8180  0.2202
    9MOL   C322 5298   0.405   4.405   2.424 -0.1304  0.5703  0.4543
    9MOL   H323 5299   0.228   4.430   2.305 -2.3092 -0.3232  1.3699
    9MOL   H324 5300   0.190   4.262   2.549 -1.3559 -1.7231 -0.8708
    9MOL   H325 5301   0.073   4.307   2.425  0.4534 -0.6463  1.1936
    9MOL   H326 5302   7.760   4.247   2.657 -0.3996 -0.3947  0.0862
    9MOL   H327 5303   7.714   4.409   2.618  1.2629  0.7735  1.5073
    9MOL   H328 5304   0.186   4.349   2.776 -0.5153 -1.1596 -0.2167
    9MOL   H329 5305   0.115   4.510   2.747  0.8260 -0.7930  1.8032
    9MOL   H330 5306   7.701   4.450   2.893 -0.2021 -1.0094  0.1741
    9MOL   H331 5307   7.723   4.280   2.869  0.3849 -0.7603  1.7702
    9MOL   H332 5308   0.157   4.313   3.034  0.1594  0.2707 -2.0526
    9MOL   H333 5309   0.108   4.479   3.031 -2.8645  1.1307 -0.8881
    9MOL   H334 5310   7.719   4.258   3.147  2.6074 -0.8098 -2.1496
    9MOL   H335 5311   7.650   4.414   3.140 -0.6570 -0.5881  1.4347
    9MOL   H336 5312   0.143   4.344   3.285 -0.4092  0.1879  0.4385
    9MOL   H337 5313   0.089   4.500   3.282 -0.6435  0.5684 -0.2843
    9MOL   H338 5314   7.658   4.447   3.412  0.7316 -0.6844 -0.0651
    9MOL   H339 5315   0.006   4.352   3.492 -1.3162 -0.1301  1.3718
    9MOL   H340 5316   7.687   4.270   3.383  4.8219 -2.5626 -2.1339
    9MOL   H341 5317   0.457   4.455   2.506  2.9902 -1.3302 -0.2820
    9MOL   H342 5318   0.385   4.307   2.468  1.4098  0.3147  0.5916
    9MOL   C343 5319   0.508   4.387   2.308 -0.1978 -0.4469  0.4028
    9MOL   O344 5320   0.448   4.273   2.241  0.1736  0.0165  0.4770
    9MOL   C345 5321   0.541   4.189   2.167  0.1974  0.7294  0.0670
    9MOL   C346 5322   0.473   4.056   2.124  0.1713 -0.3228  0.5273
    9MOL   C347 5323   0.554   3.983   2.010  0.3294 -0.0572 -0.4045
    9MOL   C348 5324   0.498   4.025   1.877 -0.3008  0.1394 -0.7048
    9MOL   C349 5325   0.561   3.946   1.759 -0.5414  0.8764 -0.0769
    9MOL   C350 5326   0.488   3.943   1.621  0.5230  1.1141  0.7311
    9MOL   C351 5327   0.364   3.844   1.624 -0.0994  0.6085 -0.1909
    9MOL   C352 5328   0.284   3.835   1.500  0.7967 -0.3275  0.7807
    9MOL   C353 5329   0.649   4.377   2.380 -0.2989 -0.4873 -0.4976
    9MOL   H354 5330   0.493   4.469   2.237 -2.4009  0.3905  1.7663
    9MOL   H355 5331   0.638   4.180   2.216  1.7872  2.5534 -2.6150
    9MOL   H356 5332   0.564   4.243   2.075 -0.8623  0.6215 -0.2731
    9MOL   H357 5333   0.382   4.096   2.077  1.3636  2.7789  0.7328
    9MOL   H358 5334   0.443   3.995   2.209 -0.4750 -0.5932  0.1149
    9MOL   H359 5335   0.656   4.018   2.021 -0.2744  0.5553  3.9476
    9MOL   H360 5336   0.537   3.876   2.023 -0.5060  0.1379  0.1771
    9MOL   H361 5337   0.390   4.006   1.881 -0.0195 -1.4773 -0.7360
    9MOL   H362 5338   0.496   4.134   1.868 -0.5350  0.2502  0.6104
    9MOL   H363 5339   0.661   3.985   1.739 -0.6621  1.5362  0.5875
    9MOL   H364 5340   0.569   3.838   1.773  0.4809  1.2132  2.1953
    9MOL   H365 5341   0.549   3.905   1.539  1.2573  2.3952  0.6727
    9MOL   H366 5342   0.458   4.043   1.593  1.0186  1.2664  0.7357
    9MOL   H367 5343   0.406   3.743   1.627 -2.0710 -0.3336 -2.5362
    9MOL   H368 5344   0.300   3.868   1.709  0.4284 -0.2113  0.4359
    9MOL   H369 5345   0.198   3.770   1.514  0.2048  0.1510 -0.5337
    9MOL   H370 5346   0.343   3.801   1.415  1.4605 -0.4431  1.2794
    9MOL   H371 5347   0.257   3.941   1.496  1.5080 -0.1927 -0.9573
    9MOL   H372 5348   0.640   4.319   2.471  0.5509 -0.9516 -0.6995
    9MOL   H373 5349   0.724   4.329   2.317 -0.5706 -0.5129 -0.8025
    9MOL   C374 5350   0.699   4.520   2.429  0.2527  0.2707  0.1300
    9MOL   O375 5351   0.710   4.611   2.317  0.2416  0.7765 -0.2237
    9MOL   C376 5352   0.737   4.750   2.346  0.0896  0.2306 -0.2810
    9MOL   C377 5353   0.718   4.842   2.222 -0.2492 -0.7398 -0.5733
    9MOL   C378 5354   0.574   4.857   2.174  0.1098  0.2719 -0.7330
    9MOL   C379 5355   0.548   4.934   2.043  0.1191  0.0945  0.1813
    9MOL   C380 5356   0.399   4.960   2.029  0.4347  0.0577 -0.1082
    9MOL   C381 5357   0.349   4.986   1.889  1.4695  0.4368  0.0044
    9MOL   C382 5358   0.197   5.000   1.898 -0.0863  0.2628  0.0253
    9MOL   C383 5359   0.138   5.020   1.759  0.9023 -0.4511  0.1910
    9MOL   C384 5360   0.833   4.508   2.508 -0.1611 -0.3507 -0.4700
    9MOL   H385 5361   0.631   4.567   2.500  1.7274 -0.4478  2.0698
    9MOL   H386 5362   0.842   4.766   2.371 -0.5977  0.3711  2.6492
    9MOL   H387 5363   0.691   4.792   2.435  1.3799 -0.4338  0.7257
    9MOL   H388 5364   0.793   4.808   2.149  0.5024  0.4929 -0.3847
    9MOL   H389 5365   0.755   4.937   2.261  0.5407 -0.6523 -1.5084
    9MOL   H390 5366   0.542   4.753   2.165  0.0870  0.2213 -0.0732
    9MOL   H391 5367   0.521   4.901   2.258 -1.4567  0.5040 -1.8343
    9MOL   H392 5368   0.598   5.030   2.057 -0.7840  0.6141 -0.1502
    9MOL   H393 5369   0.584   4.891   1.949 -1.6532  0.9829 -0.9327
    9MOL   H394 5370   0.340   4.880   2.073  3.0240 -0.6679  2.1900
    9MOL   H395 5371   0.384   5.046   2.096  1.2844 -1.0169  1.4908
    9MOL   H396 5372   0.380   4.909   1.819 -0.3175 -0.1465 -0.1715
    9MOL   H397 5373   0.381   5.085   1.856 -0.4016  1.5849  1.5185
    9MOL   H398 5374   0.163   4.905   1.938 -2.2940  0.9052 -0.2552
    9MOL   H399 5375   0.165   5.082   1.962 -2.5874 -0.6117 -0.0629
    9MOL   H400 5376   0.170   5.110   1.707  1.4965  1.6556  4.0475
    9MOL   H401 5377   0.030   5.015   1.748  0.9771 -1.4751 -0.1334
    9MOL   H402 5378   0.175   4.945   1.689 -1.2744  1.0705 -2.6955
    9MOL   H403 5379   0.907   4.466   2.440  0.5565 -1.8753  1.2058
    9MOL   H404 5380   0.866   4.608   2.535  0.1685 -0.4819 -0.3831
    9MOL   C405 5381   0.832   4.434   2.651 -0.6263  0.1840  0.0599
    9MOL   O406 5382   0.745   4.502   2.737 -0.1349 -0.7191 -0.3515
    9MOL   C407 5383   0.692   4.418   2.844 -0.5005 -0.7643 -0.0044
    9MOL   C408 5384   0.620   4.503   2.943  0.5483 -0.1225  0.2278
    9MOL   C409 5385   0.594   4.431   3.073 -0.6065 -0.1750 -0.1905
    9MOL   C410 5386   0.536   4.525   3.176  0.6468 -0.6080  0.2182
    9MOL   C411 5387   0.390   4.569   3.154 -1.1541 -0.0285 -0.6092
    9MOL   C412 5388   0.357   4.682   3.247  0.6064 -0.0556  0.8311
    9MOL   C413 5389   0.347   4.644   3.393 -0.4842 -0.0506 -0.5568
    9MOL   C414 5390   0.278   4.757   3.480  0.0506  0.2853 -0.1079
    9MOL   C415 5391   0.979   4.418   2.710 -0.0237 -0.2569  0.1815
    9MOL   H416 5392   0.797   4.331   2.639  0.4666  0.0210 -1.9354
    9MOL   H417 5393   0.766   4.346   2.881  0.7876 -0.9412 -2.8144
    9MOL   H418 5394   0.624   4.357   2.784 -0.3558 -1.6731  0.7258
    9MOL   H419 5395   0.519   4.529   2.909  0.8637  0.2539 -0.4174
    9MOL   H420 5396   0.680   4.590   2.969 -1.8861  0.5613  4.0056
    9MOL   H421 5397   0.538   4.340   3.052 -1.1448  0.0863  0.0932
    9MOL   H422 5398   0.684   4.383   3.111 -0.4636  0.8811  0.8492
    9MOL   H423 5399   0.538   4.477   3.274 -1.9009 -1.6363 -0.2012
    9MOL   H424 5400   0.602   4.611   3.179 -0.1329  0.0753 -1.3180
    9MOL   H425 5401   0.399   4.613   3.054  0.2627  3.5595  0.9900
    9MOL   H426 5402   0.301   4.509   3.167 -1.0772  0.7073  4.1140
    9MOL   H427 5403   0.263   4.733   3.228  0.2414 -0.2927  1.9707
    9MOL   H428 5404   0.430   4.761   3.231  0.5344 -0.6165 -2.7259
    9MOL   H429 5405   0.286   4.553   3.393 -0.0976 -0.3255 -2.3866
    9MOL   H430 5406   0.449   4.622   3.425 -1.0963  1.0978  2.3774
    9MOL   H431 5407   0.191   4.809   3.439 -0.9571 -1.2570  0.0013
    9MOL   H432 5408   0.343   4.833   3.521  0.1324 -0.6648  1.5939
    9MOL   H433 5409   0.240   4.709   3.570  0.6252 -0.7503 -0.3987
    9MOL   H434 5410   0.973   4.378   2.811 -0.9423 -0.2030  0.1546
    9MOL   H435 5411   1.025   4.329   2.666 -1.3716 -0.6712 -0.4356
    9MOL   C436 5412   1.066   4.549   2.711  0.1175 -0.3031  0.1272
    9MOL   O437 5413   1.110   4.579   2.578 -0.0423 -0.2423  0.6180
    9MOL   C438 5414   1.125   4.717   2.544 -0.1988  0.1356  1.0117
    9MOL   C439 5415   1.165   4.729   2.397 -0.9733  1.2533  0.0766
    9MOL   C440 5416   1.200   4.872   2.365  0.6191  0.1123  0.2107
    9MOL   C441 5417   1.276   4.903   2.240  0.0910 -1.0020 -0.3912
    9MOL   C442 5418   1.323   5.054   2.236  0.2585  0.0257  0.1940
    9MOL   C443 5419   1.438   5.095   2.132  0.6778  0.0238 -0.0155
    9MOL   C444 5420   1.457   5.247   2.123 -0.7434 -0.4670 -0.2415
    9MOL   C445 5421   1.559   5.274   2.017 -0.4151 -0.4679  0.6152
    9MOL   C446 5422   1.189   4.530   2.801  0.5829 -0.1240  0.3709
    9MOL   H447 5423   0.992   4.623   2.741 -1.1332 -1.7156  0.6057
    9MOL   H448 5424   1.036   4.781   2.545 -0.4191 -0.1177 -0.9186
    9MOL   H449 5425   1.205   4.753   2.608  1.2396 -1.3077  0.0540
    9MOL   H450 5426   1.088   4.694   2.328 -1.0852  2.1367 -0.2548
    9MOL   H451 5427   1.251   4.667   2.371 -2.0134 -0.3893  0.4622
    9MOL   H452 5428   1.108   4.928   2.351  0.4597 -0.2678 -0.2941
    9MOL   H453 5429   1.259   4.906   2.450  1.0765 -0.1330 -0.0014
    9MOL   H454 5430   1.366   4.843   2.257 -0.9083 -2.6075 -0.6850
    9MOL   H455 5431   1.220   4.873   2.152  2.5346 -0.4916 -2.1906
    9MOL   H456 5432   1.235   5.108   2.203 -1.1511 -1.4636  1.4026
    9MOL   H457 5433   1.351   5.093   2.334 -0.8833  0.3433  0.3921
    9MOL   H458 5434   1.408   5.061   2.034 -1.4819 -0.7444  0.8907
    9MOL   H459 5435   1.536   5.061   2.167  1.2864  0.4879 -1.2528
    9MOL   H460 5436   1.371   5.303   2.084 -0.5011 -0.9372 -1.4943
    9MOL   H461 5437   1.492   5.291   2.216  1.2737  0.9487 -1.6534
    9MOL   H462 5438   1.652   5.223   2.039  0.1082  0.3457  0.3000
    9MOL   H463 5439   1.574   5.380   1.995  0.2864 -0.6726  0.1059
    9MOL   H464 5440   1.528   5.231   1.921  0.2852 -1.6464  0.9118
    9MOL   H465 5441   1.231   4.432   2.776 -0.4583 -0.1390 -1.4448
    9MOL   H466 5442   1.262   4.609   2.778  0.3928  0.7984  2.8193
    9MOL   C467 5443   1.159   4.541   2.954 -0.4422  0.2919  0.0302
    9MOL   O468 5444   1.156   4.679   2.993  0.0064 -0.1348  0.1779
    9MOL   C469 5445   1.032   4.726   3.030  0.6831 -0.1414 -0.0663
    9MOL   C470 5446   1.050   4.850   3.115 -0.0270 -0.1267 -0.3944
    9MOL   C471 5447   1.137   4.959   3.055 -0.2171  0.3885  0.0582
    9MOL   C472 5448   1.117   5.087   3.136 -0.3638  0.0764 -0.0997
    9MOL   C473 5449   1.239   5.184   3.118  0.4482  0.4029 -0.4916
    9MOL   C474 5450   1.238   5.249   2.974  0.4202  0.2220 -0.3416
    9MOL   C475 5451   1.320   5.173   2.876 -0.1373  0.3175 -0.2489
    9MOL   C476 5452   1.310   5.228   2.735 -0.6776  0.8369 -0.4826
    9MOL   C477 5453   1.274   4.467   3.030 -0.0575  0.2595 -0.2890
    9MOL   H478 5454   1.066   4.492   2.984 -1.5941  1.9457 -0.7391
    9MOL   H479 5455   0.974   4.656   3.091  1.7815 -1.4259 -0.4679
    9MOL   H480 5456   0.964   4.751   2.949  0.7920  1.2819  0.2776
    9MOL   H481 5457   1.070   4.822   3.218  1.1734  1.7965 -0.0720
    9MOL   H482 5458   0.945   4.880   3.123 -0.6547 -2.6066  1.0316
    9MOL   H483 5459   1.241   4.928   3.044 -1.1714 -3.1919  0.5659
    9MOL   H484 5460   1.095   4.990   2.959  1.1230  0.5028 -0.5017
    9MOL   H485 5461   1.024   5.139   3.114 -0.7095  0.1615  1.5130
    9MOL   H486 5462   1.099   5.079   3.243  0.5710 -2.9268 -0.1096
    9MOL   H487 5463   1.249   5.261   3.194 -0.8592 -0.8669  1.0036
    9MOL   H488 5464   1.333   5.131   3.134 -0.4150  0.0286  3.7880
    9MOL   H489 5465   1.289   5.345   2.983  0.2968  0.2991 -0.4694
    9MOL   H490 5466   1.135   5.261   2.942  0.4445 -0.2519 -0.5991
    9MOL   H491 5467   1.426   5.161   2.898 -0.4463 -0.7523  0.6571
    9MOL   H492 5468   1.278   5.074   2.862 -0.8993  0.8382 -1.8050
    9MOL   H493 5469   1.212   5.214   2.690  0.6980 -2.9599 -2.5242
    9MOL   H494 5470   1.368   5.156   2.677 -0.9338  1.1867 -1.1801
    9MOL   H495 5471   1.344   5.331   2.721  0.3951  0.3249 -1.7988
    9MOL   H496 5472   1.268   4.360   3.010  0.4710 -0.1161  1.4221
    9MOL   H497 5473   1.373   4.496   2.993  0.3610  0.2659  0.8235
    9MOL   C498 5474   1.277   4.484   3.185  0.2044 -0.1202  0.0548
    9MOL   O499 5475   1.401   4.436   3.237  0.0566  0.6394 -0.3146
    9MOL   C500 5476   1.442   4.497   3.355  0.3699 -0.0843  0.2482
    9MOL   C501 5477   1.513   4.631   3.345 -0.0170  0.1517 -0.4579
    9MOL   C502 5478   1.632   4.639   3.243 -0.2393 -0.2679 -0.6323
    9MOL   C503 5479   1.670   4.765   3.171  0.0097 -0.6624  0.1658
    9MOL   C504 5480   1.803   4.758   3.095  0.1071 -0.1863 -0.2874
    9MOL   C505 5481   1.935   4.759   3.177  0.0485 -0.4399  0.7599
    9MOL   C506 5482   1.980   4.908   3.190 -0.3033  0.3552 -0.5723
    9MOL   C507 5483   2.124   4.902   3.261 -0.4134 -0.2906 -0.5036
    9MOL   C508 5484   1.159   4.417   3.257  0.4563 -0.9221  0.1560
    9MOL   H509 5485   1.274   4.589   3.211  1.4587 -0.3104  1.0177
    9MOL   H510 5486   1.506   4.419   3.398  1.8255  0.5763 -0.6971
    9MOL   H511 5487   1.362   4.513   3.427  0.7726  1.3877  0.3783
    9MOL   H512 5488   1.551   4.673   3.438 -1.7795 -1.2447  0.9307
    9MOL   H513 5489   1.440   4.703   3.307 -0.5789 -0.0945  0.1468
    9MOL   H514 5490   1.719   4.599   3.295 -0.2670  0.9193  0.3257
    9MOL   H515 5491   1.621   4.560   3.167  1.7064 -1.4728  0.3093
    9MOL   H516 5492   1.584   4.786   3.108 -0.8567 -0.6706  1.3351
    9MOL   H517 5493   1.667   4.849   3.240  0.4563 -0.9277  0.5107
    9MOL   H518 5494   1.791   4.657   3.054  1.0002 -0.6114  0.4851
    9MOL   H519 5495   1.803   4.832   3.015  3.6504 -0.6427 -0.7719
    9MOL   H520 5496   2.015   4.702   3.131 -0.9585  0.4138 -2.1889
    9MOL   H521 5497   1.921   4.721   3.278  0.9187  0.1302  1.1041
    9MOL   H522 5498   1.981   4.958   3.093 -3.6942  0.1695 -0.7649
    9MOL   H523 5499   1.910   4.968   3.248  0.1114  1.0686 -0.8032
    9MOL   H524 5500   2.185   4.828   3.209 -0.1977 -1.0323  0.7919
    9MOL   H525 5501   2.110   4.861   3.361 -2.8723  3.2702  0.7380
    9MOL   H526 5502   2.172   4.996   3.289  1.0931 -0.9080 -0.9368
    9MOL   H527 5503   1.172   4.424   3.365 -1.3188 -2.7231  0.5193
    9MOL   H528 5504   1.070   4.474   3.230  0.4715 -0.4204  1.1421
    9MOL   C529 5505   1.137   4.263   3.235 -0.5757 -0.2317  0.3652
    9MOL   O530 5506   1.086   4.242   3.102  0.7219  0.0884  0.2862
    9MOL   C531 5507   1.058   4.108   3.076 -0.3706 -0.2297 -0.0338
    9MOL   C532 5508   1.041   4.083   2.929 -0.0279  0.0295  0.0278
    9MOL   C533 5509   1.171   4.088   2.852  0.4557  0.1858  0.0594
    9MOL   C534 5510   1.167   4.032   2.709  0.0237  0.0978 -0.2784
    9MOL   C535 5511   1.282   4.071   2.615  0.0881  0.5346  0.1969
    9MOL   C536 5512   1.296   4.219   2.579 -0.6884  0.5481  0.1249
    9MOL   C537 5513   1.407   4.239   2.468 -0.0287 -0.0654 -0.7625
    9MOL   C538 5514   1.352   4.233   2.327 -0.1506 -0.1835 -0.0854
    9MOL   C539 5515   1.052   4.209   3.353 -0.1979  0.3242 -0.4883
    9MOL   H540 5516   1.239   4.225   3.231 -0.1428  1.0376 -2.3061
    9MOL   H541 5517   1.138   4.042   3.112 -1.8029 -1.6527  0.6218
    9MOL   H542 5518   0.971   4.073   3.133  0.0328  0.3516  0.9561
    9MOL   H543 5519   0.974   4.156   2.884  0.4683 -0.3390 -1.3025
    9MOL   H544 5520   1.005   3.980   2.919  0.0752 -0.4283  3.6355
    9MOL   H545 5521   1.191   4.194   2.842  1.7006  0.1235  1.6471
    9MOL   H546 5522   1.254   4.049   2.911 -0.0803 -0.0910  0.6359
    9MOL   H547 5523   1.179   3.924   2.718  1.5086  0.3069  0.2698
    9MOL   H548 5524   1.073   4.062   2.662  1.2983  3.2909 -0.9367
    9MOL   H549 5525   1.381   4.031   2.640  0.4818  1.3053 -0.1043
    9MOL   H550 5526   1.266   4.025   2.518  1.2584 -0.2980  0.3824
    9MOL   H551 5527   1.324   4.265   2.673  0.4877  2.5803 -1.1750
    9MOL   H552 5528   1.202   4.264   2.548 -1.7723 -0.0702  2.4614
    9MOL   H553 5529   1.442   4.341   2.485 -1.5995  0.6674 -1.7958
    9MOL   H554 5530   1.487   4.165   2.476 -0.8300 -0.7740  0.9667
    9MOL   H555 5531   1.310   4.332   2.313 -0.7476 -0.2315  1.3454
    9MOL   H556 5532   1.288   4.150   2.297  1.2243 -0.7717 -1.5229
    9MOL   H557 5533   1.436   4.230   2.257 -0.2865  1.3026 -0.3333
    9MOL   H558 5534   1.063   4.101   3.343  1.1912  0.2531  1.5043
    9MOL   H559 5535   1.100   4.229   3.449 -2.7513 -3.3261  1.6752
    9MOL   C560 5536   0.906   4.267   3.362  0.5589 -0.7594 -0.4118
    9MOL   O561 5537   0.924   4.387   3.441  0.4144 -0.4658 -0.6341
    9MOL   C562 5538   0.832   4.490   3.404  0.5115 -0.5616  0.0684
    9MOL   C563 5539   0.885   4.628   3.445 -0.0017  0.3722 -0.0849
    9MOL   C564 5540   0.795   4.754   3.411  0.1828  0.9825 -0.2808
    9MOL   C565 5541   0.852   4.881   3.467  0.5334 -0.1423 -0.0823
    9MOL   C566 5542   0.775   5.000   3.422 -0.2810  0.0207  0.4455
    9MOL   C567 5543   0.857   5.125   3.451 -0.5744  0.2924 -0.2629
    9MOL   C568 5544   0.789   5.250   3.398  0.3033 -0.5109  1.0048
    9MOL   C569 5545   0.864   5.378   3.437  0.6421  0.2596 -0.1882
    9MOL   C570 5546   0.819   4.180   3.451  0.0404  0.5534  0.6888
    9MOL   H571 5547   0.864   4.280   3.262  0.6614 -0.1765 -0.3806
    9MOL   H572 5548   0.733   4.467   3.443  0.6194 -2.8699 -0.9376
    9MOL   H573 5549   0.819   4.483   3.297  1.3651  1.5301 -0.1909
    9MOL   H574 5550   0.975   4.640   3.384  0.1101 -0.0709 -0.0081
    9MOL   H575 5551   0.915   4.624   3.550  4.1329  2.6875 -1.0618
    9MOL   H576 5552   0.785   4.765   3.303  0.4006 -1.4057 -0.5595
    9MOL   H577 5553   0.694   4.748   3.451 -0.0993  1.2464 -0.9342
    9MOL   H578 5554   0.842   4.884   3.576  0.6345 -1.2324 -0.0353
    9MOL   H579 5555   0.958   4.894   3.446  0.8704 -1.8503  0.4487
    9MOL   H580 5556   0.735   4.991   3.322 -0.6360  0.8590  0.5077
    9MOL   H581 5557   0.685   5.016   3.482  0.3872  0.4484  1.3448
    9MOL   H582 5558   0.964   5.132   3.430  0.4442  0.6141  4.4441
    9MOL   H583 5559   0.865   5.133   3.560 -0.0073 -0.8190 -0.2150
    9MOL   H584 5560   0.796   5.233   3.290  1.3542 -0.1181  1.0088
    9MOL   H585 5561   0.680   5.257   3.408  0.5549  2.1026  2.2736
    9MOL   H586 5562   0.826   5.465   3.383  0.3416 -1.0466 -2.1013
    9MOL   H587 5563   0.970   5.357   3.423  0.9520  1.3124  0.4916
    9MOL   H588 5564   0.854   5.393   3.544  1.9782 -0.6514  0.0795
    9MOL   H589 5565   0.884   4.150   3.533 -2.0063 -0.1179  2.1070
    9MOL   H590 5566   0.744   4.242   3.499 -1.1983  1.5764 -2.4401
    9MOL   C591 5567   0.753   4.054   3.381 -0.5779  0.6823  0.5214
    9MOL   O592 5568   0.649   4.111   3.300  0.1611  0.1668 -0.3823
    9MOL   C593 5569   0.606   4.041   3.179 -0.4693  0.7635  0.1785
    9MOL   C594 5570   0.448   4.049   3.183 -0.1439 -0.3505 -0.4422
    9MOL   C595 5571   0.374   4.009   3.058  0.6099 -0.0559  0.0397
    9MOL   C596 5572   0.228   3.964   3.076 -0.1883  0.0621 -0.2540
    9MOL   C597 5573   0.174   3.907   2.943 -1.0653 -0.0401  0.4789
    9MOL   C598 5574   0.113   4.016   2.849  0.0333 -0.7961 -0.0060
    9MOL   C599 5575   0.037   3.948   2.731  0.5536 -0.7382 -0.2555
    9MOL   C600 5576   7.668   3.894   2.758  0.3281  0.1960 -0.4912
    9MOL   C601 5577   0.683   3.959   3.486 -0.0516 -0.4358  0.0176
    9MOL   H602 5578   0.831   3.999   3.328 -0.6938  0.8121  0.2106
    9MOL   H603 5579   0.636   3.937   3.181 -0.4050  0.7505 -1.0210
    9MOL   H604 5580   0.658   4.090   3.097  2.2237  0.2370  1.5155
    9MOL   H605 5581   0.417   4.147   3.220  0.3409  0.6069 -2.4983
    9MOL   H606 5582   0.416   3.977   3.258  1.2301  0.1875  0.6933
    9MOL   H607 5583   0.388   4.085   2.980  0.9297  2.4737  2.4735
    9MOL   H608 5584   0.436   3.931   3.014  0.7490 -0.8842  1.7069
    9MOL   H609 5585   0.212   3.882   3.145  0.5991  0.1102 -0.0097
    9MOL   H610 5586   0.170   4.052   3.103  2.8849  1.1059  3.2744
    9MOL   H611 5587   0.248   3.843   2.895 -1.6280 -0.7260  0.5261
    9MOL   H612 5588   0.096   3.831   2.952 -0.9846  0.1554  3.2081
    9MOL   H613 5589   0.179   4.098   2.820  0.1079  0.2356  2.8944
    9MOL   H614 5590   0.033   4.067   2.902  0.8625 -0.1022  0.5853
    9MOL   H615 5591   0.022   4.016   2.648  3.4644 -0.3114 -0.4996
    9MOL   H616 5592   0.101   3.877   2.679  1.9647 -0.2890  0.8426
    9MOL   H617 5593   7.597   3.969   2.795 -0.9647 -1.1040 -0.2953
    9MOL   H618 5594   7.670   3.827   2.844  0.0916 -0.1112 -0.7277
    9MOL   H619 5595   7.615   3.853   2.672 -0.2937  0.0059 -0.0200
    9MOL   H620 5596   0.751   3.944   3.570  0.0203 -0.7246 -0.0897
    9MOL   H621 5597   0.596   4.006   3.531 -0.3149  0.4971 -1.4370
    9MOL   H622 5598   0.648   3.867   3.438 -1.0328  0.4353 -0.9434
   10MOL     C1 5599   6.652   1.971   5.125  0.0426 -0.0195 -0.4176
   10MOL     O2 5600   6.617   1.873   5.228 -0.0423 -0.3982 -0.0602
   10MOL     C3 5601   6.668   1.741   5.202  0.1362 -0.1021  0.4238
   10MOL     C4 5602   6.661   1.656   5.333  0.8407 -0.0784 -0.3486
   10MOL     C5 5603   6.742   1.725   5.448  0.5811  0.3779  0.6478
   10MOL     C6 5604   6.725   1.635   5.571  0.5233 -0.4271  0.0842
   10MOL     C7 5605   6.787   1.706   5.687 -0.2169 -0.8264  0.6161
   10MOL     C8 5606   6.802   1.634   5.820  0.3854  0.4520 -0.5880
   10MOL     C9 5607   6.813   1.725   5.945  0.6170  0.4032 -0.9866
   10MOL    C10 5608   6.838   1.651   6.078  0.2596  0.2040  0.2884
   10MOL    C11 5609   6.547   1.974   5.006  0.6802 -0.3131 -0.1093
   10MOL    H12 5610   6.656   2.068   5.173 -0.6892 -0.1425 -0.1023
   10MOL    H13 5611   6.769   1.752   5.163 -0.4699  2.8332 -0.4179
   10MOL    H14 5612   6.612   1.687   5.125 -0.3859 -1.6701  1.8678
   10MOL    H15 5613   6.695   1.557   5.303  1.9974 -0.0758  0.9031
   10MOL    H16 5614   6.555   1.658   5.357  0.0247  2.1066 -3.7251
   10MOL    H17 5615   6.848   1.747   5.430  0.3762  2.0035  1.3313
   10MOL    H18 5616   6.697   1.824   5.454 -1.9362 -0.6638 -0.4787
   10MOL    H19 5617   6.625   1.596   5.587 -0.1291  0.9229 -0.6076
   10MOL    H20 5618   6.781   1.542   5.563  0.2667 -0.4424 -1.8472
   10MOL    H21 5619   6.885   1.736   5.650 -0.3818  1.2366  1.7934
   10MOL    H22 5620   6.723   1.792   5.706 -0.7217 -0.3923 -2.6995
   10MOL    H23 5621   6.890   1.570   5.818  1.7779  2.1652  2.5848
   10MOL    H24 5622   6.714   1.574   5.845  0.8056  0.3993  0.8039
   10MOL    H25 5623   6.896   1.788   5.914  0.1571  1.3636 -0.3000
   10MOL    H26 5624   6.729   1.793   5.958  1.7190  1.8041 -1.1044
   10MOL    H27 5625   6.942   1.621   6.087 -1.0612 -3.9280  3.1794
   10MOL    H28 5626   6.776   1.563   6.095 -1.0495  1.2979  1.3955
   10MOL    H29 5627   6.817   1.724   6.157 -0.2021  0.5550 -0.1509
   10MOL    H30 5628   6.542   1.875   4.962  0.8661 -0.1397 -0.5224
   10MOL    H31 5629   6.447   1.995   5.045  0.7196  0.5744 -0.4521
   10MOL    H32 5630   6.749   1.960   5.077  0.6103  2.9260 -0.0450
   10MOL    C33 5631   6.585   2.076   4.904 -0.2991 -0.5181 -0.2575
   10MOL    O34 5632   6.628   2.196   4.964 -0.4390 -0.3487 -0.5384
   10MOL    C35 5633   6.763   2.237   4.917  0.5031  0.0549  0.0113
   10MOL    C36 5634   6.859   2.277   5.031  0.1091  0.4030  0.6613
   10MOL    C37 5635   6.789   2.381   5.119  0.5412 -0.2499 -0.6094
   10MOL    C38 5636   6.892   2.474   5.187  0.3148 -0.1912 -0.9711
   10MOL    C39 5637   6.842   2.600   5.265 -0.0135 -0.7901 -0.6050
   10MOL    C40 5638   6.751   2.701   5.189 -0.1740  0.4374  0.1349
   10MOL    C41 5639   6.813   2.788   5.075  0.2960  0.8636  0.0316
   10MOL    C42 5640   6.952   2.835   5.104  0.4697 -0.0964  0.5410
   10MOL    C43 5641   6.459   2.117   4.830 -1.2069  0.2255 -0.1198
   10MOL    H44 5642   6.657   2.036   4.833 -0.8996 -2.8375  0.3958
   10MOL    H45 5643   6.751   2.319   4.846  0.6961  0.4371  0.4185
   10MOL    H46 5644   6.827   2.161   4.873  0.5668  0.4325 -0.5460
   10MOL    H47 5645   6.954   2.304   4.987  0.8982 -3.7983 -0.4037
   10MOL    H48 5646   6.881   2.185   5.085  0.0141  0.2317  0.4039
   10MOL    H49 5647   6.743   2.459   5.057 -1.2146 -1.0472 -0.3411
   10MOL    H50 5648   6.712   2.337   5.183 -0.6670  1.5911 -0.7676
   10MOL    H51 5649   6.945   2.419   5.264  0.2822 -0.0476 -0.8484
   10MOL    H52 5650   6.971   2.505   5.119  0.8695 -0.1331 -0.2957
   10MOL    H53 5651   6.782   2.552   5.343  1.3573  2.3638  2.5230
   10MOL    H54 5652   6.933   2.640   5.308 -1.3439 -1.3905  2.9064
   10MOL    H55 5653   6.709   2.765   5.267  0.7427 -0.6567  1.5422
   10MOL    H56 5654   6.669   2.646   5.142  1.2441 -2.1322  0.5680
   10MOL    H57 5655   6.819   2.740   4.977  1.4645  0.6270  0.2165
   10MOL    H58 5656   6.741   2.868   5.055 -1.4937 -0.4014  1.2023
   10MOL    H59 5657   6.988   2.890   5.018  1.0943  0.4581  1.1467
   10MOL    H60 5658   7.015   2.748   5.117  2.6744  1.4190  0.2308
   10MOL    H61 5659   6.961   2.896   5.194 -0.0201 -0.9467  1.1757
   10MOL    H62 5660   6.415   2.030   4.781 -1.1311  0.1244 -0.0069
   10MOL    H63 5661   6.387   2.158   4.901  0.8003  1.1654  1.3826
   10MOL    C64 5662   6.474   2.213   4.712  0.7114 -0.3384  0.0722
   10MOL    O65 5663   6.407   2.331   4.748 -0.2015  0.2784 -0.7494
   10MOL    C66 5664   6.480   2.444   4.716  0.0688  0.0851 -0.2295
   10MOL    C67 5665   6.409   2.571   4.760 -0.1796  0.0371 -0.0832
   10MOL    C68 5666   6.385   2.575   4.911  0.0985 -0.2353 -0.8322
   10MOL    C69 5667   6.324   2.707   4.956  0.4184 -0.6836  0.1908
   10MOL    C70 5668   6.414   2.826   4.936  0.1388 -0.2374  0.5169
   10MOL    C71 5669   6.348   2.958   4.971  0.3102  0.0135  0.4905
   10MOL    C72 5670   6.321   2.983   5.111  0.3593 -0.4658 -0.1787
   10MOL    C73 5671   6.442   2.976   5.208 -0.0680  0.0534 -0.2022
   10MOL    C74 5672   6.411   2.167   4.576 -0.0725  0.2048 -1.0876
   10MOL    H75 5673   6.581   2.222   4.694  0.9030 -0.9470  0.9005
   10MOL    H76 5674   6.496   2.437   4.609 -1.4419  2.0987 -0.6154
   10MOL    H77 5675   6.577   2.443   4.766 -0.1723  0.7992  0.2557
   10MOL    H78 5676   6.329   2.605   4.695  1.2277  2.2942 -0.6781
   10MOL    H79 5677   6.486   2.644   4.734 -1.3834  0.6022 -2.1770
   10MOL    H80 5678   6.312   2.499   4.941 -0.7843  1.4918  1.5509
   10MOL    H81 5679   6.481   2.551   4.956  0.1298 -0.6362 -1.1121
   10MOL    H82 5680   6.230   2.728   4.905  0.0180  0.9976  1.5903
   10MOL    H83 5681   6.297   2.703   5.062 -1.2272  0.9173 -0.1531
   10MOL    H84 5682   6.516   2.825   4.975 -0.1230  0.6647  1.2176
   10MOL    H85 5683   6.428   2.843   4.829 -1.4684 -1.1768  0.1400
   10MOL    H86 5684   6.247   2.965   4.929 -0.1730  0.3905  1.6817
   10MOL    H87 5685   6.397   3.046   4.930 -1.2371  0.4102 -0.5647
   10MOL    H88 5686   6.281   3.085   5.116  0.6713 -0.1500 -3.3798
   10MOL    H89 5687   6.242   2.914   5.141  0.4171  0.1801  1.5461
   10MOL    H90 5688   6.521   3.049   5.190 -0.0411  0.4472  1.4016
   10MOL    H91 5689   6.482   2.875   5.218 -0.2464  0.0413  0.4354
   10MOL    H92 5690   6.407   2.997   5.309 -0.5394 -1.4947 -0.0287
   10MOL    H93 5691   6.305   2.148   4.592  0.3403 -1.5881 -0.2944
   10MOL    H94 5692   6.417   2.248   4.504 -0.8381 -0.3275 -1.7688
   10MOL    C95 5693   6.472   2.052   4.494 -0.7121  0.5343 -0.3423
   10MOL    O96 5694   6.598   2.104   4.435  0.4657 -0.1953 -0.5602
   10MOL    C97 5695   6.701   2.007   4.426 -0.4664 -0.6087  0.2320
   10MOL    C98 5696   6.812   2.064   4.339  0.1664  0.6803  0.0680
   10MOL    C99 5697   6.905   1.964   4.275 -1.2098  0.4667 -0.2464
   10MOL   C100 5698   6.999   1.892   4.372  0.0154  0.1745 -0.1087
   10MOL   C101 5699   7.065   1.772   4.307 -0.8499  0.6133  0.1768
   10MOL   C102 5700   7.204   1.724   4.360 -0.7581  0.0767  0.7458
   10MOL   C103 5701   7.205   1.641   4.491  0.3490 -0.1893  0.0871
   10MOL   C104 5702   7.343   1.588   4.508 -0.1618 -0.8761  0.5344
   10MOL   C105 5703   6.374   2.010   4.385  0.2070 -0.0470 -0.1267
   10MOL   H106 5704   6.486   1.974   4.569 -1.0189  0.6717 -0.1421
   10MOL   H107 5705   6.663   1.920   4.373 -0.6047  0.5613 -1.6345
   10MOL   H108 5706   6.740   1.985   4.525  0.5474 -1.7464 -0.4091
   10MOL   H109 5707   6.881   2.130   4.392  1.1204 -0.3046  0.0673
   10MOL   H110 5708   6.775   2.117   4.252  1.5148 -0.2212 -1.0805
   10MOL   H111 5709   6.845   1.890   4.222 -0.4017  1.1048 -2.1079
   10MOL   H112 5710   6.956   2.009   4.190  0.6168  0.6972  0.9571
   10MOL   H113 5711   7.081   1.958   4.400  1.8790 -1.7015 -1.0524
   10MOL   H114 5712   6.934   1.865   4.455  0.0769 -0.8564 -0.3872
   10MOL   H115 5713   6.992   1.691   4.310  0.0063 -0.2603 -1.5799
   10MOL   H116 5714   7.074   1.790   4.200 -1.3069  1.2620  0.2438
   10MOL   H117 5715   7.273   1.808   4.358  0.0493 -0.5476 -2.9017
   10MOL   H118 5716   7.236   1.655   4.281 -0.8468  1.2662 -0.3574
   10MOL   H119 5717   7.170   1.702   4.574  0.5194  0.7116 -0.4952
   10MOL   H120 5718   7.134   1.559   4.483 -2.1163  1.9758 -1.5334
   10MOL   H121 5719   7.408   1.669   4.540  1.1491 -2.3712  1.7692
   10MOL   H122 5720   7.374   1.538   4.417 -2.1094  0.2300 -0.7511
   10MOL   H123 5721   7.350   1.523   4.596  0.9160 -1.2534  0.1752
   10MOL   H124 5722   6.308   2.093   4.358 -0.3101  0.5207  2.6947
   10MOL   H125 5723   6.428   1.961   4.304  1.1254  0.3287  0.2624
   10MOL   C126 5724   6.277   1.899   4.442  1.4245  0.2426  0.1201
   10MOL   O127 5725   6.360   1.787   4.456  0.4457  0.5226  0.3712
   10MOL   C128 5726   6.315   1.695   4.557  0.5890  1.0927 -0.1940
   10MOL   C129 5727   6.421   1.592   4.585  0.2284  0.3866  0.5635
   10MOL   C130 5728   6.554   1.662   4.596 -0.0477 -0.0632 -0.9556
   10MOL   C131 5729   6.665   1.561   4.641  0.2828  0.2044 -0.1596
   10MOL   C132 5730   6.810   1.619   4.651 -0.5805 -0.3242  1.1401
   10MOL   C133 5731   6.816   1.731   4.755  0.3862 -0.2140  0.4437
   10MOL   C134 5732   6.963   1.783   4.758  0.3538  0.1988  0.0006
   10MOL   C135 5733   6.980   1.902   4.858 -0.4242  0.0892 -0.3305
   10MOL   C136 5734   6.158   1.863   4.356 -0.3919 -0.1399  0.4892
   10MOL   H137 5735   6.249   1.928   4.543  1.1715 -1.3816  0.5284
   10MOL   H138 5736   6.226   1.643   4.523  0.0531  2.7001 -1.3321
   10MOL   H139 5737   6.277   1.745   4.646  0.3763 -2.1859  1.6228
   10MOL   H140 5738   6.409   1.521   4.503 -1.8004 -0.5219  1.6291
   10MOL   H141 5739   6.398   1.531   4.672 -1.6124  0.7112  0.3189
   10MOL   H142 5740   6.594   1.708   4.506  3.0887  0.2059  0.4846
   10MOL   H143 5741   6.541   1.739   4.672  0.4625  0.2521 -1.1864
   10MOL   H144 5742   6.639   1.510   4.734 -0.4419  0.4957 -0.2012
   10MOL   H145 5743   6.666   1.476   4.571  1.9582  0.6455 -0.6997
   10MOL   H146 5744   6.873   1.536   4.683  0.3274 -0.0047  0.2050
   10MOL   H147 5745   6.829   1.663   4.553 -0.8012  1.3339  1.8224
   10MOL   H148 5746   6.788   1.699   4.856 -1.6721 -1.4149 -0.4916
   10MOL   H149 5747   6.757   1.818   4.727 -0.2530 -1.0001 -0.6807
   10MOL   H150 5748   7.026   1.701   4.791 -0.7378 -0.6431  0.0337
   10MOL   H151 5749   6.982   1.816   4.655 -2.6923 -0.1365 -0.7332
   10MOL   H152 5750   6.973   1.993   4.799  0.5989  0.1518 -0.3494
   10MOL   H153 5751   7.065   1.900   4.926  0.0797  1.8448 -0.8966
   10MOL   H154 5752   6.896   1.910   4.928 -0.7275 -0.9055 -0.5728
   10MOL   H155 5753   6.202   1.849   4.257 -0.6807  0.0675  0.3305
   10MOL   H156 5754   6.118   1.769   4.393 -0.0617 -0.4620  0.0312
   10MOL   C157 5755   6.051   1.964   4.339  0.0682  0.0208 -1.3314
   10MOL   O158 5756   6.001   1.990   4.474  0.5389 -0.2983  0.0438
   10MOL   C159 5757   6.011   2.118   4.518 -0.0466 -0.4163 -0.0331
   10MOL   C160 5758   5.993   2.107   4.671  0.3729 -0.0460 -0.3017
   10MOL   C161 5759   6.023   2.238   4.743  0.1681  0.3101  0.3616
   10MOL   C162 5760   5.979   2.210   4.884 -0.2910 -0.3476 -0.1821
   10MOL   C163 5761   6.016   2.331   4.984  0.1486  0.0824 -0.1930
   10MOL   C164 5762   5.918   2.451   4.983  0.3085  0.3438  0.0724
   10MOL   C165 5763   5.966   2.579   5.053  0.6849  0.0313  0.2433
   10MOL   C166 5764   6.029   2.561   5.193  0.0197  0.3186 -0.0456
   10MOL   C167 5765   5.947   1.911   4.241  0.1538  0.5479  0.2407
   10MOL   H168 5766   6.102   2.051   4.298  3.7850 -0.5912  1.6829
   10MOL   H169 5767   5.939   2.190   4.478  1.0414  1.1588  0.7879
   10MOL   H170 5768   6.113   2.149   4.498 -0.0601  1.8814  3.0110
   10MOL   H171 5769   6.065   2.034   4.707  0.9707 -0.2032 -1.7776
   10MOL   H172 5770   5.896   2.069   4.703  0.3214 -0.0752 -0.4951
   10MOL   H173 5771   6.130   2.256   4.747  0.2398 -0.4808  3.0881
   10MOL   H174 5772   5.969   2.317   4.690 -1.3763  0.3202  1.8851
   10MOL   H175 5773   5.871   2.198   4.884 -0.6315  2.4268 -1.0957
   10MOL   H176 5774   6.024   2.116   4.916  0.5172  0.3898  0.9013
   10MOL   H177 5775   6.032   2.292   5.084 -0.0492  1.2934  0.3045
   10MOL   H178 5776   6.120   2.354   4.960 -0.4270  1.6532 -1.2355
   10MOL   H179 5777   5.824   2.422   5.032  0.5069 -0.5411 -0.0613
   10MOL   H180 5778   5.902   2.474   4.878 -0.7166 -1.6862 -0.2593
   10MOL   H181 5779   6.034   2.633   4.987 -0.6794 -0.2667 -1.4319
   10MOL   H182 5780   5.879   2.645   5.058  1.2306  0.7410  0.5994
   10MOL   H183 5781   6.035   2.650   5.256 -0.2226  0.3676 -0.0913
   10MOL   H184 5782   6.129   2.519   5.182  0.5177  1.0838  1.3886
   10MOL   H185 5783   5.972   2.485   5.246 -0.4765  0.2941 -0.6104
   10MOL   H186 5784   5.997   1.884   4.148 -0.6971  0.0945 -0.0966
   10MOL   H187 5785   5.903   1.819   4.280  0.3449  0.5276  0.4069
   10MOL   C188 5786   5.840   2.011   4.212  0.8486  0.7830 -0.2895
   10MOL   O189 5787   5.740   1.935   4.150  0.2665  0.0879  0.1204
   10MOL   C190 5788   5.606   1.953   4.195 -0.8807  0.2211  0.0572
   10MOL   C191 5789   5.519   1.871   4.103 -0.4114  0.0411 -0.0059
   10MOL   C192 5790   5.529   1.717   4.100 -0.3903  0.7791 -0.9148
   10MOL   C193 5791   5.467   1.636   4.220  0.0510  0.1759 -0.7191
   10MOL   C194 5792   5.481   1.486   4.202  0.4070  0.3459 -0.1100
   10MOL   C195 5793   5.406   1.417   4.315 -0.6908  0.3183  0.0920
   10MOL   C196 5794   5.363   1.271   4.276  0.2253 -0.7807  0.1077
   10MOL   C197 5795   5.276   1.217   4.387 -0.0495  0.6233 -0.2097
   10MOL   C198 5796   5.895   2.124   4.119  0.1061 -0.8271 -0.6892
   10MOL   H199 5797   5.804   2.051   4.307 -1.1267  0.8378 -1.0314
   10MOL   H200 5798   5.609   1.917   4.298 -2.1959  1.6288  0.6102
   10MOL   H201 5799   5.563   2.051   4.214 -0.2441  0.2782  1.2496
   10MOL   H202 5800   5.545   1.915   4.007 -0.7311  0.3908  0.0636
   10MOL   H203 5801   5.415   1.891   4.129 -0.4271  0.2790 -0.2484
   10MOL   H204 5802   5.478   1.675   4.013 -1.2035 -0.6386  0.2237
   10MOL   H205 5803   5.631   1.685   4.079 -1.1134  0.7095 -4.5538
   10MOL   H206 5804   5.520   1.672   4.308 -0.2671 -2.5196  0.6294
   10MOL   H207 5805   5.362   1.660   4.231  0.2432  1.0944 -0.8550
   10MOL   H208 5806   5.437   1.449   4.109  0.6366 -1.5908  0.5331
   10MOL   H209 5807   5.582   1.445   4.194  0.1895 -0.1930 -0.0986
   10MOL   H210 5808   5.316   1.478   4.329 -2.2051 -1.9090  0.3383
   10MOL   H211 5809   5.470   1.412   4.403 -1.7518 -1.5972  0.7828
   10MOL   H212 5810   5.305   1.278   4.184  1.1062 -1.6472 -0.5214
   10MOL   H213 5811   5.447   1.207   4.250 -1.3507 -1.9614 -2.2025
   10MOL   H214 5812   5.194   1.154   4.353  0.2367  1.6167 -2.8593
   10MOL   H215 5813   5.223   1.288   4.450  1.0157 -0.1395  1.5886
   10MOL   H216 5814   5.341   1.159   4.453 -1.7535 -0.6662  0.3769
   10MOL   H217 5815   5.971   2.184   4.168  0.2621 -0.2006 -1.7102
   10MOL   H218 5816   5.939   2.088   4.027  0.8972 -0.7072 -0.3588
   10MOL   C219 5817   5.785   2.233   4.089  0.0080  0.4648 -0.3587
   10MOL   O220 5818   5.844   2.317   3.996  0.0193 -0.7022 -0.1800
   10MOL   C221 5819   5.779   2.317   3.868  0.4456 -0.0454  0.4375
   10MOL   C222 5820   5.863   2.406   3.780 -0.5881  0.2030 -0.2717
   10MOL   C223 5821   5.886   2.540   3.850 -0.4205 -0.1086 -0.1462
   10MOL   C224 5822   5.950   2.648   3.762  0.1403 -0.9916 -0.1820
   10MOL   C225 5823   5.944   2.781   3.843  0.0090 -0.6888  0.2719
   10MOL   C226 5824   5.973   2.905   3.768  0.5247  0.5726  0.3899
   10MOL   C227 5825   5.927   3.030   3.851  0.2055 -0.1018  0.2173
   10MOL   C228 5826   5.983   3.158   3.793  0.1097 -0.0040 -0.6907
   10MOL   C229 5827   5.732   2.328   4.202 -0.3523 -0.4041 -0.8480
   10MOL   H230 5828   5.690   2.198   4.047 -0.5490 -0.4914  1.6419
   10MOL   H231 5829   5.681   2.365   3.883  1.4218  1.0433  3.9116
   10MOL   H232 5830   5.756   2.222   3.821  2.9902 -0.6254  0.3175
   10MOL   H233 5831   5.820   2.406   3.680 -1.4053 -0.3844  0.0749
   10MOL   H234 5832   5.957   2.351   3.770 -1.1639 -0.7786 -0.3413
   10MOL   H235 5833   5.806   2.590   3.905  0.4630 -0.5065  1.5380
   10MOL   H236 5834   5.960   2.522   3.928 -0.3005  2.1695  0.3090
   10MOL   H237 5835   6.048   2.622   3.722  0.7350  0.0089  0.6088
   10MOL   H238 5836   5.894   2.657   3.669 -0.4177 -1.9045  0.0606
   10MOL   H239 5837   5.842   2.788   3.881 -0.4487 -0.9956 -0.8812
   10MOL   H240 5838   6.011   2.770   3.928  1.9923 -0.8811 -1.2925
   10MOL   H241 5839   5.915   2.915   3.676  0.8747  0.5574  0.1678
   10MOL   H242 5840   6.081   2.921   3.760  0.4180  1.1121  0.0041
   10MOL   H243 5841   5.819   3.042   3.857  0.2572  0.5619 -0.1920
   10MOL   H244 5842   5.954   3.024   3.957 -0.0727  2.2463  0.4510
   10MOL   H245 5843   6.089   3.154   3.768 -0.2625 -0.8969 -2.2169
   10MOL   H246 5844   5.969   3.242   3.861 -1.1802  0.5860 -1.6744
   10MOL   H247 5845   5.941   3.183   3.696  0.1777  0.1497 -0.6801
   10MOL   H248 5846   5.695   2.283   4.293 -0.7202 -0.9438 -1.2609
   10MOL   H249 5847   5.825   2.374   4.235 -1.7518  1.4048  0.7026
   10MOL   C250 5848   5.635   2.438   4.155  0.3662  0.4207 -0.0532
   10MOL   O251 5849   5.633   2.528   4.264 -0.3891 -0.3810 -0.1437
   10MOL   C252 5850   5.745   2.610   4.258 -0.5524 -0.3281 -0.1167
   10MOL   C253 5851   5.690   2.750   4.224  0.0873 -0.4152  1.1241
   10MOL   C254 5852   5.804   2.853   4.225  0.4835  0.2637  0.2550
   10MOL   C255 5853   5.747   2.991   4.201  0.3056  0.2139  0.0614
   10MOL   C256 5854   5.858   3.104   4.227  1.4284  0.0036 -0.1210
   10MOL   C257 5855   5.801   3.246   4.202  0.3610 -0.1574  0.0018
   10MOL   C258 5856   5.858   3.346   4.298  0.2788  0.2826  0.0709
   10MOL   C259 5857   5.777   3.479   4.294 -1.1768  0.3186  0.2025
   10MOL   C260 5858   5.496   2.377   4.141  0.2011 -0.3105 -0.1529
   10MOL   H261 5859   5.652   2.497   4.066  1.2186 -1.0593 -0.9047
   10MOL   H262 5860   5.826   2.580   4.191 -0.6363 -0.7458 -0.0298
   10MOL   H263 5861   5.778   2.612   4.362  0.2493 -1.3894 -0.3395
   10MOL   H264 5862   5.606   2.783   4.286 -0.6060 -0.8476  0.4349
   10MOL   H265 5863   5.649   2.729   4.125  0.2609 -0.1488  0.9967
   10MOL   H266 5864   5.847   2.839   4.324  1.2464  0.5271 -0.0400
   10MOL   H267 5865   5.883   2.830   4.154  0.0366 -1.4612  0.2832
   10MOL   H268 5866   5.711   3.001   4.099  1.3500 -0.0786 -0.3464
   10MOL   H269 5867   5.662   3.007   4.266  0.6306 -0.4210  0.6548
   10MOL   H270 5868   5.878   3.091   4.334  0.7523 -2.6904 -0.2782
   10MOL   H271 5869   5.953   3.087   4.177  0.9124 -1.9801 -0.4609
   10MOL   H272 5870   5.693   3.238   4.213  0.2351 -1.1698 -1.6543
   10MOL   H273 5871   5.822   3.272   4.098 -1.5227 -0.7414 -0.5417
   10MOL   H274 5872   5.863   3.304   4.399 -1.5639 -1.8886 -0.6996
   10MOL   H275 5873   5.964   3.363   4.276  0.0853 -0.5091 -1.5442
   10MOL   H276 5874   5.831   3.572   4.273 -2.3179  0.4846 -2.1220
   10MOL   H277 5875   5.716   3.484   4.385  0.9116 -0.1199  1.6749
   10MOL   H278 5876   5.709   3.474   4.209 -1.8408  0.8217  0.6965
   10MOL   H279 5877   5.493   2.286   4.081 -2.2495 -0.1528 -0.2932
   10MOL   H280 5878   5.468   2.329   4.235  0.4080 -1.4959 -0.6878
   10MOL   C281 5879   5.389   2.482   4.096 -0.1667 -0.0909  0.7420
   10MOL   O282 5880   5.257   2.445   4.139 -0.7865  0.0824  0.2630
   10MOL   C283 5881   5.239   2.449   4.283  0.1325 -0.1072  0.6508
   10MOL   C284 5882   5.098   2.483   4.318 -0.1660 -0.3882  0.0178
   10MOL   C285 5883   5.062   2.626   4.278 -0.2602  0.2198 -0.3904
   10MOL   C286 5884   4.917   2.658   4.320 -0.7508  0.1688  0.1383
   10MOL   C287 5885   4.858   2.780   4.255 -0.3636 -0.0107  0.5879
   10MOL   C288 5886   4.738   2.830   4.333 -0.5381 -0.3144 -0.2475
   10MOL   C289 5887   4.611   2.754   4.288  0.4933  0.0678  0.9327
   10MOL   C290 5888   4.482   2.811   4.358 -0.0298  1.1958 -0.4297
   10MOL   C291 5889   5.385   2.492   3.946 -0.8592 -0.1746  0.0735
   10MOL   H292 5890   5.412   2.583   4.129 -1.9904  1.1328 -1.5836
   10MOL   H293 5891   5.314   2.516   4.325  0.5346  0.3261 -0.7209
   10MOL   H294 5892   5.248   2.348   4.321 -0.1088 -0.4720 -0.2367
   10MOL   H295 5893   5.097   2.472   4.426 -1.0540 -0.9595 -0.0418
   10MOL   H296 5894   5.038   2.410   4.264 -1.8721  0.9454  0.0590
   10MOL   H297 5895   5.126   2.698   4.329  1.4494 -0.7155 -1.1970
   10MOL   H298 5896   5.074   2.638   4.170  0.2188  1.2007 -0.2330
   10MOL   H299 5897   4.856   2.570   4.297  0.9522 -1.0963  0.3212
   10MOL   H300 5898   4.905   2.671   4.428  2.1220 -2.0215  0.8170
   10MOL   H301 5899   4.933   2.859   4.250  0.1794 -0.3877  2.4550
   10MOL   H302 5900   4.832   2.763   4.150  1.3338  3.2835 -0.4384
   10MOL   H303 5901   4.705   2.933   4.322 -0.1995 -0.3909 -2.2048
   10MOL   H304 5902   4.745   2.822   4.441 -1.6158 -0.4196 -0.1755
   10MOL   H305 5903   4.592   2.752   4.181  1.1778  0.3516  0.8068
   10MOL   H306 5904   4.620   2.647   4.308  0.6195 -0.2044 -0.5840
   10MOL   H307 5905   4.388   2.783   4.311 -0.2589  0.1957  0.6131
   10MOL   H308 5906   4.488   2.919   4.370  1.6833  1.0696  0.0273
   10MOL   H309 5907   4.472   2.778   4.462  0.0495 -1.9758 -1.3891
   10MOL   H310 5908   5.484   2.496   3.901 -0.8061  0.6683  0.2552
   10MOL   H311 5909   5.341   2.398   3.913  1.8648 -2.3432  2.3728
   10MOL   C312 5910   5.316   2.623   3.891  0.2735  0.3119  0.0376
   10MOL   O313 5911   5.251   2.607   3.765  0.6739 -0.4870  0.9133
   10MOL   C314 5912   5.140   2.526   3.766  0.0817 -0.7081  0.8988
   10MOL   C315 5913   5.037   2.560   3.658 -0.3577 -0.4179 -0.1889
   10MOL   C316 5914   5.101   2.559   3.513 -0.0373  0.1253  0.0830
   10MOL   C317 5915   5.010   2.602   3.399 -0.2941 -0.4435 -0.2064
   10MOL   C318 5916   4.923   2.489   3.353  0.1051  0.1031 -0.7074
   10MOL   C319 5917   4.839   2.512   3.230  0.5923 -0.0720  0.0877
   10MOL   C320 5918   4.908   2.539   3.095  0.1378  0.0773 -0.2901
   10MOL   C321 5919   4.991   2.423   3.045 -0.5248 -0.4705  0.1432
   10MOL   C322 5920   5.427   2.729   3.875  0.0407  0.4392  0.4525
   10MOL   H323 5921   5.239   2.652   3.963  1.3059  3.1310  0.0619
   10MOL   H324 5922   5.087   2.531   3.861  2.0884 -0.9653  2.0414
   10MOL   H325 5923   5.169   2.422   3.760 -1.2831 -1.0435 -0.2069
   10MOL   H326 5924   4.985   2.653   3.679 -0.5354  0.1265 -2.8505
   10MOL   H327 5925   4.957   2.485   3.656 -0.1689 -0.6103 -0.7155
   10MOL   H328 5926   5.183   2.630   3.514  0.4154 -0.3351 -1.5084
   10MOL   H329 5927   5.147   2.463   3.487  2.1470  1.3264 -0.5503
   10MOL   H330 5928   4.947   2.676   3.448  1.6361  0.9611  0.2257
   10MOL   H331 5929   5.062   2.660   3.323 -0.9522  1.0373  0.4427
   10MOL   H332 5930   4.976   2.393   3.348  0.1762  0.0873  0.2589
   10MOL   H333 5931   4.847   2.476   3.430  0.5365 -0.4102 -0.3662
   10MOL   H334 5932   4.783   2.599   3.264  0.3831 -0.8590  1.8037
   10MOL   H335 5933   4.758   2.443   3.209  0.3798 -0.2613  1.5219
   10MOL   H336 5934   4.833   2.555   3.018  0.1967  0.1683 -0.3278
   10MOL   H337 5935   4.974   2.625   3.104  0.7481 -0.5270  1.2877
   10MOL   H338 5936   4.931   2.332   3.049 -1.1900  0.0016  1.0306
   10MOL   H339 5937   5.072   2.405   3.115 -0.8547  1.5206  1.0622
   10MOL   H340 5938   5.033   2.424   2.944  0.4671 -1.9536  0.5265
   10MOL   H341 5939   5.503   2.722   3.953 -0.9189 -1.7517  1.2571
   10MOL   H342 5940   5.475   2.702   3.781  1.0230  0.4586  0.9421
   10MOL   C343 5941   5.372   2.871   3.881 -0.0474  0.3368  0.3574
   10MOL   O344 5942   5.464   2.965   3.826 -0.0631  0.4560 -0.0588
   10MOL   C345 5943   5.476   2.962   3.685  0.2611  0.1374  0.2156
   10MOL   C346 5944   5.580   3.056   3.632 -0.9876 -0.1602  0.3561
   10MOL   C347 5945   5.607   3.046   3.480  0.1970  0.6171  0.1893
   10MOL   C348 5946   5.722   3.129   3.423 -0.5435  0.2070  0.4412
   10MOL   C349 5947   5.750   3.127   3.271 -0.6820 -0.0199 -0.3764
   10MOL   C350 5948   5.631   3.180   3.181  0.3772 -0.0008  0.0285
   10MOL   C351 5949   5.685   3.184   3.038  0.1993 -0.1599  0.1886
   10MOL   C352 5950   5.578   3.248   2.947 -0.2483 -0.9181 -0.0588
   10MOL   C353 5951   5.343   2.920   4.024  0.1094  0.6512  0.0646
   10MOL   H354 5952   5.284   2.861   3.818 -0.2949 -1.6265  0.9763
   10MOL   H355 5953   5.380   2.998   3.649  0.3666 -0.4843 -0.6994
   10MOL   H356 5954   5.486   2.860   3.649  3.1618  0.1534  0.8265
   10MOL   H357 5955   5.676   3.052   3.683  0.3183  2.4620 -1.8065
   10MOL   H358 5956   5.551   3.158   3.656  0.5327  0.6334 -1.1472
   10MOL   H359 5957   5.608   2.940   3.452 -2.7600 -0.1576  2.8050
   10MOL   H360 5958   5.520   3.084   3.426 -0.9124 -1.2106  0.6258
   10MOL   H361 5959   5.710   3.231   3.460  0.5833  0.2006  0.8359
   10MOL   H362 5960   5.817   3.093   3.462 -0.3988  0.9211  0.7559
   10MOL   H363 5961   5.832   3.198   3.260 -0.0229 -0.5958  0.7546
   10MOL   H364 5962   5.795   3.035   3.235 -1.4514 -1.4774  2.2694
   10MOL   H365 5963   5.599   3.282   3.203  1.2423  0.4471 -0.7296
   10MOL   H366 5964   5.546   3.113   3.191 -0.9682  1.6575 -0.1484
   10MOL   H367 5965   5.777   3.243   3.033 -2.1929  3.8765  0.9269
   10MOL   H368 5966   5.708   3.082   3.009 -1.0188 -0.0849 -1.0886
   10MOL   H369 5967   5.575   3.356   2.941 -1.3224 -0.9996 -1.2573
   10MOL   H370 5968   5.478   3.232   2.989 -1.1788  1.7919 -1.1493
   10MOL   H371 5969   5.579   3.199   2.850  2.0583 -0.1616 -0.4183
   10MOL   H372 5970   5.289   2.841   4.075 -1.5419  1.4066 -0.4768
   10MOL   H373 5971   5.433   2.921   4.086  0.3851  3.2080 -0.3268
   10MOL   C374 5972   5.262   3.049   4.028  0.1828  0.1115  0.7714
   10MOL   O375 5973   5.261   3.086   4.161 -0.0276  0.3225 -0.3452
   10MOL   C376 5974   5.349   3.185   4.204  0.2212 -0.0142 -0.1769
   10MOL   C377 5975   5.325   3.211   4.355 -0.3000 -0.0309  0.2158
   10MOL   C378 5976   5.190   3.290   4.376 -0.0396  0.3674  0.2211
   10MOL   C379 5977   5.178   3.349   4.524 -0.3499  0.7190  0.0196
   10MOL   C380 5978   5.059   3.450   4.546 -0.7411 -0.5157 -0.1760
   10MOL   C381 5979   5.060   3.498   4.696  0.4055 -0.4913  0.5382
   10MOL   C382 5980   4.934   3.577   4.730  0.3074  0.0142  0.4325
   10MOL   C383 5981   4.809   3.490   4.727 -0.1009  0.0714  0.3413
   10MOL   C384 5982   5.109   3.030   3.985 -0.0742 -0.4082  0.8352
   10MOL   H385 5983   5.310   3.126   3.968  0.0062 -1.4097 -1.3701
   10MOL   H386 5984   5.332   3.275   4.145  1.8150 -0.1795 -0.9128
   10MOL   H387 5985   5.448   3.150   4.174  0.1855  1.4169 -2.0907
   10MOL   H388 5986   5.403   3.277   4.394 -0.4116  0.7387 -0.8407
   10MOL   H389 5987   5.323   3.125   4.422 -0.7871  1.0003  1.5538
   10MOL   H390 5988   5.182   3.370   4.302 -0.3446  0.7562  0.6724
   10MOL   H391 5989   5.104   3.227   4.351  0.2078 -0.6814  1.9758
   10MOL   H392 5990   5.164   3.262   4.588 -1.9128  0.5711 -0.5012
   10MOL   H393 5991   5.276   3.395   4.532  0.0708 -0.0892 -0.4299
   10MOL   H394 5992   5.086   3.533   4.480 -1.9193 -1.1637 -1.4963
   10MOL   H395 5993   4.963   3.418   4.507 -0.1793 -1.4271 -0.8478
   10MOL   H396 5994   5.152   3.556   4.703 -0.6669  1.2461  0.6857
   10MOL   H397 5995   5.068   3.412   4.762 -0.0691 -0.7652  0.2409
   10MOL   H398 5996   4.937   3.630   4.826  1.8607  0.8141 -0.0330
   10MOL   H399 5997   4.900   3.648   4.654 -2.1300 -0.5802  0.9261
   10MOL   H400 5998   4.837   3.386   4.746 -0.1326  0.1118  0.6174
   10MOL   H401 5999   4.760   3.498   4.630  0.6039  1.1462  0.0665
   10MOL   H402 6000   4.745   3.531   4.805  0.0468  1.8899 -0.4737
   10MOL   H403 6001   5.096   2.937   3.930 -0.7472  0.6481 -0.8529
   10MOL   H404 6002   5.047   3.039   4.074  1.0858  1.6219  1.4818
   10MOL   C405 6003   5.048   3.148   3.901 -0.7195  0.6592  0.0254
   10MOL   O406 6004   5.101   3.155   3.765  0.3145  0.0437  0.0772
   10MOL   C407 6005   5.049   3.065   3.671 -0.7117  0.0152 -0.2850
   10MOL   C408 6006   5.114   3.095   3.534  0.1880  0.2251 -0.1798
   10MOL   C409 6007   5.127   2.971   3.450  0.0362 -0.1858  0.2357
   10MOL   C410 6008   5.215   2.991   3.325 -0.8037  0.1156  0.3050
   10MOL   C411 6009   5.194   2.889   3.211 -0.4958 -0.1036  0.0354
   10MOL   C412 6010   5.233   2.942   3.068  0.6991  0.6084  0.7306
   10MOL   C413 6011   5.194   2.826   2.963  0.0286  0.6307  0.1407
   10MOL   C414 6012   5.215   2.873   2.818  0.3714  0.1100  0.1616
   10MOL   C415 6013   5.065   3.281   3.978  0.2201 -0.6348  0.1658
   10MOL   H416 6014   4.942   3.125   3.901 -0.1930 -2.0430  0.5183
   10MOL   H417 6015   4.940   3.062   3.664 -0.7191 -2.0714  0.3846
   10MOL   H418 6016   5.086   2.972   3.713 -3.0991 -1.2064 -0.7852
   10MOL   H419 6017   5.216   3.133   3.540  0.9200 -1.7347  0.0940
   10MOL   H420 6018   5.052   3.164   3.478 -2.1056 -0.5365  1.3731
   10MOL   H421 6019   5.179   2.891   3.501 -2.9309 -3.1301 -1.1629
   10MOL   H422 6020   5.026   2.940   3.422  0.6384 -1.2714 -0.7653
   10MOL   H423 6021   5.192   3.088   3.282  1.1490  0.4383 -0.0292
   10MOL   H424 6022   5.318   2.994   3.359 -1.2542 -1.2846  1.8926
   10MOL   H425 6023   5.239   2.792   3.234  0.7780  0.4886  0.0772
   10MOL   H426 6024   5.090   2.863   3.194  0.0075 -1.0858 -1.7013
   10MOL   H427 6025   5.341   2.951   3.056  0.4352  1.0778 -1.3924
   10MOL   H428 6026   5.182   3.032   3.034 -0.0904 -0.0858  0.0841
   10MOL   H429 6027   5.248   2.733   2.979 -1.2000 -0.1920 -0.4606
   10MOL   H430 6028   5.092   2.791   2.975 -0.3524  1.5491 -0.3326
   10MOL   H431 6029   5.316   2.912   2.806  0.1280  1.6929  2.9414
   10MOL   H432 6030   5.131   2.936   2.790 -0.1285 -0.1565  1.0255
   10MOL   H433 6031   5.214   2.782   2.758 -0.3976  1.5064 -1.9764
   10MOL   H434 6032   5.028   3.279   4.080  0.8792  1.1747  0.4587
   10MOL   H435 6033   5.171   3.306   3.988  0.9242 -3.3777 -0.1085
   10MOL   C436 6034   4.981   3.396   3.918 -0.2177  0.0860 -0.0742
   10MOL   O437 6035   5.035   3.514   3.979  0.1748 -0.0506  0.9974
   10MOL   C438 6036   5.032   3.626   3.890  0.3388 -0.3300 -0.0026
   10MOL   C439 6037   5.054   3.745   3.979 -0.8435  0.1457  0.5314
   10MOL   C440 6038   5.143   3.857   3.916  0.0305 -0.0458 -0.3495
   10MOL   C441 6039   5.185   3.977   3.997  0.2215  0.2827  0.0373
   10MOL   C442 6040   5.295   4.066   3.932  0.4716 -0.4842 -0.4467
   10MOL   C443 6041   5.434   4.053   3.989  0.5757 -0.2162 -0.2339
   10MOL   C444 6042   5.518   4.156   3.930  0.3676 -0.1635  0.1030
   10MOL   C445 6043   5.660   4.172   3.998 -0.9176  0.1127  0.8635
   10MOL   C446 6044   4.824   3.383   3.934 -0.1118  0.6264 -0.1094
   10MOL   H447 6045   5.006   3.399   3.812 -3.2090  1.5836 -0.8152
   10MOL   H448 6046   5.112   3.616   3.817 -1.0281 -1.8497 -1.3251
   10MOL   H449 6047   4.935   3.625   3.841  0.8861 -0.6928 -1.0846
   10MOL   H450 6048   5.112   3.710   4.064  0.2948 -1.2293 -0.7692
   10MOL   H451 6049   4.962   3.788   4.017  0.1767  0.9922  2.0935
   10MOL   H452 6050   5.227   3.809   3.866  2.0175  2.5972  0.3381
   10MOL   H453 6051   5.085   3.892   3.831 -0.5967  1.9627  0.8663
   10MOL   H454 6052   5.094   4.033   4.016 -1.0767 -2.1453  1.2888
   10MOL   H455 6053   5.209   3.948   4.099 -2.0248  0.4933  0.6329
   10MOL   H456 6054   5.314   4.037   3.829  1.6492  0.5531 -0.5348
   10MOL   H457 6055   5.253   4.166   3.941  1.8260 -0.0574  1.6581
   10MOL   H458 6056   5.471   3.951   3.981  0.6369 -0.4781  2.5939
   10MOL   H459 6057   5.426   4.078   4.095 -1.6707  0.8227 -0.6200
   10MOL   H460 6058   5.536   4.133   3.825  1.9860  0.9082  0.1290
   10MOL   H461 6059   5.471   4.254   3.937 -1.2131 -0.9387  0.9063
   10MOL   H462 6060   5.732   4.210   3.925  1.2239 -2.6860  1.4434
   10MOL   H463 6061   5.703   4.077   4.031  0.5643  0.1381 -0.8982
   10MOL   H464 6062   5.659   4.241   4.082  0.5960  0.3766  0.6789
   10MOL   H465 6063   4.803   3.322   4.023  0.7808 -0.9431 -0.9536
   10MOL   H466 6064   4.779   3.479   3.960 -1.7432 -0.0427 -0.3898
   10MOL   C467 6065   4.761   3.334   3.809 -0.3658  0.3485  0.1188
   10MOL   O468 6066   4.761   3.431   3.705  0.3756 -0.3295  0.3217
   10MOL   C469 6067   4.849   3.407   3.605  0.3119 -0.4033 -0.1277
   10MOL   C470 6068   4.808   3.512   3.494  0.1623 -0.2792  0.3719
   10MOL   C471 6069   4.892   3.487   3.359  0.9000 -0.1807 -0.0591
   10MOL   C472 6070   4.882   3.608   3.257  0.3210 -0.4209 -0.2501
   10MOL   C473 6071   4.745   3.636   3.205  0.2858 -0.1328 -0.3336
   10MOL   C474 6072   4.752   3.726   3.081 -0.7016  0.2869  0.0748
   10MOL   C475 6073   4.618   3.732   3.008  0.7129  0.1367  0.1898
   10MOL   C476 6074   4.607   3.833   2.894  0.2843  0.6838  0.0627
   10MOL   C477 6075   4.613   3.300   3.837 -0.0536  0.5205  0.4000
   10MOL   H478 6076   4.805   3.239   3.777  0.1909  0.7373 -0.2744
   10MOL   H479 6077   4.828   3.305   3.573 -0.4215 -0.2610 -0.0997
   10MOL   H480 6078   4.955   3.401   3.629 -0.0549 -0.0296  1.6462
   10MOL   H481 6079   4.819   3.610   3.541 -1.6492 -0.0793  0.3965
   10MOL   H482 6080   4.701   3.501   3.478  0.0434 -0.7514  1.4668
   10MOL   H483 6081   4.997   3.465   3.380  1.0375  0.5147 -0.0121
   10MOL   H484 6082   4.854   3.397   3.312 -1.5626  0.2191  1.0739
   10MOL   H485 6083   4.935   3.695   3.295 -3.8263  2.1196  0.1048
   10MOL   H486 6084   4.941   3.566   3.176 -1.3892 -3.2882 -0.0940
   10MOL   H487 6085   4.695   3.546   3.169 -1.2271 -0.7092  2.9782
   10MOL   H488 6086   4.668   3.662   3.277 -0.1997  0.0321 -0.9137
   10MOL   H489 6087   4.828   3.692   3.010  0.1030  0.4048  0.8707
   10MOL   H490 6088   4.782   3.827   3.111  0.7006 -0.4925  1.3241
   10MOL   H491 6089   4.592   3.637   2.962 -0.0130 -0.5375  1.9659
   10MOL   H492 6090   4.535   3.759   3.074 -1.1487 -1.3956 -1.4654
   10MOL   H493 6091   4.503   3.860   2.872  0.5996  0.1768 -2.2105
   10MOL   H494 6092   4.641   3.789   2.800 -1.3887  2.3309 -1.3596
   10MOL   H495 6093   4.665   3.920   2.923 -0.9062  1.5582 -0.1101
   10MOL   H496 6094   4.568   3.384   3.890  0.2975  1.0845 -0.1992
   10MOL   H497 6095   4.560   3.296   3.742  1.5174  0.0221 -0.4689
   10MOL   C498 6096   4.574   3.184   3.933 -0.2174 -0.1632  0.4363
   10MOL   O499 6097   4.651   3.070   3.891  0.6285  0.6818  1.0117
   10MOL   C500 6098   4.645   3.031   3.754 -0.6770 -0.2257 -0.7861
   10MOL   C501 6099   4.726   2.902   3.751 -0.4547  0.5385  0.3462
   10MOL   C502 6100   4.659   2.786   3.834  0.3879 -0.4635 -0.1338
   10MOL   C503 6101   4.739   2.652   3.851  0.3258 -0.3930 -0.0190
   10MOL   C504 6102   4.663   2.550   3.940 -0.4252  0.4063  0.3326
   10MOL   C505 6103   4.739   2.418   3.949 -0.2777  0.0434  0.9827
   10MOL   C506 6104   4.674   2.321   4.045  0.6697 -0.2436 -0.4977
   10MOL   C507 6105   4.544   2.257   4.000 -0.0198 -0.0921 -0.5681
   10MOL   C508 6106   4.421   3.166   3.938 -0.0438  0.8745  0.2660
   10MOL   H509 6107   4.607   3.207   4.034 -1.6214 -1.3859  1.1817
   10MOL   H510 6108   4.688   3.107   3.690 -0.7290  2.1836  1.9369
   10MOL   H511 6109   4.541   3.008   3.730 -1.0629  0.9534 -0.2856
   10MOL   H512 6110   4.829   2.912   3.787 -0.4218 -0.1507  0.4645
   10MOL   H513 6111   4.744   2.877   3.646  1.8474 -0.9636  1.0596
   10MOL   H514 6112   4.643   2.824   3.935  1.3795 -0.0807 -0.1209
   10MOL   H515 6113   4.564   2.751   3.793  1.1601 -1.7126 -0.8772
   10MOL   H516 6114   4.762   2.611   3.753  3.3094 -1.9553  1.2616
   10MOL   H517 6115   4.837   2.672   3.895  0.9810  0.3815 -1.7730
   10MOL   H518 6116   4.646   2.586   4.041 -2.0783 -3.8733  1.6838
   10MOL   H519 6117   4.570   2.525   3.889  1.2343 -0.4801 -2.3994
   10MOL   H520 6118   4.835   2.434   3.998  0.9430 -2.8188 -0.3366
   10MOL   H521 6119   4.769   2.378   3.852  0.4628  1.6639  0.5264
   10MOL   H522 6120   4.734   2.232   4.061 -0.8303 -1.3344 -0.7957
   10MOL   H523 6121   4.669   2.354   4.149  1.2458  0.7112 -0.7656
   10MOL   H524 6122   4.543   2.221   3.896 -1.2317 -0.0863 -0.5653
   10MOL   H525 6123   4.463   2.328   3.985 -1.6390 -1.4270  1.6465
   10MOL   H526 6124   4.517   2.181   4.073  1.4167  1.0757  1.2035
   10MOL   H527 6125   4.372   3.263   3.935 -0.7469  0.4789 -2.4790
   10MOL   H528 6126   4.392   3.106   3.852  1.3883 -1.8680  1.6200
   10MOL   C529 6127   4.377   3.068   4.051 -0.6754  0.4134  0.1379
   10MOL   O530 6128   4.267   3.002   3.993  0.3362 -0.0827  0.0565
   10MOL   C531 6129   4.293   2.862   3.955  0.1904 -0.9323 -0.0122
   10MOL   C532 6130   4.196   2.820   3.846 -0.6045 -0.2343  0.4050
   10MOL   C533 6131   4.200   2.897   3.711 -0.5331  0.1598 -0.4619
   10MOL   C534 6132   4.121   2.805   3.614  0.2831  0.7146  0.1932
   10MOL   C535 6133   4.082   2.863   3.484  0.9280 -0.4505 -0.8025
   10MOL   C536 6134   3.972   2.982   3.494 -0.4374 -0.0786 -0.3630
   10MOL   C537 6135   3.951   3.063   3.368 -0.0985 -0.2483  0.9180
   10MOL   C538 6136   3.865   3.187   3.396  0.0447  0.2330 -0.2218
   10MOL   C539 6137   4.328   3.140   4.173  0.1660 -0.0992 -1.1182
   10MOL   H540 6138   4.453   2.993   4.071 -1.2283 -0.8391 -2.2912
   10MOL   H541 6139   4.387   2.843   3.904  0.5796  3.8724 -1.3521
   10MOL   H542 6140   4.284   2.805   4.048 -0.1465 -1.9651 -0.6766
   10MOL   H543 6141   4.098   2.816   3.895 -0.0651 -0.6196  1.4691
   10MOL   H544 6142   4.215   2.716   3.821  0.2444  0.2028 -0.7989
   10MOL   H545 6143   4.150   2.991   3.732 -1.5021 -0.6714  1.0001
   10MOL   H546 6144   4.304   2.922   3.687 -1.0336  1.7981 -1.0451
   10MOL   H547 6145   4.188   2.721   3.594 -2.0874 -1.0459 -0.4931
   10MOL   H548 6146   4.041   2.759   3.672  1.0923  0.1272  0.8628
   10MOL   H549 6147   4.174   2.900   3.438  0.3654  0.6149 -1.1022
   10MOL   H550 6148   4.041   2.778   3.430  1.7753  0.3207 -2.7129
   10MOL   H551 6149   3.997   3.058   3.569  2.3201 -1.3077  0.0079
   10MOL   H552 6150   3.878   2.933   3.517 -0.1613 -0.0071  0.9866
   10MOL   H553 6151   4.050   3.102   3.344 -1.2661  1.9434 -0.5692
   10MOL   H554 6152   3.925   3.004   3.280 -0.8323  0.9484  0.3085
   10MOL   H555 6153   3.852   3.251   3.309 -3.3149  1.0163  0.7616
   10MOL   H556 6154   3.895   3.245   3.484  1.3972  0.8266 -1.0662
   10MOL   H557 6155   3.766   3.148   3.422  0.1374  0.7764  0.9929
   10MOL   H558 6156   4.234   3.186   4.141 -1.3066  0.0625  3.1312
   10MOL   H559 6157   4.304   3.073   4.255  1.0784  0.6407 -0.2217
   10MOL   C560 6158   4.419   3.257   4.222 -0.2275  0.1751  0.1647
   10MOL   O561 6159   4.551   3.216   4.263 -0.5622  0.2066  0.3883
   10MOL   C562 6160   4.643   3.325   4.280 -0.2144 -0.2428  1.0526
   10MOL   C563 6161   4.766   3.258   4.334  0.2259 -0.1234 -0.5423
   10MOL   C564 6162   4.750   3.215   4.483 -0.9407 -0.2658  0.4269
   10MOL   C565 6163   4.854   3.116   4.537 -0.0491  0.1578  0.3496
   10MOL   C566 6164   4.820   3.075   4.674  0.2843  0.1515  1.0836
   10MOL   C567 6165   4.895   2.947   4.712  0.1003  0.2157  0.5087
   10MOL   C568 6166   5.049   2.955   4.727  0.5066  0.3435 -0.4623
   10MOL   C569 6167   5.124   2.921   4.594  0.2754 -0.4342 -0.2727
   10MOL   C570 6168   4.350   3.325   4.343 -0.5254  0.1973  0.1569
   10MOL   H571 6169   4.430   3.331   4.143  0.6475  0.7213  0.7907
   10MOL   H572 6170   4.602   3.403   4.344 -0.3445 -0.1956  0.9147
   10MOL   H573 6171   4.648   3.371   4.181  0.9108 -2.2738  0.1381
   10MOL   H574 6172   4.844   3.333   4.351  0.2585 -0.0193 -1.1287
   10MOL   H575 6173   4.810   3.190   4.260  0.5514 -0.3398 -0.1524
   10MOL   H576 6174   4.762   3.303   4.546  0.7267 -1.8066  2.3393
   10MOL   H577 6175   4.654   3.163   4.494 -0.5300 -0.6390  2.4331
   10MOL   H578 6176   4.865   3.023   4.481 -0.4113  0.9445 -1.0594
   10MOL   H579 6177   4.955   3.156   4.542  0.1009  0.0163 -1.1884
   10MOL   H580 6178   4.835   3.160   4.741 -0.2109  0.1679  1.1756
   10MOL   H581 6179   4.715   3.047   4.679 -0.4715  1.5264 -4.3158
   10MOL   H582 6180   4.866   2.873   4.638  0.7998  1.1894 -0.7677
   10MOL   H583 6181   4.865   2.921   4.813  0.0726 -3.5720 -0.4137
   10MOL   H584 6182   5.089   3.050   4.763  0.3474  0.0583  0.4920
   10MOL   H585 6183   5.075   2.883   4.805 -1.9063  0.2177  0.2783
   10MOL   H586 6184   5.233   2.925   4.596  0.1674  3.6300  0.0753
   10MOL   H587 6185   5.101   2.985   4.509 -0.6885  1.0313  1.0664
   10MOL   H588 6186   5.093   2.822   4.560  1.9427  0.0187 -3.2393
   10MOL   H589 6187   4.277   3.261   4.392  0.7860 -0.6743  1.0303
   10MOL   H590 6188   4.425   3.341   4.421 -0.5458  1.8424 -0.1455
   10MOL   C591 6189   4.302   3.465   4.304  0.3322 -0.7136  0.4033
   10MOL   O592 6190   4.405   3.557   4.270  0.1800 -0.6914  0.0761
   10MOL   C593 6191   4.394   3.630   4.148 -0.4914 -0.7366  0.2946
   10MOL   C594 6192   4.535   3.650   4.093 -0.1308 -0.2076  0.5432
   10MOL   C595 6193   4.545   3.717   3.953 -0.2735  0.6823  0.1612
   10MOL   C596 6194   4.678   3.778   3.911 -0.4084 -0.1308 -0.1807
   10MOL   C597 6195   4.673   3.833   3.771  0.1674 -0.6826 -0.1071
   10MOL   C598 6196   4.814   3.883   3.711  0.0576 -0.0693  0.7665
   10MOL   C599 6197   4.811   3.986   3.587  0.1233 -0.0142  0.5331
   10MOL   C600 6198   4.782   3.927   3.446  0.2651  0.0762 -0.6814
   10MOL   C601 6199   4.234   3.517   4.434  0.1794 -0.0349 -0.5021
   10MOL   H602 6200   4.235   3.458   4.219  1.9325  0.0799 -0.9652
   10MOL   H603 6201   4.343   3.727   4.152  0.4467 -0.2677  1.0238
   10MOL   H604 6202   4.337   3.568   4.079 -0.0885  0.6428 -1.3103
   10MOL   H605 6203   4.587   3.554   4.090  0.8466  0.3624 -2.0309
   10MOL   H606 6204   4.579   3.709   4.173  2.3809  0.3020 -1.1405
   10MOL   H607 6205   4.506   3.643   3.882  1.7816 -0.4722  0.2137
   10MOL   H608 6206   4.479   3.803   3.943  0.4859  1.0592 -1.7416
   10MOL   H609 6207   4.714   3.857   3.977 -0.5396 -0.5081  0.3490
   10MOL   H610 6208   4.751   3.697   3.916 -0.3838 -0.0109  2.4448
   10MOL   H611 6209   4.640   3.757   3.700 -0.1787 -3.2891  2.7623
   10MOL   H612 6210   4.601   3.915   3.763  0.8946 -0.1165 -1.0727
   10MOL   H613 6211   4.881   3.803   3.681 -1.3645 -1.3079  0.8058
   10MOL   H614 6212   4.865   3.938   3.790 -0.7933 -0.3813  1.5376
   10MOL   H615 6213   4.741   4.068   3.596 -1.1269 -1.0068 -0.0148
   10MOL   H616 6214   4.915   4.018   3.579  0.7046 -1.9752 -0.0697
   10MOL   H617 6215   4.844   3.838   3.435 -0.9067 -0.7299 -0.7824
   10MOL   H618 6216   4.809   4.004   3.374  1.8954 -0.1008 -0.2820
   10MOL   H619 6217   4.678   3.898   3.439  0.4930 -1.0401  0.2346
   10MOL   H620 6218   4.150   3.452   4.459 -0.7213  1.1823 -0.3148
   10MOL   H621 6219   4.304   3.523   4.518  0.6889 -1.3551 -0.8157
   10MOL   H622 6220   4.197   3.618   4.420  0.6997  0.4647  1.4288
   11MOL     C1 6221   2.618   2.379   0.398 -0.2555 -0.1460 -0.1908
   11MOL     O2 6222   2.692   2.294   0.315 -0.7751 -0.3613  0.0333
   11MOL     C3 6223   2.772   2.360   0.215  0.1728  0.3001  0.3373
   11MOL     C4 6224   2.855   2.257   0.139 -0.8509 -0.4816  0.1525
   11MOL     C5 6225   2.955   2.180   0.224  0.4696  0.9588 -0.3371
   11MOL     C6 6226   3.023   2.066   0.144  0.3950 -0.7928  0.0073
   11MOL     C7 6227   3.150   2.013   0.208 -0.2660 -0.2831 -0.0190
   11MOL     C8 6228   3.149   1.868   0.266  0.2381 -0.2538  0.2317
   11MOL     C9 6229   3.291   1.826   0.305 -0.5792 -0.0277  0.3652
   11MOL    C10 6230   3.302   1.677   0.350 -0.3460  0.4095  0.0415
   11MOL    C11 6231   2.518   2.319   0.495  0.3807 -0.1464  0.6498
   11MOL    H12 6232   2.693   2.435   0.455  0.6696  0.5805 -2.0736
   11MOL    H13 6233   2.848   2.426   0.258  0.7493  0.4811 -0.9533
   11MOL    H14 6234   2.718   2.420   0.141  0.2539 -0.4006 -0.2922
   11MOL    H15 6235   2.903   2.308   0.055 -1.1544 -0.4380  0.0056
   11MOL    H16 6236   2.778   2.191   0.098 -0.1763 -1.2890  0.1716
   11MOL    H17 6237   3.039   2.241   0.258  0.9591  0.4473 -0.6257
   11MOL    H18 6238   2.905   2.136   0.311  1.4696 -1.1634 -0.8016
   11MOL    H19 6239   2.950   1.986   0.129  0.3564 -0.6017 -0.8670
   11MOL    H20 6240   3.057   2.098   0.045  2.3395 -2.6157  0.0482
   11MOL    H21 6241   3.221   1.994   0.127 -0.4645 -4.9575  0.7673
   11MOL    H22 6242   3.188   2.077   0.288 -0.1759 -2.2495  1.5529
   11MOL    H23 6243   3.106   1.802   0.190 -0.9453 -1.1259  1.6314
   11MOL    H24 6244   3.079   1.867   0.350 -1.8818 -0.2235 -1.5070
   11MOL    H25 6245   3.357   1.835   0.219 -2.1141  0.2956 -0.8061
   11MOL    H26 6246   3.326   1.890   0.386  1.2306 -0.8334  0.2450
   11MOL    H27 6247   3.399   1.655   0.396 -1.5638 -3.2411  0.9841
   11MOL    H28 6248   3.269   1.599   0.282 -1.6129  1.4819 -0.6027
   11MOL    H29 6249   3.238   1.687   0.438  0.9288  2.0330  0.8288
   11MOL    H30 6250   2.432   2.285   0.437  1.0342 -2.5176  1.0489
   11MOL    H31 6251   2.557   2.236   0.553  0.2559  0.7351  2.0340
   11MOL    H32 6252   2.567   2.458   0.344 -0.2313  0.1511  0.2162
   11MOL    C33 6253   2.476   2.430   0.602 -0.2696 -0.2467  0.2664
   11MOL    O34 6254   2.388   2.361   0.692 -0.1901  0.2832 -0.1785
   11MOL    C35 6255   2.446   2.345   0.821  0.2202 -0.5664 -0.0435
   11MOL    C36 6256   2.357   2.273   0.917  0.2013  0.1920 -0.0270
   11MOL    C37 6257   2.411   2.232   1.051 -0.7174  0.4981  0.6834
   11MOL    C38 6258   2.308   2.143   1.122 -0.7222 -0.0599 -0.4129
   11MOL    C39 6259   2.348   2.108   1.263 -0.3293 -0.2413  0.3537
   11MOL    C40 6260   2.250   2.029   1.336 -0.2615  0.2511 -0.3869
   11MOL    C41 6261   2.295   1.988   1.479 -0.1400  0.5345  0.2910
   11MOL    C42 6262   2.320   2.103   1.580 -0.3337  0.1548  0.2852
   11MOL    C43 6263   2.402   2.549   0.545  0.3680  0.2665  0.3787
   11MOL    H44 6264   2.570   2.467   0.644 -0.6918  0.5955  0.4717
   11MOL    H45 6265   2.466   2.443   0.863  0.5536 -1.4179  1.8402
   11MOL    H46 6266   2.543   2.296   0.826  0.4226 -0.0133  1.6347
   11MOL    H47 6267   2.323   2.192   0.852  0.3835  0.0487  0.0542
   11MOL    H48 6268   2.280   2.343   0.948  0.1640  0.1386  0.0014
   11MOL    H49 6269   2.504   2.176   1.035 -0.6552  1.0160 -0.8185
   11MOL    H50 6270   2.441   2.325   1.100 -0.4165 -0.8034  3.0294
   11MOL    H51 6271   2.214   2.197   1.133 -0.1618  0.8329 -0.0209
   11MOL    H52 6272   2.300   2.061   1.050  0.8673  1.1201 -1.9871
   11MOL    H53 6273   2.437   2.047   1.258  0.1379  0.4968 -0.5382
   11MOL    H54 6274   2.374   2.199   1.318 -0.3526 -1.9047  3.2002
   11MOL    H55 6275   2.225   1.945   1.272  0.1967  0.2849 -0.6149
   11MOL    H56 6276   2.164   2.094   1.353 -1.8413 -1.6011 -1.2192
   11MOL    H57 6277   2.229   1.917   1.529 -3.4626  2.8010 -0.7380
   11MOL    H58 6278   2.387   1.933   1.457 -0.8830  0.2502 -2.2560
   11MOL    H59 6279   2.324   2.206   1.545  0.5658 -0.4285 -1.3428
   11MOL    H60 6280   2.407   2.079   1.641  0.7848 -3.3496 -2.5043
   11MOL    H61 6281   2.242   2.111   1.656 -0.2468  1.6034  0.2291
   11MOL    H62 6282   2.449   2.595   0.458  1.2322 -2.4652 -0.6535
   11MOL    H63 6283   2.303   2.531   0.505 -0.9826  0.4917  3.4295
   11MOL    C64 6284   2.382   2.660   0.651 -0.2487 -0.6006 -0.3593
   11MOL    O65 6285   2.290   2.754   0.597 -0.4172  0.4383  0.4986
   11MOL    C66 6286   2.158   2.743   0.652 -0.4434  0.0838  0.6592
   11MOL    C67 6287   2.064   2.853   0.593  0.0458  0.2616 -0.4127
   11MOL    C68 6288   1.932   2.876   0.657 -0.2587  1.2326  0.0040
   11MOL    C69 6289   1.840   2.964   0.579  0.2349  0.0606 -0.6148
   11MOL    C70 6290   1.863   3.116   0.574 -0.4114  0.3588 -0.4049
   11MOL    C71 6291   1.752   3.178   0.490  0.3142  0.3945 -0.3692
   11MOL    C72 6292   1.711   3.322   0.528 -0.0232  0.0214  0.4103
   11MOL    C73 6293   1.607   3.334   0.637  0.4892  0.1584  0.2748
   11MOL    C74 6294   2.507   2.734   0.707  0.7487  0.1496 -0.4151
   11MOL    H75 6295   2.334   2.624   0.742  0.6489 -0.5878  0.1228
   11MOL    H76 6296   2.187   2.773   0.753  1.1613 -0.3680  0.3482
   11MOL    H77 6297   2.119   2.641   0.641  0.2018 -0.2865  1.7079
   11MOL    H78 6298   2.037   2.831   0.490 -0.2858  0.8263 -0.4539
   11MOL    H79 6299   2.115   2.950   0.596  1.5878 -0.5622  2.0112
   11MOL    H80 6300   1.878   2.782   0.661  0.2656  0.9460  0.4727
   11MOL    H81 6301   1.940   2.916   0.758  1.6729 -0.2324  0.4710
   11MOL    H82 6302   1.828   2.922   0.479  0.2297  0.6594 -0.8680
   11MOL    H83 6303   1.743   2.944   0.624 -0.8784  4.8059 -0.5918
   11MOL    H84 6304   1.863   3.157   0.675 -2.3326 -0.5754  0.0107
   11MOL    H85 6305   1.956   3.148   0.527 -0.5520 -0.6914 -1.4143
   11MOL    H86 6306   1.666   3.111   0.483  1.7154 -1.4368 -0.4587
   11MOL    H87 6307   1.799   3.185   0.392 -0.8731  1.1147 -0.8962
   11MOL    H88 6308   1.797   3.383   0.553  0.8250 -0.9253 -0.1730
   11MOL    H89 6309   1.684   3.368   0.433  0.4645  1.0533  0.7634
   11MOL    H90 6310   1.565   3.434   0.644 -0.2007  0.1097 -2.5815
   11MOL    H91 6311   1.642   3.295   0.733  0.7840 -0.7943 -0.2128
   11MOL    H92 6312   1.515   3.276   0.627  0.3361  0.4911 -0.2458
   11MOL    H93 6313   2.461   2.779   0.795 -0.2676 -1.2162 -0.2341
   11MOL    H94 6314   2.583   2.665   0.744  2.8706  2.0025 -1.1765
   11MOL    C95 6315   2.570   2.850   0.621  0.1668  0.3461  0.3792
   11MOL    O96 6316   2.625   2.782   0.511 -0.5694 -0.1094  0.0226
   11MOL    C97 6317   2.614   2.853   0.389 -0.1778 -0.3894  0.3038
   11MOL    C98 6318   2.710   2.782   0.298  0.1121 -0.3456  0.2463
   11MOL    C99 6319   2.688   2.836   0.151 -0.9537 -0.1768 -0.2185
   11MOL   C100 6320   2.790   2.762   0.060 -0.4594 -0.2464  0.0028
   11MOL   C101 6321   2.771   2.797   7.683  0.1039 -0.1296  0.5645
   11MOL   C102 6322   2.898   2.753   7.607  0.0966  0.2903 -0.1690
   11MOL   C103 6323   2.887   2.816   7.469  0.2785  0.2754 -0.4207
   11MOL   C104 6324   3.006   2.781   7.378 -0.7251 -0.0194  0.4112
   11MOL   C105 6325   2.701   2.919   0.688  0.1956 -0.6855 -0.4493
   11MOL   H106 6326   2.489   2.918   0.597 -1.0897  0.0283  3.4599
   11MOL   H107 6327   2.642   2.957   0.408 -1.8665 -0.4296  3.4376
   11MOL   H108 6328   2.513   2.855   0.349  0.1364 -1.4932 -0.5685
   11MOL   H109 6329   2.703   2.674   0.304 -0.3441 -0.4711 -1.9514
   11MOL   H110 6330   2.812   2.802   0.333 -0.0915  0.2792  0.4972
   11MOL   H111 6331   2.586   2.819   0.115 -0.9797 -1.2418  0.3329
   11MOL   H112 6332   2.702   2.944   0.149  1.0819 -0.4067  0.4367
   11MOL   H113 6333   2.892   2.788   0.086  0.2175 -0.3504 -2.4416
   11MOL   H114 6334   2.774   2.654   0.066 -1.0481 -0.0365  3.0256
   11MOL   H115 6335   2.685   2.745   7.642 -0.2892  0.4453  0.6544
   11MOL   H116 6336   2.753   2.905   7.681  1.9919  0.2153  0.6215
   11MOL   H117 6337   2.920   2.647   7.596  0.6810  0.3810  0.1725
   11MOL   H118 6338   2.980   2.801   7.659  1.0237 -0.9054 -0.5110
   11MOL   H119 6339   2.799   2.763   7.432  1.1225 -2.0903  0.8271
   11MOL   H120 6340   2.869   2.923   7.464 -1.7811 -0.0430 -0.2775
   11MOL   H121 6341   3.012   2.838   7.286  1.5993  2.7229  2.1751
   11MOL   H122 6342   3.004   2.673   7.363  0.8833 -0.1849  1.2800
   11MOL   H123 6343   3.098   2.801   7.433  0.2622 -2.9023 -0.1288
   11MOL   H124 6344   2.791   2.858   0.688 -0.5454 -1.8063  0.9130
   11MOL   H125 6345   2.730   2.995   0.615 -2.6466 -0.3194 -1.2588
   11MOL   C126 6346   2.680   2.981   0.821 -0.2808 -1.2135 -0.0051
   11MOL   O127 6347   2.581   3.082   0.817 -0.8518  0.3299  0.6519
   11MOL   C128 6348   2.488   3.091   0.930  0.0189 -0.1794 -0.0404
   11MOL   C129 6349   2.419   3.225   0.925  0.0274  0.4667  0.9028
   11MOL   C130 6350   2.317   3.222   0.825  0.6892 -0.1365  0.1743
   11MOL   C131 6351   2.241   3.351   0.814  0.3560 -0.2715  0.3390
   11MOL   C132 6352   2.139   3.373   0.700  0.9162 -0.4648  0.3164
   11MOL   C133 6353   2.076   3.514   0.711 -0.7153  0.3563 -0.2853
   11MOL   C134 6354   2.026   3.564   0.569 -0.1259  0.5821  0.6960
   11MOL   C135 6355   2.132   3.642   0.494 -0.2147  0.0435 -0.4699
   11MOL   C136 6356   2.808   3.051   0.891 -1.0544  0.2744 -0.0182
   11MOL   H137 6357   2.640   2.898   0.880 -1.4647 -0.7624 -0.1656
   11MOL   H138 6358   2.546   3.078   1.021  1.7274  0.0809 -1.0689
   11MOL   H139 6359   2.421   3.007   0.915 -0.7863  0.2723  1.0010
   11MOL   H140 6360   2.486   3.309   0.910 -1.2583  0.8561 -3.4681
   11MOL   H141 6361   2.367   3.238   1.020 -0.0891 -0.1917  0.9321
   11MOL   H142 6362   2.367   3.213   0.729  0.5568  2.2414 -0.1286
   11MOL   H143 6363   2.263   3.127   0.830 -0.3578  0.1305 -4.5019
   11MOL   H144 6364   2.186   3.367   0.907  2.2985 -0.1290  1.4979
   11MOL   H145 6365   2.319   3.427   0.808  0.5292 -0.2165  2.7104
   11MOL   H146 6366   2.182   3.351   0.602  0.7353  0.9991 -0.0906
   11MOL   H147 6367   2.067   3.292   0.713  2.3044 -1.6986  0.4764
   11MOL   H148 6368   2.140   3.591   0.754  1.1964 -0.8604 -0.8688
   11MOL   H149 6369   1.993   3.508   0.781 -0.7117  1.9915 -0.1093
   11MOL   H150 6370   1.992   3.477   0.514  0.6645 -0.0831  1.2459
   11MOL   H151 6371   1.942   3.631   0.582  0.1621  0.7153  1.9146
   11MOL   H152 6372   2.155   3.734   0.549  1.8771 -1.9829  2.1724
   11MOL   H153 6373   2.101   3.675   0.395  1.0452 -2.9913 -1.9387
   11MOL   H154 6374   2.221   3.581   0.480 -0.8997 -0.8797 -0.8327
   11MOL   H155 6375   2.869   3.104   0.818  2.1229 -0.8192  1.7842
   11MOL   H156 6376   2.776   3.121   0.968  2.3666 -1.0087  2.6793
   11MOL   C157 6377   2.891   2.945   0.965  0.4507 -0.4311  0.5852
   11MOL   O158 6378   2.846   2.937   1.097  0.2636  0.2375  0.0342
   11MOL   C159 6379   2.881   2.830   1.183 -0.2215  0.4784 -0.4156
   11MOL   C160 6380   2.765   2.809   1.281  0.2845 -0.1798 -0.3135
   11MOL   C161 6381   2.820   2.804   1.420 -0.0745  0.6022 -0.5131
   11MOL   C162 6382   2.702   2.761   1.514 -0.2023  0.1918  0.0232
   11MOL   C163 6383   2.737   2.747   1.664 -0.2540  0.2528  0.0267
   11MOL   C164 6384   2.846   2.646   1.694 -0.1958 -0.4493  0.1494
   11MOL   C165 6385   2.863   2.633   1.850  0.0263  0.2024 -0.5046
   11MOL   C166 6386   2.999   2.564   1.884  0.4116  0.5729 -0.2841
   11MOL   C167 6387   3.044   2.965   0.978  0.2161  0.1272  0.4412
   11MOL   H168 6388   2.870   2.841   0.940  0.7632 -0.6360  1.1751
   11MOL   H169 6389   2.975   2.857   1.231  0.1997 -1.1293 -0.3117
   11MOL   H170 6390   2.894   2.736   1.129  1.3849 -0.5029  1.6399
   11MOL   H171 6391   2.713   2.715   1.263 -1.4023  0.5098  0.8227
   11MOL   H172 6392   2.689   2.885   1.267  0.8554  0.5260  0.3891
   11MOL   H173 6393   2.900   2.730   1.428 -0.8410  0.0216  2.2012
   11MOL   H174 6394   2.857   2.902   1.450 -0.9834  1.1737 -1.2148
   11MOL   H175 6395   2.632   2.845   1.508 -1.8412 -1.0786  0.9271
   11MOL   H176 6396   2.664   2.663   1.483  0.4080 -0.0576  0.0566
   11MOL   H177 6397   2.759   2.846   1.704 -1.6580  0.4688  0.2838
   11MOL   H178 6398   2.646   2.705   1.706 -1.0108  0.0030 -1.7956
   11MOL   H179 6399   2.942   2.678   1.653 -0.3276  1.0368  0.9818
   11MOL   H180 6400   2.819   2.549   1.651  0.0602 -1.6155  2.5520
   11MOL   H181 6401   2.856   2.725   1.907  1.2602 -0.0911  0.1435
   11MOL   H182 6402   2.781   2.570   1.886  1.3522 -1.3030 -0.0152
   11MOL   H183 6403   3.012   2.556   1.992 -0.5142 -0.6585 -0.2518
   11MOL   H184 6404   3.083   2.616   1.838 -2.2494  3.3141 -2.2680
   11MOL   H185 6405   3.005   2.463   1.845 -0.5471 -0.2112  1.5372
   11MOL   H186 6406   3.062   3.049   1.045 -2.4548  0.5648  0.6670
   11MOL   H187 6407   3.093   2.892   1.042 -1.1671 -0.8649  0.3726
   11MOL   C188 6408   3.123   2.982   0.841  0.6019  0.0354  0.3402
   11MOL   O189 6409   3.095   2.872   0.752  0.2164 -0.5763  0.2191
   11MOL   C190 6410   3.092   2.903   0.618 -0.1576 -0.1403  0.2895
   11MOL   C191 6411   3.045   2.774   0.545  0.1493  0.3211  0.2844
   11MOL   C192 6412   3.146   2.663   0.563  0.0681  0.8508  0.3252
   11MOL   C193 6413   3.098   2.534   0.484 -0.1886  0.3308  0.5776
   11MOL   C194 6414   3.198   2.422   0.493 -0.3627  0.0117 -0.1214
   11MOL   C195 6415   3.317   2.436   0.396 -0.2779 -0.2320 -0.4245
   11MOL   C196 6416   3.426   2.324   0.410 -0.3295 -0.1102 -0.3422
   11MOL   C197 6417   3.535   2.356   0.308 -0.1231  0.5372 -0.5368
   11MOL   C198 6418   3.276   2.982   0.853 -0.4633 -0.6544 -0.7116
   11MOL   H199 6419   3.093   3.078   0.800 -0.9791 -0.2466  0.8084
   11MOL   H200 6420   3.006   2.967   0.601 -1.2229 -1.8672 -0.9047
   11MOL   H201 6421   3.185   2.945   0.579  0.3308 -0.0603  1.4904
   11MOL   H202 6422   3.032   2.791   0.438 -2.3841 -0.1386  0.4844
   11MOL   H203 6423   2.949   2.732   0.575 -0.3507  0.4745 -1.0579
   11MOL   H204 6424   3.244   2.694   0.528  0.3024 -1.9026 -1.5633
   11MOL   H205 6425   3.165   2.657   0.670 -0.4027  1.3669  0.4409
   11MOL   H206 6426   3.009   2.490   0.528 -0.2101 -1.1973 -0.9289
   11MOL   H207 6427   3.075   2.550   0.378  0.1277 -1.7410  0.1860
   11MOL   H208 6428   3.238   2.412   0.594 -1.6130 -0.7134  0.3130
   11MOL   H209 6429   3.153   2.326   0.467 -1.2170  0.7240 -1.3540
   11MOL   H210 6430   3.370   2.528   0.418 -1.8135  0.0339  2.2778
   11MOL   H211 6431   3.275   2.450   0.296 -1.4565  1.0503  0.2431
   11MOL   H212 6432   3.450   2.309   0.515  0.4422  1.8949 -0.2083
   11MOL   H213 6433   3.388   2.229   0.373 -0.4929 -0.9374  1.9243
   11MOL   H214 6434   3.589   2.271   0.264  0.7840 -0.5691  2.5557
   11MOL   H215 6435   3.605   2.417   0.365 -1.4068  0.3798  1.2262
   11MOL   H216 6436   3.497   2.409   0.221 -0.8380  0.3177 -0.3606
   11MOL   H217 6437   3.311   2.884   0.883  0.9632  0.7999  2.6683
   11MOL   H218 6438   3.312   2.994   0.751  0.4831  0.2698 -0.2848
   11MOL   C219 6439   3.325   3.093   0.953  0.1961 -0.6336  0.8441
   11MOL   O220 6440   3.273   3.228   0.921 -0.0437 -0.3494  0.0689
   11MOL   C221 6441   3.218   3.313   1.020  0.2147  0.7493 -0.3948
   11MOL   C222 6442   3.146   3.431   0.953 -0.7904  0.4397  0.4113
   11MOL   C223 6443   3.037   3.390   0.852  0.4215 -1.3826  0.5598
   11MOL   C224 6444   2.941   3.506   0.813 -0.5333  0.1362  1.5541
   11MOL   C225 6445   2.797   3.465   0.774  0.8956 -0.5110  0.1604
   11MOL   C226 6446   2.787   3.420   0.629  0.2447 -0.3730  0.6806
   11MOL   C227 6447   2.639   3.379   0.588 -0.3033 -0.5729 -0.7474
   11MOL   C228 6448   2.617   3.304   0.454 -0.4952 -0.0639 -0.2134
   11MOL   C229 6449   3.479   3.098   0.984 -0.3719 -0.4226 -0.1533
   11MOL   H230 6450   3.276   3.067   1.047 -4.2061  2.7280 -0.3747
   11MOL   H231 6451   3.291   3.349   1.092 -1.6568  2.5542  0.6732
   11MOL   H232 6452   3.134   3.272   1.077  1.5148 -0.4070  0.7373
   11MOL   H233 6453   3.213   3.491   0.890 -1.5696 -2.0717 -2.9449
   11MOL   H234 6454   3.095   3.498   1.022  2.1757  1.7984  1.3887
   11MOL   H235 6455   3.088   3.345   0.767  0.4462 -0.2227 -0.0549
   11MOL   H236 6456   2.983   3.310   0.903  1.0280 -1.8465  0.4725
   11MOL   H237 6457   2.931   3.571   0.900 -0.7083  1.8375  0.2797
   11MOL   H238 6458   2.986   3.570   0.737 -0.8653 -0.5762  0.7491
   11MOL   H239 6459   2.749   3.393   0.840  2.5635 -0.0632  1.9187
   11MOL   H240 6460   2.734   3.554   0.776  0.7431 -0.6174  0.0499
   11MOL   H241 6461   2.849   3.331   0.616  2.1966  0.7574  2.0836
   11MOL   H242 6462   2.822   3.494   0.557  0.4105 -1.9511 -0.9069
   11MOL   H243 6463   2.609   3.312   0.669  0.5578 -0.2456 -0.1453
   11MOL   H244 6464   2.571   3.464   0.601  1.0738  0.6108 -1.2191
   11MOL   H245 6465   2.645   3.361   0.366 -2.9588 -1.3953 -1.9269
   11MOL   H246 6466   2.514   3.272   0.439 -0.2968 -1.6954  1.5914
   11MOL   H247 6467   2.680   3.215   0.455 -0.9255 -0.3845 -1.6634
   11MOL   H248 6468   3.508   3.176   1.055 -0.4506 -1.1624  0.7009
   11MOL   H249 6469   3.512   3.003   1.026  0.6868 -0.7262 -1.6621
   11MOL   C250 6470   3.567   3.117   0.859  0.2216  0.1063 -0.6368
   11MOL   O251 6471   3.704   3.114   0.892 -0.2224  0.2459  0.0512
   11MOL   C252 6472   3.774   2.993   0.892 -0.0701  0.2595 -0.4068
   11MOL   C253 6473   3.919   3.022   0.917  0.1070  0.1468 -0.1473
   11MOL   C254 6474   4.005   2.891   0.911 -0.2212  0.4288  0.0072
   11MOL   C255 6475   4.036   2.849   0.769  0.0322  0.0658 -0.0160
   11MOL   C256 6476   4.125   2.725   0.751  0.9164 -0.4135  0.1491
   11MOL   C257 6477   4.095   2.635   0.626 -0.8587  0.9445  0.2847
   11MOL   C258 6478   4.111   2.717   0.494  0.3241  0.2382  0.7972
   11MOL   C259 6479   4.065   2.636   0.368 -0.0877 -0.5490 -0.6437
   11MOL   C260 6480   3.531   3.253   0.795  0.1406  0.2296  0.9495
   11MOL   H261 6481   3.539   3.045   0.782 -1.7976  0.5691 -0.3614
   11MOL   H262 6482   3.774   2.942   0.796  0.9623 -0.2041 -0.1607
   11MOL   H263 6483   3.726   2.924   0.962  0.8220 -0.2667 -0.3172
   11MOL   H264 6484   3.929   3.059   1.019 -1.3413  0.3657 -0.0671
   11MOL   H265 6485   3.970   3.093   0.852  2.0538  0.9252  2.1462
   11MOL   H266 6486   4.093   2.905   0.974 -1.1523 -2.0948  1.9595
   11MOL   H267 6487   3.945   2.815   0.961 -1.1909  1.4378  0.3841
   11MOL   H268 6488   3.939   2.823   0.727 -0.3038  0.6056  0.4337
   11MOL   H269 6489   4.076   2.931   0.710 -2.3595  1.8236  0.7424
   11MOL   H270 6490   4.231   2.747   0.757  0.6700  0.6539  0.6266
   11MOL   H271 6491   4.097   2.657   0.832 -1.2447 -0.7035 -0.8087
   11MOL   H272 6492   3.991   2.605   0.638 -0.5623  0.8168  2.6864
   11MOL   H273 6493   4.154   2.544   0.635  0.9987  2.1250  0.2878
   11MOL   H274 6494   4.050   2.806   0.507  1.3161  0.6682  2.7373
   11MOL   H275 6495   4.218   2.735   0.482  0.1665  1.4806  1.2043
   11MOL   H276 6496   4.127   2.550   0.341  1.0490  0.5499 -1.6221
   11MOL   H277 6497   4.083   2.706   0.287  1.8085  1.1459  1.1896
   11MOL   H278 6498   3.960   2.615   0.384  0.1997 -0.8677  0.8812
   11MOL   H279 6499   3.441   3.247   0.734  2.0354 -0.4870 -1.8975
   11MOL   H280 6500   3.518   3.325   0.876  0.6041 -1.6982  2.7825
   11MOL   C281 6501   3.630   3.315   0.702  0.2406 -0.0750 -0.2114
   11MOL   O282 6502   3.588   3.448   0.659 -0.2832 -0.1771 -0.0442
   11MOL   C283 6503   3.657   3.556   0.714  0.0279 -1.0414  0.0511
   11MOL   C284 6504   3.591   3.694   0.680 -0.6180 -0.3161 -0.8301
   11MOL   C285 6505   3.441   3.711   0.707  0.2531 -0.2123 -0.6549
   11MOL   C286 6506   3.376   3.825   0.629  0.4084 -0.5097 -0.1312
   11MOL   C287 6507   3.228   3.852   0.660 -0.1058  1.3071 -0.0356
   11MOL   C288 6508   3.165   3.959   0.571  0.2256 -0.5206  0.1550
   11MOL   C289 6509   3.139   3.929   0.422 -0.0524 -0.8503 -0.3131
   11MOL   C290 6510   3.062   3.804   0.397  0.2991  0.4748 -0.2100
   11MOL   C291 6511   3.647   3.229   0.575  0.3066  0.6125  0.3724
   11MOL   H292 6512   3.726   3.324   0.754  0.8097 -1.3321 -1.0308
   11MOL   H293 6513   3.765   3.564   0.700  0.0050 -0.8726 -0.0285
   11MOL   H294 6514   3.648   3.554   0.823 -1.7714  0.7906 -0.0350
   11MOL   H295 6515   3.614   3.712   0.575 -1.7259  0.7993 -0.8920
   11MOL   H296 6516   3.648   3.769   0.735 -1.3216  0.8748 -1.6997
   11MOL   H297 6517   3.385   3.622   0.679  0.7018 -1.6217  2.6939
   11MOL   H298 6518   3.424   3.720   0.815 -1.2026  1.3305 -0.9916
   11MOL   H299 6519   3.448   3.907   0.637  0.5267 -0.8702  3.3909
   11MOL   H300 6520   3.375   3.792   0.525  0.9370 -3.6062  0.7650
   11MOL   H301 6521   3.174   3.757   0.656 -0.1532  1.3258  0.1417
   11MOL   H302 6522   3.217   3.882   0.764 -0.5394 -2.5639  1.1018
   11MOL   H303 6523   3.223   4.050   0.583  0.3869 -0.7444  1.1839
   11MOL   H304 6524   3.074   3.984   0.626 -0.9907 -0.8173 -1.6953
   11MOL   H305 6525   3.085   4.015   0.384 -0.0563 -0.6633  0.1144
   11MOL   H306 6526   3.231   3.921   0.364 -1.1098  1.1056 -2.3152
   11MOL   H307 6527   3.064   3.783   0.290  1.0552 -2.7029  0.3578
   11MOL   H308 6528   2.961   3.804   0.439  0.3561 -1.5301 -0.0245
   11MOL   H309 6529   3.116   3.724   0.447 -2.6149 -1.9476 -0.8226
   11MOL   H310 6530   3.684   3.129   0.598  0.9011  0.9649  0.9796
   11MOL   H311 6531   3.551   3.220   0.526 -0.5357  1.8464  1.7579
   11MOL   C312 6532   3.736   3.292   0.468 -0.0286 -0.3664  0.0364
   11MOL   O313 6533   3.716   3.218   0.344 -0.2759 -0.1072 -0.2931
   11MOL   C314 6534   3.638   3.296   0.253  0.4510 -0.6957  0.0244
   11MOL   C315 6535   3.552   3.209   0.156 -0.2629 -0.6081 -0.8004
   11MOL   C316 6536   3.457   3.113   0.236 -0.6573 -0.7526 -0.0863
   11MOL   C317 6537   3.379   3.024   0.146 -0.5375 -0.2849  0.0141
   11MOL   C318 6538   3.291   2.934   0.236  0.0543  0.2656 -0.4623
   11MOL   C319 6539   3.195   2.835   0.161 -0.1441 -0.0676  0.6330
   11MOL   C320 6540   3.283   2.726   0.098  0.2465  0.6447  0.5607
   11MOL   C321 6541   3.205   2.622   0.031 -1.3963  0.8049 -0.1428
   11MOL   C322 6542   3.888   3.286   0.514 -0.1929  0.7371 -0.0198
   11MOL   H323 6543   3.708   3.397   0.458  0.3654 -0.2908 -0.3051
   11MOL   H324 6544   3.705   3.370   0.210 -1.0317  0.7550  0.1827
   11MOL   H325 6545   3.563   3.345   0.316 -0.6487  0.5488 -2.2061
   11MOL   H326 6546   3.616   3.153   0.088 -1.8159 -2.1237 -1.0396
   11MOL   H327 6547   3.494   3.277   0.094  1.3663  0.0641 -1.6216
   11MOL   H328 6548   3.522   3.052   0.300 -1.2019 -0.5547  0.6533
   11MOL   H329 6549   3.397   3.181   0.295  0.8052  1.5525 -1.1909
   11MOL   H330 6550   3.321   3.091   0.083 -1.0320 -1.4704 -0.8313
   11MOL   H331 6551   3.438   2.972   0.071  0.8165 -0.2611  1.0404
   11MOL   H332 6552   3.357   2.872   0.296  0.0916  1.6852  0.9828
   11MOL   H333 6553   3.228   2.989   0.306  0.6920  0.9927 -0.4519
   11MOL   H334 6554   3.130   2.884   0.089  0.7394 -1.4202 -1.1304
   11MOL   H335 6555   3.123   2.784   0.223 -0.1802 -1.3509 -0.4547
   11MOL   H336 6556   3.345   2.773   0.022  1.2415 -1.2184  0.1884
   11MOL   H337 6557   3.352   2.676   0.166 -1.2121 -1.5994  0.4413
   11MOL   H338 6558   3.167   2.654   7.708  2.8121  2.1310 -1.4630
   11MOL   H339 6559   3.136   2.564   0.093 -1.3123 -1.0386 -1.6982
   11MOL   H340 6560   3.270   2.541   7.772  0.6054  2.1800  0.3531
   11MOL   H341 6561   3.899   3.338   0.609  0.3945  0.6664 -0.0521
   11MOL   H342 6562   3.920   3.186   0.544  0.3516  0.4434 -1.5370
   11MOL   C343 6563   3.991   3.348   0.414  0.2259  0.1006 -0.2265
   11MOL   O344 6564   3.948   3.487   0.388  0.4738 -0.2765 -0.2524
   11MOL   C345 6565   4.049   3.556   0.311 -0.2255 -0.4721  0.2877
   11MOL   C346 6566   4.041   3.701   0.368 -0.8909  0.1596  0.0025
   11MOL   C347 6567   4.121   3.805   0.283  0.1848 -0.7494 -0.3681
   11MOL   C348 6568   4.171   3.925   0.353  0.5750 -0.2085 -0.2682
   11MOL   C349 6569   4.255   4.016   0.261  0.5305  0.0111 -0.6761
   11MOL   C350 6570   4.320   4.127   0.334  0.4460  0.3861  0.1910
   11MOL   C351 6571   4.401   4.220   0.244 -0.1588 -0.2232 -1.2061
   11MOL   C352 6572   4.446   4.345   0.325 -0.1234 -0.0149  0.0453
   11MOL   C353 6573   4.021   3.266   0.284  0.1940 -0.5160 -0.0131
   11MOL   H354 6574   4.089   3.348   0.462  1.6429  1.5906 -2.9916
   11MOL   H355 6575   4.016   3.554   0.207  0.8528  0.7196 -0.0836
   11MOL   H356 6576   4.152   3.522   0.320 -0.1946 -0.2014  1.0039
   11MOL   H357 6577   4.083   3.708   0.469 -2.0547 -2.4085  0.6836
   11MOL   H358 6578   3.936   3.731   0.372 -1.6814 -2.6153  0.5156
   11MOL   H359 6579   4.208   3.759   0.235  0.7690  0.8579 -0.8895
   11MOL   H360 6580   4.063   3.837   0.196  1.7746 -0.1126 -1.2178
   11MOL   H361 6581   4.090   3.990   0.386 -0.6193 -0.5862 -2.3438
   11MOL   H362 6582   4.224   3.899   0.445 -1.9972  0.8428  1.5750
   11MOL   H363 6583   4.326   3.963   0.197  0.3019  0.5716 -1.4042
   11MOL   H364 6584   4.190   4.061   0.186  1.5570  1.9961 -0.4014
   11MOL   H365 6585   4.377   4.081   0.415  0.9519  1.4521  0.4458
   11MOL   H366 6586   4.249   4.186   0.391 -2.2838 -0.1083 -2.5660
   11MOL   H367 6587   4.488   4.165   0.206  1.8569  0.3286  2.4088
   11MOL   H368 6588   4.337   4.251   0.161 -2.1673 -0.5678  0.1900
   11MOL   H369 6589   4.487   4.311   0.420  1.1391  2.6144  0.4936
   11MOL   H370 6590   4.357   4.404   0.350  0.4757  0.2141  1.7055
   11MOL   H371 6591   4.523   4.399   0.270 -0.0078 -0.6599 -0.4318
   11MOL   H372 6592   3.927   3.247   0.231 -1.1769  3.0190  0.9953
   11MOL   H373 6593   4.092   3.316   0.218  0.2486  0.2916  0.6599
   11MOL   C374 6594   4.065   3.118   0.315  0.6195  0.1291 -0.9981
   11MOL   O375 6595   4.207   3.130   0.361  0.2577  0.7997 -0.0697
   11MOL   C376 6596   4.272   3.023   0.436  0.3435  0.3573  0.7129
   11MOL   C377 6597   4.421   3.027   0.414 -0.3456 -0.0239  0.0283
   11MOL   C378 6598   4.493   3.126   0.499  0.2601  0.2976 -0.4268
   11MOL   C379 6599   4.645   3.141   0.482  0.4506  0.3061  0.0571
   11MOL   C380 6600   4.699   3.267   0.554 -0.4760  0.2955 -0.2150
   11MOL   C381 6601   4.842   3.317   0.519 -0.3503 -0.4404  0.5874
   11MOL   C382 6602   4.872   3.359   0.372 -0.4460 -0.1283  0.4422
   11MOL   C383 6603   5.013   3.412   0.366 -0.4387  0.1036 -0.2357
   11MOL   C384 6604   4.059   3.031   0.189 -0.3645 -0.1436 -0.1733
   11MOL   H385 6605   3.999   3.072   0.389 -0.0984 -1.5495 -2.6464
   11MOL   H386 6606   4.219   2.932   0.406 -0.0911  0.3093  1.6156
   11MOL   H387 6607   4.242   3.012   0.540  0.3273  0.5200  0.7242
   11MOL   H388 6608   4.432   3.028   0.305  0.1079  1.4537  0.0738
   11MOL   H389 6609   4.468   2.932   0.438  0.9524  0.5728 -0.1303
   11MOL   H390 6610   4.440   3.219   0.476  0.8111  0.6363 -0.3312
   11MOL   H391 6611   4.485   3.112   0.606  1.0757  0.2420 -0.3664
   11MOL   H392 6612   4.684   3.049   0.526  0.1664  0.2886  0.2698
   11MOL   H393 6613   4.674   3.145   0.377  1.7344  1.5475  0.4482
   11MOL   H394 6614   4.636   3.345   0.512 -0.4642 -0.3053 -1.3469
   11MOL   H395 6615   4.680   3.261   0.662 -1.0129 -1.7895 -0.4105
   11MOL   H396 6616   4.911   3.241   0.553 -1.5747 -0.7196  2.5367
   11MOL   H397 6617   4.844   3.405   0.584  1.4604  1.3318 -1.7665
   11MOL   H398 6618   4.862   3.274   0.305 -1.1414 -0.6675  1.2171
   11MOL   H399 6619   4.803   3.436   0.336  1.0572  1.2554  0.4758
   11MOL   H400 6620   5.093   3.339   0.374 -0.5052  0.1356  0.7652
   11MOL   H401 6621   5.028   3.489   0.441 -1.1032  0.9430 -0.9636
   11MOL   H402 6622   5.036   3.481   0.285 -1.7276  1.0566  0.2015
   11MOL   H403 6623   4.108   3.089   0.111  2.0389 -1.0835  0.6168
   11MOL   H404 6624   4.137   2.955   0.195  1.1269  1.0563 -3.0808
   11MOL   C405 6625   3.921   2.977   0.153  1.0032 -1.2524 -0.4019
   11MOL   O406 6626   3.882   2.886   0.257 -0.0510 -0.7445  0.2586
   11MOL   C407 6627   3.745   2.906   0.302  0.1691 -0.4411 -0.0340
   11MOL   C408 6628   3.677   2.785   0.371 -0.0183  0.8833  0.0069
   11MOL   C409 6629   3.694   2.788   0.524  0.0324  0.1862 -0.7354
   11MOL   C410 6630   3.589   2.702   0.596  0.2493 -0.2638  0.6835
   11MOL   C411 6631   3.624   2.672   0.738  0.6032  0.0892  0.5159
   11MOL   C412 6632   3.509   2.616   0.833 -0.4034  0.1993  0.0180
   11MOL   C413 6633   3.478   2.468   0.804 -0.0294  0.2979 -0.0641
   11MOL   C414 6634   3.353   2.410   0.879  0.2786 -0.2815 -0.0636
   11MOL   C415 6635   3.917   2.897   0.024  0.1852 -0.8540  0.3315
   11MOL   H416 6636   3.846   3.055   0.136  0.1693 -2.0956 -0.6164
   11MOL   H417 6637   3.678   2.938   0.221  0.5289  1.8982  0.5471
   11MOL   H418 6638   3.738   2.996   0.364 -3.1103 -0.0967 -0.7824
   11MOL   H419 6639   3.733   2.700   0.332 -1.5105 -0.6326  1.0395
   11MOL   H420 6640   3.574   2.767   0.339 -0.4874  2.7648  0.4023
   11MOL   H421 6641   3.788   2.744   0.557  0.3777  0.1253 -1.7942
   11MOL   H422 6642   3.693   2.893   0.551  1.0467 -0.0031  0.0881
   11MOL   H423 6643   3.496   2.759   0.595 -0.0752 -0.7589 -1.5231
   11MOL   H424 6644   3.567   2.610   0.541 -2.0125  0.6451 -0.0149
   11MOL   H425 6645   3.715   2.613   0.742 -0.0071 -1.1085 -1.9928
   11MOL   H426 6646   3.647   2.773   0.773 -0.6666 -0.1810  2.2086
   11MOL   H427 6647   3.420   2.679   0.836 -0.4054  0.2281 -0.7087
   11MOL   H428 6648   3.560   2.614   0.930 -1.3181 -0.7125  0.4912
   11MOL   H429 6649   3.464   2.457   0.697 -1.7605 -2.4045  0.4017
   11MOL   H430 6650   3.570   2.409   0.811  0.4444  1.0185 -0.1782
   11MOL   H431 6651   3.266   2.465   0.846  0.3214  1.4992  2.6193
   11MOL   H432 6652   3.351   2.426   0.987  0.0146  3.7838 -0.5912
   11MOL   H433 6653   3.332   2.307   0.850 -0.0875  0.2533 -1.7236
   11MOL   H434 6654   3.993   2.823   0.047 -1.4953 -2.3727  1.1201
   11MOL   H435 6655   3.825   2.839   0.015 -0.7874  0.6180  0.6652
   11MOL   C436 6656   3.950   2.978   7.668  0.3288 -0.8314  0.3271
   11MOL   O437 6657   3.839   3.046   7.608  0.3094 -0.6600 -0.3713
   11MOL   C438 6658   3.836   3.181   7.640 -0.3500  0.6077  0.0063
   11MOL   C439 6659   3.746   3.236   7.528 -0.3506 -0.3246  0.3505
   11MOL   C440 6660   3.600   3.172   7.506 -0.8374 -0.1052 -0.7251
   11MOL   C441 6661   3.506   3.270   7.429 -0.3433 -0.3057  0.0078
   11MOL   C442 6662   3.357   3.223   7.402 -0.0947 -0.3625 -0.0694
   11MOL   C443 6663   3.282   3.173   7.521  0.3230 -0.3955 -0.2477
   11MOL   C444 6664   3.141   3.123   7.496  0.0601 -0.2311  0.3801
   11MOL   C445 6665   3.075   3.089   7.630 -0.7760  0.7823  0.5985
   11MOL   C446 6666   4.005   2.879   7.559 -0.2090 -0.6270 -0.2533
   11MOL   H447 6667   4.030   3.046   7.696 -1.0995  0.5478  1.1499
   11MOL   H448 6668   3.807   3.199   7.744  2.2467  5.2119  0.0719
   11MOL   H449 6669   3.930   3.235   7.632 -0.3738  0.5108 -1.0302
   11MOL   H450 6670   3.806   3.227   7.438  1.1935 -0.1244  1.3290
   11MOL   H451 6671   3.735   3.342   7.554 -1.2612 -0.9082  2.4453
   11MOL   H452 6672   3.602   3.073   7.460 -0.0695  1.0924 -3.3331
   11MOL   H453 6673   3.565   3.172   7.609 -0.3444  0.2281 -0.5581
   11MOL   H454 6674   3.503   3.363   7.484 -1.1363 -0.3638  0.0679
   11MOL   H455 6675   3.542   3.290   7.328 -1.4392  1.8075  0.0181
   11MOL   H456 6676   3.309   3.309   7.354 -0.0581  0.2475  0.9701
   11MOL   H457 6677   3.367   3.136   7.337 -1.8104 -1.3564  0.9648
   11MOL   H458 6678   3.283   3.255   7.592  1.7856 -0.9258  0.3597
   11MOL   H459 6679   3.341   3.092   7.564 -0.9428 -1.2291 -0.0626
   11MOL   H460 6680   3.083   3.198   7.443 -0.7531 -0.5149  0.8729
   11MOL   H461 6681   3.144   3.040   7.426 -2.8962  1.4123 -1.7857
   11MOL   H462 6682   2.970   3.063   7.616 -0.7404  1.3018 -0.7048
   11MOL   H463 6683   3.077   3.177   7.694  2.4725  0.9482  0.3306
   11MOL   H464 6684   3.125   3.015   7.692 -1.1916  0.2475  0.3043
   11MOL   H465 6685   4.070   2.811   7.614 -0.6011  0.1817  1.2510
   11MOL   H466 6686   3.917   2.832   7.515 -0.5829  1.6099 -2.0153
   11MOL   C467 6687   4.093   2.952   7.451 -0.2303 -0.3608 -0.0225
   11MOL   O468 6688   4.117   2.864   7.341  0.0316  0.0114  0.7923
   11MOL   C469 6689   4.032   2.887   7.231  0.3706  0.5121  0.4171
   11MOL   C470 6690   4.053   2.788   7.113  0.3736  0.4663 -0.3203
   11MOL   C471 6691   3.986   2.826   6.981 -0.5596 -0.2161 -0.2059
   11MOL   C472 6692   3.974   2.705   6.883  0.6721 -0.8781 -0.4814
   11MOL   C473 6693   3.924   2.752   6.747 -0.6992 -0.2304  0.4597
   11MOL   C474 6694   3.903   2.644   6.641 -0.3292  0.2002 -0.3089
   11MOL   C475 6695   3.907   2.687   6.494 -0.7140  0.1039 -0.0096
   11MOL   C476 6696   3.838   2.597   6.384 -0.1788  0.0903 -0.4791
   11MOL   C477 6697   4.233   2.990   7.505  0.6672  0.2944  0.0230
   11MOL   H478 6698   4.044   3.041   7.410 -1.1084 -0.7700  0.1172
   11MOL   H479 6699   4.042   2.989   7.195  0.1397  1.0053  1.7283
   11MOL   H480 6700   3.928   2.879   7.264 -0.4787 -0.8134 -2.3767
   11MOL   H481 6701   4.017   2.691   7.147 -0.7975  0.3557 -1.7965
   11MOL   H482 6702   4.160   2.771   7.105  0.0981 -1.0649 -0.8822
   11MOL   H483 6703   3.890   2.870   7.004 -1.5217 -2.6157  0.4579
   11MOL   H484 6704   4.052   2.896   6.928  0.6348 -0.1158  1.3780
   11MOL   H485 6705   4.072   2.657   6.879 -0.5581 -3.3722 -2.6928
   11MOL   H486 6706   3.900   2.640   6.929 -0.1405 -0.8954 -1.7928
   11MOL   H487 6707   3.825   2.796   6.758 -1.1530 -0.7090 -1.3745
   11MOL   H488 6708   3.994   2.831   6.721 -0.9311  0.0741  0.7708
   11MOL   H489 6709   3.811   2.587   6.651  0.3187 -1.0714 -1.2638
   11MOL   H490 6710   3.981   2.570   6.663 -0.4951  0.2480  0.4613
   11MOL   H491 6711   3.857   2.784   6.489 -2.9098 -1.1058 -2.2400
   11MOL   H492 6712   4.014   2.705   6.481 -0.8857  2.0768  1.1432
   11MOL   H493 6713   3.730   2.597   6.400 -0.2555 -0.3276 -0.9704
   11MOL   H494 6714   3.858   2.490   6.380  1.0103  0.3268 -1.1754
   11MOL   H495 6715   3.859   2.629   6.282  1.3858 -1.6824 -0.7393
   11MOL   H496 6716   4.226   3.059   7.589  1.0419  2.0750 -1.3867
   11MOL   H497 6717   4.284   2.901   7.543  0.9905  0.4839  0.0376
   11MOL   C498 6718   4.328   3.060   7.409 -0.3860  0.9531  0.7079
   11MOL   O499 6719   4.450   3.077   7.477 -0.0019 -0.2929  0.3287
   11MOL   C500 6720   4.546   2.970   7.469 -0.4450  0.4332 -0.3399
   11MOL   C501 6721   4.696   3.005   7.453 -0.1783 -1.3562  0.4943
   11MOL   C502 6722   4.756   3.096   7.564  1.2888  0.5196  0.0180
   11MOL   C503 6723   4.910   3.097   7.568 -0.1814  0.4845 -0.6498
   11MOL   C504 6724   4.968   3.219   7.643  0.0517  1.1928 -0.2687
   11MOL   C505 6725   5.117   3.242   7.620 -0.3832 -0.0364  0.0366
   11MOL   C506 6726   5.209   3.149   7.700 -0.0628 -0.1252 -0.6216
   11MOL   C507 6727   5.356   3.179   7.667  0.2991  0.7216  0.4352
   11MOL   C508 6728   4.275   3.200   7.369  0.1137  0.5257  0.0609
   11MOL   H509 6729   4.343   3.004   7.317  3.9259  3.6682 -0.3597
   11MOL   H510 6730   4.523   2.898   7.391 -0.0883  0.7765 -0.7561
   11MOL   H511 6731   4.540   2.916   7.564  0.3972 -0.5723 -0.8559
   11MOL   H512 6732   4.711   3.056   7.358 -0.1982 -1.9755  0.1564
   11MOL   H513 6733   4.755   2.913   7.456  1.6395 -0.2101  0.2994
   11MOL   H514 6734   4.720   3.199   7.550 -1.7513 -0.1834  2.1699
   11MOL   H515 6735   4.699   3.070   7.653 -0.7273  0.4318 -1.2545
   11MOL   H516 6736   4.953   3.001   7.595 -1.6264 -1.0422 -3.4575
   11MOL   H517 6737   4.933   3.112   7.462 -1.1537 -1.5568 -1.1839
   11MOL   H518 6738   4.920   3.315   7.625 -0.6049  1.7145  3.8415
   11MOL   H519 6739   4.941   3.208   7.748  2.4729 -0.8171  0.1906
   11MOL   H520 6740   5.147   3.344   7.644 -0.1808  0.1589 -1.0074
   11MOL   H521 6741   5.134   3.221   7.514 -1.6367 -0.1624 -0.1584
   11MOL   H522 6742   5.193   3.154   0.034 -1.3440 -0.2788 -0.7976
   11MOL   H523 6743   5.180   3.047   7.676  1.7245 -1.0344  0.9002
   11MOL   H524 6744   5.413   3.098   7.713  2.8974  2.3452  0.1313
   11MOL   H525 6745   5.396   3.264   7.722  2.4780  0.3370 -0.5239
   11MOL   H526 6746   5.384   3.177   7.562 -1.9410 -2.6068 -0.1891
   11MOL   H527 6747   4.179   3.206   7.318 -1.0776 -1.8803  1.9415
   11MOL   H528 6748   4.253   3.253   7.462 -2.6396  0.8030 -0.7257
   11MOL   C529 6749   4.385   3.267   7.275  0.6161 -0.5041  0.5329
   11MOL   O530 6750   4.410   3.401   7.332 -0.6116 -0.4168 -0.3271
   11MOL   C531 6751   4.530   3.462   7.289  0.2217  0.6056  0.2028
   11MOL   C532 6752   4.580   3.573   7.382  0.9181  0.1970 -0.1908
   11MOL   C533 6753   4.710   3.644   7.333  0.1320  0.0959 -0.6829
   11MOL   C534 6754   4.734   3.781   7.393 -0.4753 -0.3451  0.0059
   11MOL   C535 6755   4.873   3.843   7.362  0.4335 -0.5236 -0.5046
   11MOL   C536 6756   4.892   3.990   7.417  0.1316  0.2515 -0.3190
   11MOL   C537 6757   5.035   4.041   7.381  0.3237  0.3421  0.6080
   11MOL   C538 6758   5.151   3.976   7.473 -1.0031 -0.4982 -0.5658
   11MOL   C539 6759   4.336   3.282   7.130  0.9712 -0.5124  0.3422
   11MOL   H540 6760   4.478   3.211   7.273  0.3372 -0.9604 -2.4055
   11MOL   H541 6761   4.611   3.389   7.285  0.1380  0.5654 -1.0655
   11MOL   H542 6762   4.529   3.497   7.186 -2.0841 -0.6578 -0.2281
   11MOL   H543 6763   4.599   3.540   7.484 -0.0251  2.2477  0.6702
   11MOL   H544 6764   4.496   3.640   7.398  0.1142 -1.0378  0.8132
   11MOL   H545 6765   4.795   3.580   7.356  0.0381  0.6465  1.2601
   11MOL   H546 6766   4.712   3.646   7.224 -1.6930 -1.2784 -0.7716
   11MOL   H547 6767   4.647   3.841   7.367 -1.5777 -1.4713  1.0040
   11MOL   H548 6768   4.729   3.787   7.501 -3.5274  0.7058 -0.1515
   11MOL   H549 6769   4.953   3.780   7.400  1.9977  1.9047  0.3670
   11MOL   H550 6770   4.892   3.844   7.255  1.2817  1.6141 -0.3549
   11MOL   H551 6771   4.871   3.989   7.524  2.0756 -2.1871  0.0695
   11MOL   H552 6772   4.811   4.050   7.376 -1.8614 -2.0495  0.1619
   11MOL   H553 6773   5.063   4.028   7.277 -1.8531  0.2427  0.0015
   11MOL   H554 6774   5.051   4.145   7.410  0.6450  0.1027  1.2957
   11MOL   H555 6775   5.175   3.876   7.438  2.4040  0.0415  0.0755
   11MOL   H556 6776   5.102   3.965   7.569 -0.0932  1.0112  0.0952
   11MOL   H557 6777   5.237   4.044   7.474  0.1303 -1.8380 -2.5535
   11MOL   H558 6778   4.263   3.363   7.128 -0.0451 -1.4193  0.1919
   11MOL   H559 6779   4.415   3.345   7.088  0.5279  0.2556  0.6395
   11MOL   C560 6780   4.302   3.146   7.046 -0.4606 -0.0965  0.0631
   11MOL   O561 6781   4.426   3.076   7.032 -0.0248  0.1462  0.0465
   11MOL   C562 6782   4.423   2.946   6.994 -0.2406  0.6215 -0.1603
   11MOL   C563 6783   4.559   2.880   7.000 -0.6689 -0.0157  0.0309
   11MOL   C564 6784   4.578   2.734   6.943  1.0418 -0.3289 -0.2661
   11MOL   C565 6785   4.659   2.642   7.032  0.3568  0.3696  0.3676
   11MOL   C566 6786   4.690   2.498   6.985 -0.2766  0.1617 -0.7109
   11MOL   C567 6787   4.771   2.413   7.093  0.6236 -0.4557 -0.1498
   11MOL   C568 6788   4.914   2.456   7.119  0.3065  0.7734 -0.4079
   11MOL   C569 6789   4.996   2.346   7.190  0.1006  1.4680 -0.1938
   11MOL   C570 6790   4.231   3.171   6.906  0.2522  0.1367  0.6143
   11MOL   H571 6791   4.235   3.088   7.109 -0.1527  0.2156  0.6837
   11MOL   H572 6792   4.383   2.930   6.894 -0.4083 -1.9160  0.2867
   11MOL   H573 6793   4.355   2.889   7.057  0.2744 -0.9985 -1.0465
   11MOL   H574 6794   4.595   2.883   7.103 -0.7028 -0.6767  0.0649
   11MOL   H575 6795   4.641   2.936   6.953  0.6223 -1.0242  1.0235
   11MOL   H576 6796   4.483   2.686   6.921  0.6600  0.1017  0.4110
   11MOL   H577 6797   4.626   2.755   6.847 -0.1053  1.8424 -0.4113
   11MOL   H578 6798   4.751   2.696   7.055  0.7334  0.8789 -2.2224
   11MOL   H579 6799   4.612   2.640   7.131  2.0138  1.1944  1.1897
   11MOL   H580 6800   4.590   2.455   6.978 -0.2509 -0.3939  1.8858
   11MOL   H581 6801   4.733   2.498   6.884  1.4039 -0.8153 -0.0117
   11MOL   H582 6802   4.772   2.315   7.047  0.0836 -0.4091 -0.2589
   11MOL   H583 6803   4.716   2.411   7.187  0.7805  0.1391 -0.0397
   11MOL   H584 6804   4.956   2.499   7.028  3.0026  1.5317  1.1267
   11MOL   H585 6805   4.921   2.547   7.179 -0.9722  1.9112 -1.9745
   11MOL   H586 6806   4.989   2.253   7.135  0.9531  1.7527 -0.8033
   11MOL   H587 6807   4.965   2.324   7.292 -1.2722 -0.6718 -1.0372
   11MOL   H588 6808   5.099   2.380   7.176  0.2770  0.7748 -0.5816
   11MOL   H589 6809   4.306   3.197   6.831  0.0873 -2.2924 -0.4527
   11MOL   H590 6810   4.183   3.078   6.874 -0.7607  0.6505  0.6184
   11MOL   C591 6811   4.122   3.274   6.907 -0.2334  0.5656 -0.2255
   11MOL   O592 6812   4.025   3.225   7.006 -0.1877  0.1089 -0.0991
   11MOL   C593 6813   3.926   3.317   7.049 -0.4411  0.0277  0.0921
   11MOL   C594 6814   3.819   3.243   7.130  0.2000  0.2211  0.0151
   11MOL   C595 6815   3.741   3.144   7.039  0.2705  0.0371 -0.4815
   11MOL   C596 6816   3.658   3.043   7.117 -0.2047  0.4940  0.4784
   11MOL   C597 6817   3.553   2.971   7.030  0.3359  0.3548  0.2902
   11MOL   C598 6818   3.465   2.889   7.127  0.0619 -0.0984  0.2483
   11MOL   C599 6819   3.333   2.835   7.065  0.0385 -0.3648 -1.4310
   11MOL   C600 6820   3.232   2.946   7.056  0.1068  0.5282 -0.4131
   11MOL   C601 6821   4.048   3.276   6.775 -0.4834 -0.4131  0.1163
   11MOL   H602 6822   4.160   3.373   6.932 -0.3702  0.9219 -1.3898
   11MOL   H603 6823   3.870   3.365   6.969 -2.6844 -1.8210  0.4769
   11MOL   H604 6824   3.978   3.396   7.101  0.6556  0.0274 -0.9912
   11MOL   H605 6825   3.756   3.313   7.185  0.6520  0.4169  0.2909
   11MOL   H606 6826   3.874   3.185   7.204 -0.7930 -2.5450 -1.3476
   11MOL   H607 6827   3.674   3.198   6.971  0.3908  1.5368  0.5577
   11MOL   H608 6828   3.813   3.092   6.976 -0.2295 -0.7642 -0.3942
   11MOL   H609 6829   3.711   2.966   7.173  1.8206  2.8420  1.8484
   11MOL   H610 6830   3.604   3.086   7.201  0.1954  1.3397  0.3055
   11MOL   H611 6831   3.493   3.037   6.968  2.9885  1.3480 -1.2955
   11MOL   H612 6832   3.596   2.896   6.963 -1.1151 -1.9051  1.8063
   11MOL   H613 6833   3.442   2.960   7.207 -0.9897  0.9315 -0.9365
   11MOL   H614 6834   3.509   2.803   7.178 -2.7476 -0.2421  2.6089
   11MOL   H615 6835   3.351   2.792   6.966 -0.1943  0.0479 -1.6543
   11MOL   H616 6836   3.294   2.762   7.137  2.0040  0.2822  0.3332
   11MOL   H617 6837   3.128   2.920   7.036  0.3613 -0.4646 -0.4828
   11MOL   H618 6838   3.248   2.995   6.961 -0.1753  1.0349 -0.1995
   11MOL   H619 6839   3.241   3.014   7.141 -2.2892 -1.0583  1.1835
   11MOL   H620 6840   4.108   3.333   6.703 -1.1531 -1.3716 -1.2218
   11MOL   H621 6841   4.047   3.177   6.729  1.3956 -0.5304  0.2661
   11MOL   H622 6842   3.945   3.311   6.773 -0.4226 -0.2619 -0.7063
   12MOL     C1 6843   3.760   0.476   2.518  0.4138 -0.0509 -0.5571
   12MOL     O2 6844   3.746   0.382   2.402 -0.1267 -0.0154 -0.3028
   12MOL     C3 6845   3.702   0.436   2.273  0.4310 -0.3312 -0.2141
   12MOL     C4 6846   3.683   0.323   2.171 -0.0761 -0.4794 -0.7141
   12MOL     C5 6847   3.589   0.210   2.218  0.2587 -0.0492 -0.9774
   12MOL     C6 6848   3.576   0.092   2.116  0.1924 -1.1452  0.6340
   12MOL     C7 6849   3.472   7.771   2.157 -0.0563  0.0098 -0.3220
   12MOL     C8 6850   3.331   0.030   2.102  0.2728  0.1810 -0.6496
   12MOL     C9 6851   3.222   7.703   2.139  0.2250  0.4386 -0.4065
   12MOL    C10 6852   3.094   7.724   2.069 -0.2888 -0.2315 -0.0998
   12MOL    C11 6853   3.812   0.404   2.652 -0.3705 -0.8814  0.3393
   12MOL    H12 6854   3.824   0.560   2.490  1.7972 -0.7414  0.4773
   12MOL    H13 6855   3.781   0.503   2.240 -0.2871  0.8667  0.4444
   12MOL    H14 6856   3.613   0.498   2.282 -0.0251 -0.7992 -1.3909
   12MOL    H15 6857   3.782   0.277   2.169 -0.0558 -0.4581 -0.0447
   12MOL    H16 6858   3.645   0.361   2.075 -1.0188  1.4355  0.3818
   12MOL    H17 6859   3.623   0.177   2.316  0.3678 -1.5495 -1.4940
   12MOL    H18 6860   3.488   0.249   2.228  0.0342 -1.3438  2.5231
   12MOL    H19 6861   3.561   0.134   2.017 -1.0670  0.0928  1.3273
   12MOL    H20 6862   3.673   0.043   2.115 -0.0447 -1.6075  0.0686
   12MOL    H21 6863   3.498   7.675   2.111 -1.0653  1.1724 -3.4858
   12MOL    H22 6864   3.478   7.763   2.265  3.4552  1.0754 -0.3836
   12MOL    H23 6865   3.346   0.022   1.995 -0.8339 -0.8288 -0.7465
   12MOL    H24 6866   3.304   0.133   2.122 -0.0230  0.1400 -0.8371
   12MOL    H25 6867   3.254   7.599   2.146 -1.5610 -0.0874  0.2558
   12MOL    H26 6868   3.199   7.717   2.244 -0.9392  3.3575 -1.0117
   12MOL    H27 6869   3.016   7.651   2.094  0.1961 -0.7790 -0.1750
   12MOL    H28 6870   3.119   7.706   1.964  1.3242 -2.1943  0.5968
   12MOL    H29 6871   3.050   0.044   2.100  1.4463  0.4111  0.4602
   12MOL    H30 6872   3.919   0.382   2.648 -0.1978 -0.3148  1.5519
   12MOL    H31 6873   3.806   0.486   2.724 -1.9972 -0.7133  0.0363
   12MOL    H32 6874   3.663   0.525   2.526  0.3126 -0.2544 -0.5338
   12MOL    C33 6875   3.726   0.290   2.720 -0.1593  0.4068 -0.2862
   12MOL    O34 6876   3.597   0.335   2.726  0.2914 -0.1997  0.9256
   12MOL    C35 6877   3.498   0.285   2.633  0.1423  0.4097 -0.1645
   12MOL    C36 6878   3.381   0.376   2.626  0.2288  0.0071  0.5887
   12MOL    C37 6879   3.269   0.339   2.528 -0.5695 -0.1583 -0.6416
   12MOL    C38 6880   3.214   0.205   2.552 -0.5938 -0.3184 -0.2786
   12MOL    C39 6881   3.108   0.160   2.452  0.2707 -0.6461  0.5465
   12MOL    C40 6882   3.041   0.027   2.499 -0.2457 -0.2158 -0.1239
   12MOL    C41 6883   2.948   7.736   2.399  0.4049 -0.0495 -0.4278
   12MOL    C42 6884   2.814   0.039   2.396 -0.1995 -0.5088 -0.0259
   12MOL    C43 6885   3.783   0.260   2.853 -0.3007  0.2826  0.0912
   12MOL    H44 6886   3.724   0.197   2.662  3.0646 -0.2105  0.5212
   12MOL    H45 6887   3.463   0.184   2.650 -0.5453  0.5521 -0.6953
   12MOL    H46 6888   3.550   0.290   2.537  1.5470 -0.6676  0.5236
   12MOL    H47 6889   3.404   0.481   2.609  1.0529 -0.3845 -0.7579
   12MOL    H48 6890   3.340   0.389   2.726  0.1873  0.8905  0.4639
   12MOL    H49 6891   3.184   0.406   2.540 -0.4326  0.0524 -0.8564
   12MOL    H50 6892   3.318   0.345   2.431  1.1848 -0.6549  0.2012
   12MOL    H51 6893   3.293   0.130   2.556 -0.2670  0.1048  1.5033
   12MOL    H52 6894   3.158   0.205   2.645 -0.1504  0.5010 -0.0061
   12MOL    H53 6895   3.031   0.237   2.445  0.1916 -0.7942 -0.2906
   12MOL    H54 6896   3.152   0.155   2.352  3.0562 -0.6708  1.7359
   12MOL    H55 6897   2.995   0.055   2.594 -0.6919  1.5153 -0.8300
   12MOL    H56 6898   3.127   7.741   2.529 -0.2763 -0.5168 -0.6399
   12MOL    H57 6899   2.992   7.725   2.300  2.2064 -0.8510  0.4339
   12MOL    H58 6900   2.921   7.636   2.435  0.0077  0.2687  0.1651
   12MOL    H59 6901   2.743   7.756   2.337 -0.8679  0.8772 -0.5848
   12MOL    H60 6902   2.817   0.143   2.362  1.1640 -0.5357 -0.0335
   12MOL    H61 6903   2.769   0.034   2.495 -0.2613 -0.2301 -0.0397
   12MOL    H62 6904   3.891   0.246   2.842 -0.2701  1.1687 -0.7619
   12MOL    H63 6905   3.783   0.351   2.914 -1.5563  1.1082 -1.1092
   12MOL    C64 6906   3.727   0.138   2.927 -0.1993  0.6264  0.4228
   12MOL    O65 6907   3.721   0.035   2.828 -0.2447 -0.6666  0.0015
   12MOL    C66 6908   3.665   7.684   2.863  0.5962  0.2575 -0.2918
   12MOL    C67 6909   3.653   7.602   2.731  0.3203  0.0419  0.2633
   12MOL    C68 6910   3.556   7.661   2.628  0.2348 -0.7724 -0.7118
   12MOL    C69 6911   3.536   7.568   2.511 -0.0238  0.2001  1.1723
   12MOL    C70 6912   3.651   7.543   2.416  0.0432 -0.1145 -0.3006
   12MOL    C71 6913   3.622   7.438   2.313  0.2980  0.8715  0.3953
   12MOL    C72 6914   3.740   7.400   2.223 -0.1128 -0.8183  0.3905
   12MOL    C73 6915   3.698   7.283   2.137  0.8337  1.1062  0.7190
   12MOL    C74 6916   3.594   0.165   3.011 -0.4598 -0.2468  0.3501
   12MOL    H75 6917   3.798   0.102   3.002  2.2982  2.8557 -0.7858
   12MOL    H76 6918   3.565   7.697   2.905  0.3023 -0.9995 -0.5688
   12MOL    H77 6919   3.728   7.632   2.936 -2.9035 -0.5709  2.2796
   12MOL    H78 6920   3.612   7.504   2.755 -0.6117  0.2753 -0.3728
   12MOL    H79 6921   3.749   7.574   2.687  0.4428 -1.6713  1.5865
   12MOL    H80 6922   3.462   7.669   2.683 -0.1953  1.1747 -1.6902
   12MOL    H81 6923   3.584   7.762   2.599  0.6538 -1.2252 -1.8951
   12MOL    H82 6924   3.500   7.471   2.547  0.4622 -0.5525 -0.3124
   12MOL    H83 6925   3.458   7.616   2.451  0.8800 -0.7414 -0.7991
   12MOL    H84 6926   3.679   7.630   2.356  1.9862 -0.9168 -0.6002
   12MOL    H85 6927   3.739   7.509   2.469 -0.3310 -1.5046 -0.5635
   12MOL    H86 6928   3.542   7.476   2.249  0.5295  1.0253  0.1987
   12MOL    H87 6929   3.594   7.349   2.369 -0.1134 -0.8668 -2.4230
   12MOL    H88 6930   3.767   7.483   2.158  0.2697 -0.2558  1.2630
   12MOL    H89 6931   3.829   7.369   2.279 -1.1137 -0.4413  2.2074
   12MOL    H90 6932   3.775   7.242   2.072 -0.6998 -2.5843  1.1266
   12MOL    H91 6933   3.615   7.312   2.074  1.9964 -1.8025 -2.3057
   12MOL    H92 6934   3.686   7.202   2.209  0.2470  1.1345  0.6567
   12MOL    H93 6935   3.511   0.193   2.946  0.0973  1.5513  0.3890
   12MOL    H94 6936   3.564   0.073   3.060  1.2028 -2.6314 -2.8547
   12MOL    C95 6937   3.616   0.276   3.123  0.4605  1.3735 -0.0631
   12MOL    O96 6938   3.714   0.214   3.213 -0.3426 -0.4588  0.2461
   12MOL    C97 6939   3.788   0.313   3.283 -0.3763  0.0412 -0.1030
   12MOL    C98 6940   3.907   0.381   3.213 -0.1061 -0.0352 -0.3308
   12MOL    C99 6941   4.019   0.287   3.170 -0.1690 -0.3793  0.2749
   12MOL   C100 6942   4.145   0.363   3.123  0.2732  0.9401 -0.4352
   12MOL   C101 6943   4.259   0.277   3.069 -0.3327  0.0852  0.1169
   12MOL   C102 6944   4.351   0.228   3.180  0.6052  0.7504  0.4769
   12MOL   C103 6945   4.488   0.167   3.126 -0.4118  0.3080  0.2809
   12MOL   C104 6946   4.593   0.270   3.084 -0.0746  0.4696 -0.3989
   12MOL   C105 6947   3.479   0.308   3.196  0.0760 -0.3746  0.5159
   12MOL   H106 6948   3.655   0.363   3.070  1.1694  0.3965 -1.1936
   12MOL   H107 6949   3.832   0.268   3.373 -0.6889  1.5965  0.8506
   12MOL   H108 6950   3.721   0.385   3.328  0.3474  2.2454 -2.4372
   12MOL   H109 6951   3.955   0.452   3.281 -0.3596  1.3816 -1.6106
   12MOL   H110 6952   3.873   0.435   3.124  2.0524  0.9539 -0.5925
   12MOL   H111 6953   4.038   0.204   3.238 -1.6835  0.0694  1.2695
   12MOL   H112 6954   3.988   0.230   3.083  0.6373  2.2749 -1.8012
   12MOL   H113 6955   4.111   0.422   3.038 -3.3473  0.9852  0.9325
   12MOL   H114 6956   4.185   0.438   3.191  2.2313 -0.0475 -0.4448
   12MOL   H115 6957   4.227   0.193   3.008 -0.5309  0.6733 -0.5993
   12MOL   H116 6958   4.315   0.342   3.002 -2.6056  1.0478 -0.8882
   12MOL   H117 6959   4.312   0.147   3.242 -2.5800  1.1512 -0.9173
   12MOL   H118 6960   4.369   0.312   3.247 -0.8727  1.4064  0.0766
   12MOL   H119 6961   4.536   0.108   3.204 -2.5590  1.4364  2.5565
   12MOL   H120 6962   4.485   0.096   3.044 -1.4351  1.3948 -0.6489
   12MOL   H121 6963   4.616   0.342   3.162  0.6694 -0.5971  0.3817
   12MOL   H122 6964   4.572   0.318   2.989  1.0124  1.9523  0.1000
   12MOL   H123 6965   4.680   0.210   3.060  0.3463  1.2002 -0.7283
   12MOL   H124 6966   3.438   0.208   3.209 -1.9183  0.2002 -1.0343
   12MOL   H125 6967   3.504   0.337   3.298  0.9936 -2.6075  0.9552
   12MOL   C126 6968   3.378   0.405   3.131 -0.0891 -0.0115 -0.5700
   12MOL   O127 6969   3.431   0.536   3.117 -0.2633  0.3470  0.6678
   12MOL   C128 6970   3.426   0.588   2.982  0.0258  0.9439 -0.4585
   12MOL   C129 6971   3.504   0.722   2.987  0.2510  0.2233  0.5049
   12MOL   C130 6972   3.656   0.688   3.002 -0.8127 -0.2635  0.6752
   12MOL   C131 6973   3.738   0.810   3.039 -0.3135 -0.2207  0.0155
   12MOL   C132 6974   3.883   0.780   3.060 -0.6299  0.3377 -0.0539
   12MOL   C133 6975   3.967   0.736   2.939  0.4447  0.3989  0.2062
   12MOL   C134 6976   4.119   0.716   2.971 -0.0192 -0.2598  0.7471
   12MOL   C135 6977   4.208   0.663   2.854 -0.0762 -0.4349 -0.0664
   12MOL   C136 6978   3.253   0.430   3.214 -0.8698  0.2586  0.0893
   12MOL   H137 6979   3.354   0.360   3.035 -2.1782 -0.5237  0.1694
   12MOL   H138 6980   3.322   0.608   2.957 -0.6147 -1.0746  0.5725
   12MOL   H139 6981   3.469   0.512   2.917  1.2266  0.7249  0.5800
   12MOL   H140 6982   3.464   0.775   3.073 -1.7771 -1.5371  0.6945
   12MOL   H141 6983   3.491   0.786   2.899  0.8293  2.7032  2.1740
   12MOL   H142 6984   3.672   0.614   3.080  2.0214 -0.1703  0.2251
   12MOL   H143 6985   3.695   0.633   2.916 -0.6878 -2.0769  1.8660
   12MOL   H144 6986   3.729   0.889   2.964  0.4743 -1.3481 -1.2692
   12MOL   H145 6987   3.695   0.843   3.134 -1.2781  3.1942 -1.5407
   12MOL   H146 6988   3.918   0.880   3.085 -0.5141  0.2623  0.0904
   12MOL   H147 6989   3.897   0.719   3.150  0.6561 -0.0311 -0.4886
   12MOL   H148 6990   3.956   0.811   2.860  2.3926  1.2249  0.6864
   12MOL   H149 6991   3.924   0.641   2.908  1.9745 -0.7936  1.6658
   12MOL   H150 6992   4.160   0.813   2.999 -1.8960  1.0374 -0.8476
   12MOL   H151 6993   4.133   0.651   3.057  1.7328 -3.2765 -1.6673
   12MOL   H152 6994   4.170   0.565   2.825 -1.9523  0.9078 -2.3435
   12MOL   H153 6995   4.305   0.650   2.902 -0.3392 -1.1498  0.2760
   12MOL   H154 6996   4.215   0.734   2.772  1.3457  0.2832  0.6620
   12MOL   H155 6997   3.216   0.334   3.249  0.0778 -0.1621 -0.0534
   12MOL   H156 6998   3.297   0.485   3.298 -0.8893  0.4909 -0.0533
   12MOL   C157 6999   3.133   0.502   3.141 -0.2796  0.4567  0.4137
   12MOL   O158 7000   3.019   0.532   3.228 -0.4624 -0.2107  0.1495
   12MOL   C159 7001   3.041   0.650   3.301 -0.3690  0.4118 -0.1674
   12MOL   C160 7002   2.905   0.716   3.316 -0.2421 -0.5110  0.3200
   12MOL   C161 7003   2.899   0.823   3.414  0.0140  0.3860  0.1147
   12MOL   C162 7004   2.774   0.903   3.437  0.3266  1.4808 -0.7183
   12MOL   C163 7005   2.654   0.836   3.494  0.6882 -0.4974 -0.3047
   12MOL   C164 7006   2.541   0.944   3.529 -0.4326  0.1722 -0.5299
   12MOL   C165 7007   2.412   0.891   3.590  0.0375 -0.4930  0.9230
   12MOL   C166 7008   2.328   0.807   3.493  0.3322  0.3656 -0.6258
   12MOL   C167 7009   3.065   0.407   3.033 -0.5373 -0.4670 -0.9199
   12MOL   H168 7010   3.172   0.591   3.090 -1.6489 -0.4039 -2.2367
   12MOL   H169 7011   3.102   0.728   3.256 -0.5230  0.3239 -0.5289
   12MOL   H170 7012   3.083   0.619   3.397  1.0609  0.6252 -0.7102
   12MOL   H171 7013   2.837   0.633   3.337  0.5043 -0.4413  3.2083
   12MOL   H172 7014   2.865   0.767   3.229  0.4038  0.0080  0.3264
   12MOL   H173 7015   2.928   0.781   3.511 -0.0355 -1.2548 -0.5674
   12MOL   H174 7016   2.984   0.886   3.389 -0.2871 -0.1261 -2.2912
   12MOL   H175 7017   2.802   0.983   3.506  0.9951  0.4622  0.2122
   12MOL   H176 7018   2.749   0.936   3.336 -3.8008 -2.8809 -1.2948
   12MOL   H177 7019   2.620   0.751   3.435  1.1938 -1.4723  0.7666
   12MOL   H178 7020   2.687   0.783   3.584 -1.1455 -0.6637  0.2784
   12MOL   H179 7021   2.509   1.000   3.441 -1.4810 -2.5353 -1.9335
   12MOL   H180 7022   2.594   1.014   3.593  1.5874  0.3253 -2.3235
   12MOL   H181 7023   2.431   0.839   3.684  2.1533 -0.7071  0.4090
   12MOL   H182 7024   2.343   0.969   3.622 -0.5120 -1.2008  1.4744
   12MOL   H183 7025   2.390   0.748   3.425 -2.4851 -0.4131 -2.5966
   12MOL   H184 7026   2.274   0.863   3.417 -1.0808 -1.3557 -0.9174
   12MOL   H185 7027   2.260   0.736   3.539 -0.1996  0.2497 -1.5818
   12MOL   H186 7028   3.143   0.351   2.983  0.5703  0.8734 -0.7323
   12MOL   H187 7029   3.011   0.339   3.099  2.0870 -2.3852 -0.6843
   12MOL   C188 7030   2.981   0.472   2.926  0.0219 -0.1357 -0.2340
   12MOL   O189 7031   2.871   0.394   2.875 -0.1890 -0.4449  0.1717
   12MOL   C190 7032   2.911   0.279   2.791  0.6136  0.1401  0.0362
   12MOL   C191 7033   2.794   0.175   2.802  0.1106  0.0404 -0.0527
   12MOL   C192 7034   2.663   0.240   2.753 -0.3617 -0.7719 -0.4764
   12MOL   C193 7035   2.546   0.148   2.797 -0.3675 -0.0662 -0.0311
   12MOL   C194 7036   2.411   0.195   2.752  0.4265 -0.5535  0.7871
   12MOL   C195 7037   2.286   0.105   2.771 -0.2151  0.0289 -0.2186
   12MOL   C196 7038   2.167   0.156   2.693 -0.5477 -0.9359 -0.1184
   12MOL   C197 7039   2.036   0.094   2.746 -0.2440 -0.3167  1.0209
   12MOL   C198 7040   3.054   0.551   2.813  0.5867  0.0815 -0.3993
   12MOL   H199 7041   2.930   0.548   2.985 -1.6519 -1.6011  0.2549
   12MOL   H200 7042   2.922   0.330   2.695 -1.9033  0.7355  0.0243
   12MOL   H201 7043   3.002   0.233   2.827  0.1910 -1.2388 -0.6547
   12MOL   H202 7044   2.787   0.140   2.905  3.8544  0.2131  0.3081
   12MOL   H203 7045   2.821   0.090   2.739 -0.2070  0.6191 -0.9815
   12MOL   H204 7046   2.642   0.345   2.775  0.7292 -0.0018 -2.9576
   12MOL   H205 7047   2.661   0.250   2.645 -1.1318  0.9922 -0.3114
   12MOL   H206 7048   2.558   0.052   2.747 -0.1290 -0.2915  0.4548
   12MOL   H207 7049   2.537   0.116   2.901 -1.3175  0.1083 -0.0528
   12MOL   H208 7050   2.393   0.298   2.781  1.5405 -0.5176  1.3894
   12MOL   H209 7051   2.415   0.205   2.644 -0.7692  0.3455  0.8169
   12MOL   H210 7052   2.276   0.115   2.879  0.1510  2.2195 -0.3500
   12MOL   H211 7053   2.316   0.006   2.737 -0.0136 -0.7872  2.2558
   12MOL   H212 7054   2.170   0.264   2.687  3.1800 -0.9712 -0.2742
   12MOL   H213 7055   2.188   0.126   2.590  0.9780  0.3829 -0.2089
   12MOL   H214 7056   2.027   7.760   2.755 -1.3546 -0.5890 -2.5345
   12MOL   H215 7057   1.955   0.146   2.694  1.4522 -0.5794 -2.0030
   12MOL   H216 7058   2.039   0.124   2.851  0.3146 -0.7562  1.1341
   12MOL   H217 7059   3.135   0.615   2.849  0.0690  2.5763 -3.5055
   12MOL   H218 7060   3.110   0.473   2.762  1.2502 -0.0643  0.5392
   12MOL   C219 7061   2.966   0.643   2.726  0.0812  0.3256  0.4809
   12MOL   O220 7062   2.915   0.575   2.607 -0.1340 -0.2217  0.5408
   12MOL   C221 7063   2.793   0.625   2.562 -0.1815  0.1576  0.2263
   12MOL   C222 7064   2.761   0.523   2.453 -0.5627  0.1629 -0.4303
   12MOL   C223 7065   2.850   0.562   2.324  0.6920 -0.0325  0.2967
   12MOL   C224 7066   2.811   0.492   2.192  0.3014  0.0697  0.8289
   12MOL   C225 7067   2.906   0.529   2.074  0.2610  0.5538 -0.2899
   12MOL   C226 7068   3.050   0.455   2.089  0.8420  0.1812  0.3402
   12MOL   C227 7069   3.148   0.492   1.985 -0.1630  0.1693 -0.1916
   12MOL   C228 7070   3.283   0.421   2.016 -0.4822  0.1083  0.4112
   12MOL   C229 7071   3.034   0.781   2.683 -0.3551 -0.8101 -0.2377
   12MOL   H230 7072   2.889   0.667   2.799 -1.2305  0.8930 -1.0638
   12MOL   H231 7073   2.806   0.729   2.535 -1.3163  0.4433  0.7665
   12MOL   H232 7074   2.727   0.603   2.645 -0.9371  1.2871 -0.0671
   12MOL   H233 7075   2.660   0.536   2.412  0.2223  1.8628 -1.9377
   12MOL   H234 7076   2.779   0.419   2.478  0.7866 -0.0257 -2.1174
   12MOL   H235 7077   2.851   0.669   2.305  0.3087  0.2466  1.8039
   12MOL   H236 7078   2.953   0.543   2.354  0.3366 -0.2868  1.3740
   12MOL   H237 7079   2.817   0.384   2.208  0.9547  0.3099  2.2426
   12MOL   H238 7080   2.707   0.522   2.181  0.7995  1.2433 -0.9211
   12MOL   H239 7081   2.867   0.485   1.982 -0.2478 -0.7034  0.5082
   12MOL   H240 7082   2.922   0.637   2.074 -2.8269  1.0476  1.2056
   12MOL   H241 7083   3.035   0.347   2.091 -0.1444  0.2648 -1.7931
   12MOL   H242 7084   3.091   0.470   2.189 -0.8069 -0.9214  1.2053
   12MOL   H243 7085   3.114   0.461   1.886 -0.4904 -0.7781  0.2209
   12MOL   H244 7086   3.168   0.599   1.988  0.2485  0.0628  0.9800
   12MOL   H245 7087   3.356   0.463   1.947  0.6960 -2.3629  0.0918
   12MOL   H246 7088   3.287   0.314   1.995  1.3326  0.5729 -1.8354
   12MOL   H247 7089   3.325   0.463   2.107  2.2707  4.1598 -2.5608
   12MOL   H248 7090   3.142   0.769   2.684 -0.3149 -0.4466  1.4851
   12MOL   H249 7091   3.004   0.800   2.580  0.5254  0.6957 -0.2240
   12MOL   C250 7092   3.002   0.911   2.771 -0.2705  0.1650 -0.1704
   12MOL   O251 7093   3.053   1.026   2.701  0.3061  0.3937 -0.2115
   12MOL   C252 7094   2.988   1.063   2.576 -0.1423  0.2739 -0.4248
   12MOL   C253 7095   3.045   1.199   2.523 -0.3758  0.0621 -0.0131
   12MOL   C254 7096   3.065   1.301   2.635  0.4177  0.6990 -0.8207
   12MOL   C255 7097   3.070   1.448   2.581 -0.1516 -0.4157 -0.2615
   12MOL   C256 7098   3.075   1.557   2.686 -0.0727  0.0960 -0.4382
   12MOL   C257 7099   3.184   1.538   2.789  0.4571 -0.2501  0.4756
   12MOL   C258 7100   3.206   1.666   2.874 -0.2822 -0.1044 -0.1927
   12MOL   C259 7101   3.095   1.700   2.970  0.3325 -0.6160 -0.4940
   12MOL   C260 7102   3.067   0.897   2.912  0.1700  0.8826  0.4664
   12MOL   H261 7103   2.895   0.929   2.779 -0.1489  1.3683 -1.0299
   12MOL   H262 7104   2.884   1.085   2.601  0.4589 -1.5241  4.0221
   12MOL   H263 7105   2.979   0.993   2.494  0.7612  1.4054 -1.5226
   12MOL   H264 7106   2.973   1.242   2.454 -0.0214 -0.0585 -0.4588
   12MOL   H265 7107   3.142   1.180   2.477 -1.2808  0.5678 -2.1904
   12MOL   H266 7108   2.979   1.311   2.700  1.5209  1.4515  0.5700
   12MOL   H267 7109   3.150   1.277   2.699  0.9004 -0.6513 -1.9655
   12MOL   H268 7110   3.171   1.465   2.545 -0.7995 -1.0951 -2.4647
   12MOL   H269 7111   2.993   1.478   2.510 -0.2921 -1.0369 -0.3738
   12MOL   H270 7112   3.100   1.649   2.633  1.2981 -0.4851 -0.8144
   12MOL   H271 7113   2.980   1.575   2.735  0.4532 -5.1952  2.9291
   12MOL   H272 7114   3.272   1.499   2.738  0.0464  1.7030 -1.7959
   12MOL   H273 7115   3.160   1.452   2.852  0.0860 -0.2486  0.3358
   12MOL   H274 7116   3.296   1.644   2.932 -0.4321 -1.2779 -0.3806
   12MOL   H275 7117   3.226   1.744   2.802 -0.2132 -0.8881 -1.0309
   12MOL   H276 7118   3.110   1.665   3.073 -0.9044 -0.6979 -0.3381
   12MOL   H277 7119   3.000   1.669   2.927  0.7014 -0.2050 -1.6204
   12MOL   H278 7120   3.095   1.808   2.977  0.9618 -0.5622 -1.2740
   12MOL   H279 7121   3.015   0.814   2.961  0.2002 -0.3321 -1.5105
   12MOL   H280 7122   3.174   0.879   2.901 -0.2215 -1.3043 -0.0060
   12MOL   C281 7123   3.037   1.015   2.996 -0.1056 -0.0445  0.3424
   12MOL   O282 7124   3.122   1.019   3.104 -0.1147 -0.1808  0.1683
   12MOL   C283 7125   3.250   1.073   3.073  0.5240  0.0296  0.1812
   12MOL   C284 7126   3.328   1.095   3.206 -0.5200 -0.7231  0.4178
   12MOL   C285 7127   3.466   1.150   3.172  0.2176 -0.2275 -0.3267
   12MOL   C286 7128   3.563   1.152   3.301  0.5776  0.7259  0.8466
   12MOL   C287 7129   3.700   1.208   3.277  0.1962  0.3943  0.0714
   12MOL   C288 7130   3.817   1.113   3.240  0.1571  0.3460 -0.3372
   12MOL   C289 7131   3.955   1.175   3.206 -0.9137 -0.2490  0.1974
   12MOL   C290 7132   4.030   1.265   3.304 -0.3023  0.0760  0.4276
   12MOL   C291 7133   2.895   1.018   3.057 -0.4029  0.0384  0.1565
   12MOL   H292 7134   3.042   1.102   2.930  2.3852 -1.5366 -1.5150
   12MOL   H293 7135   3.236   1.173   3.032  0.5875 -0.2670 -0.5749
   12MOL   H294 7136   3.309   1.026   2.995 -0.1751  1.3877 -1.1885
   12MOL   H295 7137   3.339   1.000   3.258  1.3886 -1.1615 -0.7833
   12MOL   H296 7138   3.269   1.166   3.265 -0.0112  0.8382 -0.9104
   12MOL   H297 7139   3.510   1.087   3.095 -0.7063  0.7280 -1.6493
   12MOL   H298 7140   3.469   1.248   3.123 -1.4207  0.2182  0.4369
   12MOL   H299 7141   3.501   1.202   3.376 -0.2483 -3.6856  3.2894
   12MOL   H300 7142   3.568   1.046   3.323 -0.7772  0.3532 -0.5466
   12MOL   H301 7143   3.684   1.281   3.199 -0.0026  1.4258  1.0663
   12MOL   H302 7144   3.711   1.266   3.369 -3.3001  0.2926  0.6427
   12MOL   H303 7145   3.766   1.056   3.163 -0.0180  0.7503 -0.5198
   12MOL   H304 7146   3.835   1.034   3.314  0.4830 -0.8883 -1.7052
   12MOL   H305 7147   4.020   1.088   3.194  0.2078  0.6397 -0.2220
   12MOL   H306 7148   3.960   1.235   3.115  2.9638  0.4661  0.7861
   12MOL   H307 7149   3.961   1.306   3.377  0.2307  2.7142 -0.4840
   12MOL   H308 7150   4.055   1.355   3.248 -3.5827  1.5289  1.1853
   12MOL   H309 7151   4.112   1.220   3.359 -1.8061 -1.3079  1.5697
   12MOL   H310 7152   2.822   0.990   2.981 -0.7978 -0.3127  0.6654
   12MOL   H311 7153   2.885   0.935   3.126 -1.7674 -1.2916 -1.5993
   12MOL   C312 7154   2.839   1.150   3.109  0.3184  0.3039  0.5674
   12MOL   O313 7155   2.820   1.240   2.999  0.3013  0.3288 -0.2796
   12MOL   C314 7156   2.688   1.252   2.950  0.0422  0.0330 -0.3202
   12MOL   C315 7157   2.686   1.391   2.885  0.9422  0.3938 -0.0348
   12MOL   C316 7158   2.680   1.500   2.989 -0.6841 -0.4346  0.5756
   12MOL   C317 7159   2.710   1.647   2.927  0.1422  0.3928  0.3960
   12MOL   C318 7160   2.737   1.763   3.020  0.2712  0.1042  0.5775
   12MOL   C319 7161   2.609   1.837   3.075 -0.3827 -0.2944 -0.4355
   12MOL   C320 7162   2.654   1.961   3.126 -0.9946 -0.2563 -0.7165
   12MOL   C321 7163   2.548   2.061   3.195  0.1487  0.0505  0.6162
   12MOL   C322 7164   2.933   1.217   3.202 -0.6726  0.7298 -0.4038
   12MOL   H323 7165   2.748   1.121   3.162  0.8955 -0.9137  0.9099
   12MOL   H324 7166   2.607   1.246   3.023 -0.6109  0.4236 -1.0153
   12MOL   H325 7167   2.658   1.175   2.879  1.2335 -2.1274  1.4254
   12MOL   H326 7168   2.609   1.406   2.808 -0.2794  0.5320  1.1940
   12MOL   H327 7169   2.784   1.401   2.840  2.5783  3.0996  3.9644
   12MOL   H328 7170   2.590   1.496   3.050 -0.0130  1.2978  1.7257
   12MOL   H329 7171   2.762   1.485   3.060  0.1661 -1.7580 -0.6507
   12MOL   H330 7172   2.795   1.639   2.860 -2.2068  1.6958 -2.9012
   12MOL   H331 7173   2.627   1.679   2.864 -1.2670 -0.7787  1.5760
   12MOL   H332 7174   2.801   1.736   3.104  0.0755 -1.2882  0.2916
   12MOL   H333 7175   2.796   1.832   2.959  1.2415 -0.9262  0.3271
   12MOL   H334 7176   2.558   1.779   3.152 -0.4611 -1.8330 -1.6090
   12MOL   H335 7177   2.534   1.849   2.996 -0.9235 -0.7129  0.0114
   12MOL   H336 7178   2.732   1.940   3.199 -0.5690 -1.9547 -1.6376
   12MOL   H337 7179   2.700   2.021   3.047 -0.5785 -0.0951 -0.3534
   12MOL   H338 7180   2.452   2.058   3.144  0.4202 -2.2160  0.1693
   12MOL   H339 7181   2.581   2.165   3.193  2.3043 -0.6165 -1.5551
   12MOL   H340 7182   2.533   2.034   3.299  0.1506  0.0732  0.6220
   12MOL   H341 7183   2.971   1.138   3.266  0.1022  0.0873 -1.6326
   12MOL   H342 7184   3.014   1.258   3.142  0.2661  1.3795  1.2729
   12MOL   C343 7185   2.871   1.330   3.284  0.1338 -0.3680  0.0992
   12MOL   O344 7186   2.973   1.392   3.360 -0.0870  0.5360 -0.2228
   12MOL   C345 7187   3.028   1.497   3.285 -0.6891 -0.3082 -0.1759
   12MOL   C346 7188   3.161   1.542   3.359  0.7672 -0.8623  1.0838
   12MOL   C347 7189   3.298   1.475   3.326 -0.0089  0.3062  0.4283
   12MOL   C348 7190   3.416   1.519   3.413  0.8552  0.3166  0.5914
   12MOL   C349 7191   3.543   1.539   3.336 -0.1023  0.6166 -0.2135
   12MOL   C350 7192   3.667   1.553   3.425  0.1686  0.4713 -0.0657
   12MOL   C351 7193   3.788   1.587   3.336  0.6692 -0.3687 -0.2062
   12MOL   C352 7194   3.906   1.625   3.425  0.0430 -0.5313 -0.1859
   12MOL   C353 7195   2.764   1.307   3.387 -0.1918 -0.0336 -0.8488
   12MOL   H354 7196   2.831   1.406   3.217  2.9553  0.7514 -0.3745
   12MOL   H355 7197   2.952   1.574   3.279 -1.8060 -1.0888  3.0105
   12MOL   H356 7198   3.052   1.458   3.186  1.0165  1.1430 -0.3725
   12MOL   H357 7199   3.153   1.540   3.468  0.3271  2.0407  1.1417
   12MOL   H358 7200   3.173   1.650   3.353 -0.6106 -0.4076  4.8615
   12MOL   H359 7201   3.291   1.367   3.343  1.0744  0.1977  0.2850
   12MOL   H360 7202   3.324   1.499   3.222 -0.7189 -2.0848 -0.3413
   12MOL   H361 7203   3.405   1.618   3.457  0.0272  0.1380  0.7895
   12MOL   H362 7204   3.437   1.446   3.491 -1.2492  1.0181  1.8557
   12MOL   H363 7205   3.563   1.456   3.268  1.2697  0.4773  0.3343
   12MOL   H364 7206   3.530   1.615   3.259 -1.1914 -1.7875 -2.4713
   12MOL   H365 7207   3.673   1.460   3.481  0.4832  3.4815  5.2088
   12MOL   H366 7208   3.641   1.635   3.491  1.5867 -0.3135  1.5375
   12MOL   H367 7209   3.809   1.515   3.257  0.2218  0.2755 -0.9247
   12MOL   H368 7210   3.769   1.686   3.293  0.6958  0.0733  0.7893
   12MOL   H369 7211   3.980   1.691   3.380  0.5354  1.1312  2.8893
   12MOL   H370 7212   3.973   1.548   3.461 -0.9041 -1.9955 -1.5032
   12MOL   H371 7213   3.865   1.686   3.506 -0.5853 -1.9850  0.5992
   12MOL   H372 7214   2.674   1.264   3.343 -0.0331 -0.6200 -0.6054
   12MOL   H373 7215   2.802   1.237   3.462 -2.7214 -1.1670 -0.5657
   12MOL   C374 7216   2.733   1.433   3.468  0.5619  1.0291 -0.3915
   12MOL   O375 7217   2.656   1.381   3.578 -0.1561 -0.0258  0.4376
   12MOL   C376 7218   2.734   1.365   3.695  0.4438 -0.1005 -0.1110
   12MOL   C377 7219   2.630   1.315   3.799 -0.2681 -0.2264  0.0389
   12MOL   C378 7220   2.511   1.420   3.815  0.4045  0.2569 -0.3399
   12MOL   C379 7221   2.405   1.369   3.918 -0.2516 -0.0668  0.4809
   12MOL   C380 7222   2.333   1.237   3.888  0.6170  0.2222  0.5340
   12MOL   C381 7223   2.230   1.194   3.991 -0.3797  0.4173  1.1798
   12MOL   C382 7224   2.167   1.053   3.982  0.2646 -0.1082 -0.6171
   12MOL   C383 7225   2.041   1.036   4.067  0.0264 -0.6459 -0.3589
   12MOL   C384 7226   2.644   1.530   3.379  0.7047 -0.3747  0.4481
   12MOL   H385 7227   2.819   1.494   3.495  0.2600  1.1358  0.3685
   12MOL   H386 7228   2.774   1.462   3.723 -1.6616  0.7043  0.2483
   12MOL   H387 7229   2.811   1.288   3.685 -1.3938 -1.9072 -0.7612
   12MOL   H388 7230   2.672   1.303   3.899 -1.2293 -0.7205  0.3884
   12MOL   H389 7231   2.607   1.216   3.762 -3.4089  1.1441 -1.9377
   12MOL   H390 7232   2.536   1.519   3.853 -1.1788  0.9718 -1.1195
   12MOL   H391 7233   2.452   1.440   3.726 -0.5959 -0.0769  0.2383
   12MOL   H392 7234   2.443   1.368   4.020  0.3237  0.1756  0.2741
   12MOL   H393 7235   2.326   1.444   3.926 -1.1112 -1.1672  2.8174
   12MOL   H394 7236   2.281   1.241   3.793 -0.4944 -0.4401  1.1126
   12MOL   H395 7237   2.401   1.152   3.886  0.2558 -0.0346 -1.5393
   12MOL   H396 7238   2.159   1.276   3.999 -0.4511  0.3402  1.3685
   12MOL   H397 7239   2.279   1.199   4.089 -0.8748 -1.7085  1.5638
   12MOL   H398 7240   2.147   1.035   3.876 -0.0003  1.2863 -0.8086
   12MOL   H399 7241   2.244   0.986   4.020 -0.5107 -0.3175  0.6437
   12MOL   H400 7242   2.004   0.934   4.067 -1.3360 -0.1542 -0.4547
   12MOL   H401 7243   1.965   1.100   4.022  1.2898  0.8095 -0.4885
   12MOL   H402 7244   2.055   1.061   4.172 -0.0755  0.8427 -0.6927
   12MOL   H403 7245   2.706   1.577   3.302 -1.0137  0.9896 -0.1420
   12MOL   H404 7246   2.567   1.475   3.326  1.1357  0.3292 -0.9451
   12MOL   C405 7247   2.572   1.638   3.467  0.5343  0.0424  0.1498
   12MOL   O406 7248   2.471   1.707   3.392  0.0439 -0.2431  0.2006
   12MOL   C407 7249   2.355   1.639   3.356 -0.5285 -0.2866 -0.7623
   12MOL   C408 7250   2.247   1.738   3.313  0.4710  0.2488  0.0890
   12MOL   C409 7251   2.206   1.819   3.442 -0.9125  0.0029 -0.1972
   12MOL   C410 7252   2.059   1.785   3.477  0.6184 -0.0491  0.7939
   12MOL   C411 7253   1.992   1.871   3.594 -0.0890  0.4928 -0.4337
   12MOL   C412 7254   1.963   2.011   3.550 -0.1062  0.3039 -0.3326
   12MOL   C413 7255   1.893   2.108   3.651 -0.6947 -0.1001  0.7436
   12MOL   C414 7256   1.860   2.241   3.595  0.2048  0.0525 -0.6529
   12MOL   C415 7257   2.663   1.752   3.513  0.0930  1.1389 -0.7341
   12MOL   H416 7258   2.527   1.584   3.550  0.1193  0.6021  0.2889
   12MOL   H417 7259   2.319   1.579   3.440 -1.0629  0.5658 -0.3784
   12MOL   H418 7260   2.374   1.567   3.276  0.7070 -0.5010 -0.2899
   12MOL   H419 7261   2.169   1.687   3.256 -0.0544 -0.0389  1.0728
   12MOL   H420 7262   2.286   1.800   3.232  4.5580 -1.9265  0.2579
   12MOL   H421 7263   2.266   1.799   3.530 -0.1802 -0.1370 -0.7274
   12MOL   H422 7264   2.210   1.924   3.413 -1.2095 -0.3787 -1.6451
   12MOL   H423 7265   1.995   1.789   3.389 -1.5213  1.8779  2.3709
   12MOL   H424 7266   2.049   1.679   3.501 -2.6148 -0.1764 -0.8531
   12MOL   H425 7267   1.895   1.823   3.609  0.6119 -0.6216  0.5561
   12MOL   H426 7268   2.047   1.855   3.686  0.4311  3.4421 -0.1883
   12MOL   H427 7269   1.901   1.999   3.462  0.6371  2.4943 -1.1833
   12MOL   H428 7270   2.060   2.051   3.520  0.9241 -0.9166  1.2632
   12MOL   H429 7271   1.807   2.060   3.697 -0.7673  0.6168  1.3789
   12MOL   H430 7272   1.974   2.115   3.724 -0.2243  0.9995  0.1272
   12MOL   H431 7273   1.793   2.301   3.656  0.5190  0.3986 -0.6447
   12MOL   H432 7274   1.813   2.236   3.497  0.3809 -2.8027 -0.6191
   12MOL   H433 7275   1.952   2.298   3.579 -0.5027  1.2276 -0.5512
   12MOL   H434 7276   2.744   1.695   3.559 -0.5801 -0.2133 -1.2030
   12MOL   H435 7277   2.702   1.807   3.427  2.2510 -0.8416 -1.0687
   12MOL   C436 7278   2.596   1.853   3.615 -0.7151  0.0570  0.0002
   12MOL   O437 7279   2.690   1.944   3.659  0.5369 -0.2255 -0.3699
   12MOL   C438 7280   2.654   2.071   3.621  0.1011  0.2938  0.3433
   12MOL   C439 7281   2.765   2.165   3.660  0.1777 -0.4425  0.3251
   12MOL   C440 7282   2.832   2.143   3.803 -0.0485  0.0155  0.0493
   12MOL   C441 7283   2.955   2.234   3.821  0.0231  0.3559 -0.1166
   12MOL   C442 7284   3.032   2.211   3.956  0.1718 -0.7677 -0.6475
   12MOL   C443 7285   2.960   2.259   4.087 -0.9802 -0.4617  0.0867
   12MOL   C444 7286   3.056   2.241   4.200  0.6992  0.0096 -0.2150
   12MOL   C445 7287   3.151   2.364   4.229  0.8948  0.3541 -0.2135
   12MOL   C446 7288   2.558   1.783   3.748 -0.1069 -0.6061 -0.8214
   12MOL   H447 7289   2.517   1.893   3.552 -1.0661 -0.3992  0.1521
   12MOL   H448 7290   2.629   2.085   3.516 -1.2886  1.2833  0.7969
   12MOL   H449 7291   2.562   2.086   3.677  0.1341  0.6908  0.2881
   12MOL   H450 7292   2.738   2.270   3.648  0.4119 -0.3286  0.8200
   12MOL   H451 7293   2.829   2.142   3.575 -0.2312  1.5799 -0.5728
   12MOL   H452 7294   2.753   2.168   3.873 -0.4487 -1.3074  0.0801
   12MOL   H453 7295   2.865   2.040   3.810 -0.9071 -0.3187 -0.7410
   12MOL   H454 7296   3.020   2.194   3.743  0.7456  0.3800  0.4574
   12MOL   H455 7297   2.918   2.336   3.815 -0.9257  0.1368  1.6668
   12MOL   H456 7298   3.047   2.103   3.961 -0.7356 -0.8682  0.0264
   12MOL   H457 7299   3.126   2.265   3.951  0.0723 -0.2453  2.1559
   12MOL   H458 7300   2.875   2.190   4.091 -0.2694 -1.3463  0.1066
   12MOL   H459 7301   2.917   2.358   4.070 -1.9035 -0.4615  2.2757
   12MOL   H460 7302   3.001   2.232   4.294 -1.4403 -0.4168 -1.4781
   12MOL   H461 7303   3.097   2.140   4.191 -0.1696 -0.4516  0.8647
   12MOL   H462 7304   3.190   2.359   4.331  2.9244  0.5906 -0.9516
   12MOL   H463 7305   3.092   2.455   4.217  0.6928  0.0509 -1.5667
   12MOL   H464 7306   3.233   2.359   4.158  0.7336 -2.2749 -0.2504
   12MOL   H465 7307   2.479   1.710   3.731 -0.9211 -0.3418  1.6918
   12MOL   H466 7308   2.647   1.729   3.781  0.7207  0.8813 -0.5845
   12MOL   C467 7309   2.497   1.875   3.863  0.1248 -0.3235 -0.5864
   12MOL   O468 7310   2.521   1.804   3.989  0.2042 -0.2776  0.8455
   12MOL   C469 7311   2.645   1.839   4.045 -0.7631  0.0088 -0.0072
   12MOL   C470 7312   2.654   1.972   4.118 -0.4873 -0.8857 -0.7561
   12MOL   C471 7313   2.573   1.975   4.257 -0.8678  0.2582  0.1658
   12MOL   C472 7314   2.600   2.118   4.322  0.2296  0.2939  0.1731
   12MOL   C473 7315   2.540   2.126   4.455 -0.3904  0.6931  0.3484
   12MOL   C474 7316   2.604   2.027   4.557 -0.6334 -0.3551 -0.3740
   12MOL   C475 7317   2.527   2.017   4.695  0.1298 -0.1886  0.1108
   12MOL   C476 7318   2.526   2.135   4.787  0.7015  0.0039 -0.0058
   12MOL   C477 7319   2.351   1.909   3.857 -0.5943  0.5010  0.0640
   12MOL   H478 7320   2.549   1.971   3.860 -0.7964  0.2606  1.2197
   12MOL   H479 7321   2.720   1.846   3.966  1.5835 -0.2800  2.1296
   12MOL   H480 7322   2.680   1.755   4.105 -2.2365 -0.7483 -0.1689
   12MOL   H481 7323   2.626   2.051   4.049  2.9500 -0.6475 -1.9452
   12MOL   H482 7324   2.760   1.981   4.140 -0.6947  0.7674 -0.3623
   12MOL   H483 7325   2.473   1.935   4.244 -0.4115 -0.1456 -2.4424
   12MOL   H484 7326   2.626   1.900   4.315 -1.6632 -1.8192 -1.7224
   12MOL   H485 7327   2.708   2.132   4.331 -0.0594  2.6855  0.3548
   12MOL   H486 7328   2.565   2.199   4.257  0.3824  1.1088  1.0897
   12MOL   H487 7329   2.554   2.227   4.494  2.1258  0.7896 -0.7065
   12MOL   H488 7330   2.431   2.119   4.449 -0.5382  1.0339  2.3645
   12MOL   H489 7331   2.708   2.057   4.566 -0.3143 -0.5423 -3.1241
   12MOL   H490 7332   2.605   1.925   4.520 -1.6039 -1.0007  1.3011
   12MOL   H491 7333   2.429   1.971   4.683 -0.0976 -0.0422  1.2981
   12MOL   H492 7334   2.582   1.940   4.750  0.8280  0.6596  0.6186
   12MOL   H493 7335   2.618   2.178   4.826 -0.6315  2.4369  0.5381
   12MOL   H494 7336   2.460   2.123   4.873 -1.0409 -1.1651 -1.4700
   12MOL   H495 7337   2.476   2.216   4.735  0.4579 -0.1092  0.0511
   12MOL   H496 7338   2.312   1.914   3.755  1.5984  0.5093 -0.8129
   12MOL   H497 7339   2.310   1.817   3.898  2.6982 -0.6826  0.8407
   12MOL   C498 7340   2.300   2.028   3.945  0.2636  0.3145 -0.1391
   12MOL   O499 7341   2.157   2.003   3.949 -0.0309  0.1756  0.0799
   12MOL   C500 7342   2.123   1.945   4.074 -0.0071 -0.1547  0.2790
   12MOL   C501 7343   2.003   1.854   4.058 -0.1040  0.6609 -0.4325
   12MOL   C502 7344   1.869   1.916   4.019  0.4795 -0.1997 -0.5417
   12MOL   C503 7345   1.756   1.812   4.008 -0.2235 -0.2656  0.0148
   12MOL   C504 7346   1.792   1.724   3.894 -0.3621  0.0599 -0.0942
   12MOL   C505 7347   1.835   1.583   3.953 -0.6260 -0.2319  0.1446
   12MOL   C506 7348   1.864   1.479   3.832  0.3610  0.1028  0.1374
   12MOL   C507 7349   1.885   1.339   3.889  0.3630  0.8486  0.2658
   12MOL   C508 7350   2.323   2.172   3.881 -0.1777  0.8666 -0.4408
   12MOL   H509 7351   2.360   2.022   4.036  0.5724  0.9430 -0.3000
   12MOL   H510 7352   2.105   2.021   4.149  0.1271  0.4418 -0.2930
   12MOL   H511 7353   2.201   1.879   4.113  1.0895  0.9331 -0.0443
   12MOL   H512 7354   1.985   1.800   4.151 -0.8921 -0.1552 -1.0484
   12MOL   H513 7355   2.042   1.790   3.978  0.9208  0.8766 -0.1198
   12MOL   H514 7356   1.844   1.989   4.097  0.8132 -0.5794 -0.0750
   12MOL   H515 7357   1.884   1.974   3.928  0.8173  0.4916 -0.0525
   12MOL   H516 7358   1.740   1.774   4.109  0.3582 -1.1909 -0.2367
   12MOL   H517 7359   1.668   1.870   3.978  0.4982  0.9226  0.1740
   12MOL   H518 7360   1.701   1.711   3.835 -1.2020 -0.5248  1.3089
   12MOL   H519 7361   1.864   1.776   3.831 -0.2913 -1.1409 -1.0123
   12MOL   H520 7362   1.755   1.553   4.021  0.7929 -1.6498  1.2251
   12MOL   H521 7363   1.913   1.599   4.027 -0.7716 -1.1077  0.4901
   12MOL   H522 7364   1.782   1.476   3.760  1.6202  2.2406 -1.4194
   12MOL   H523 7365   1.950   1.511   3.774 -0.9848 -0.9594 -2.5216
   12MOL   H524 7366   1.959   1.315   3.965 -0.0209  1.1090  0.7234
   12MOL   H525 7367   1.907   1.274   3.804  0.0848 -0.0228  0.8573
   12MOL   H526 7368   1.793   1.302   3.933  0.7836 -0.7817 -0.1788
   12MOL   H527 7369   2.427   2.196   3.859  0.0280 -0.4665 -0.9393
   12MOL   H528 7370   2.277   2.183   3.783 -1.3547  1.4414  0.1671
   12MOL   C529 7371   2.265   2.277   3.980  0.1046  0.0832  0.6154
   12MOL   O530 7372   2.270   2.387   3.888 -0.2687 -0.5598  0.3775
   12MOL   C531 7373   2.146   2.457   3.860  0.3386  0.0065 -0.7229
   12MOL   C532 7374   2.162   2.585   3.770 -0.1115  0.0892  0.6541
   12MOL   C533 7375   2.034   2.622   3.687 -0.3676  0.4084 -0.1740
   12MOL   C534 7376   2.056   2.742   3.592 -0.1726  0.1485  0.4152
   12MOL   C535 7377   1.923   2.808   3.556  0.7992  0.0939 -0.0017
   12MOL   C536 7378   1.932   2.924   3.452  0.3731  0.5631  0.6451
   12MOL   C537 7379   1.796   2.955   3.392  0.4585 -0.4509  1.1733
   12MOL   C538 7380   1.793   3.058   3.281 -0.2942 -0.1986 -0.4217
   12MOL   C539 7381   2.352   2.292   4.103 -0.1122  0.4368  0.1903
   12MOL   H540 7382   2.162   2.247   3.996  0.4707 -1.7192 -0.2144
   12MOL   H541 7383   2.108   2.380   3.793  3.4866  0.6344 -3.3754
   12MOL   H542 7384   2.090   2.473   3.952 -0.8015 -0.7074 -1.2906
   12MOL   H543 7385   2.242   2.568   3.698  0.2524  0.2405  1.0181
   12MOL   H544 7386   2.181   2.671   3.834 -2.2874  0.1560  1.2447
   12MOL   H545 7387   1.998   2.536   3.632 -2.5541  0.7714  0.6034
   12MOL   H546 7388   1.953   2.650   3.755 -0.1837  1.5135 -0.3998
   12MOL   H547 7389   2.130   2.814   3.625  2.0073 -1.8010 -0.0485
   12MOL   H548 7390   2.108   2.689   3.512 -2.2716 -2.0900  0.4837
   12MOL   H549 7391   1.856   2.733   3.514 -0.9632  1.6349 -0.0418
   12MOL   H550 7392   1.875   2.845   3.647 -3.1808  1.2947 -2.4381
   12MOL   H551 7393   2.009   2.903   3.379  0.5413  3.2532  0.0098
   12MOL   H552 7394   1.986   3.006   3.500 -0.1425  1.9409 -1.0885
   12MOL   H553 7395   1.748   2.868   3.347 -1.1531 -0.1657  2.2650
   12MOL   H554 7396   1.724   2.976   3.472 -1.1288  0.7297 -0.5167
   12MOL   H555 7397   1.839   3.015   3.191 -1.3526  1.3922 -1.7473
   12MOL   H556 7398   1.842   3.149   3.315 -0.2656  0.1015 -1.2384
   12MOL   H557 7399   1.691   3.080   3.249 -0.0479 -0.2940 -1.2974
   12MOL   H558 7400   2.351   2.197   4.156 -0.3923  1.4879  2.1031
   12MOL   H559 7401   2.458   2.298   4.076 -0.0514 -2.0918 -0.2354
   12MOL   C560 7402   2.319   2.402   4.205  0.3227 -0.0596 -0.6757
   12MOL   O561 7403   2.184   2.419   4.252 -0.4798 -0.1492 -0.0181
   12MOL   C562 7404   2.133   2.310   4.330 -0.1242 -0.1107  0.8656
   12MOL   C563 7405   1.983   2.316   4.319 -0.9032  0.0680  0.2098
   12MOL   C564 7406   1.924   2.286   4.183 -0.7231  0.4299 -0.0434
   12MOL   C565 7407   1.775   2.314   4.166 -0.4196 -0.5100 -0.2695
   12MOL   C566 7408   1.727   2.303   4.029  0.1880  0.4033  0.4153
   12MOL   C567 7409   1.567   2.311   4.016 -0.0462  0.7517  0.1519
   12MOL   C568 7410   1.528   2.285   3.873  0.5425  0.1727 -0.1070
   12MOL   C569 7411   1.381   2.313   3.836 -0.4924 -0.3429  0.0185
   12MOL   C570 7412   2.353   2.534   4.147 -0.7575 -0.8216 -0.4240
   12MOL   H571 7413   2.386   2.376   4.287 -0.6431  0.7752  0.3971
   12MOL   H572 7414   2.151   2.324   4.437  1.4542  3.4367  0.2023
   12MOL   H573 7415   2.175   2.212   4.305 -1.5729 -0.4557 -0.2896
   12MOL   H574 7416   1.959   2.418   4.348 -0.5573  1.0406 -2.7064
   12MOL   H575 7417   1.945   2.249   4.395  0.3928  0.3778  1.1565
   12MOL   H576 7418   1.976   2.349   4.111 -0.1396 -0.3457 -0.3092
   12MOL   H577 7419   1.943   2.184   4.150 -2.0516  0.2056 -0.1563
   12MOL   H578 7420   1.734   2.226   4.217  1.8021 -0.5865  1.4765
   12MOL   H579 7421   1.743   2.408   4.211  2.2041  0.5326 -0.5182
   12MOL   H580 7422   1.768   2.382   3.966 -2.2337  0.9598 -0.5296
   12MOL   H581 7423   1.764   2.208   3.990 -0.0325  0.3479  0.3383
   12MOL   H582 7424   1.534   2.414   4.019 -1.4891  0.3779 -1.7592
   12MOL   H583 7425   1.515   2.246   4.086  1.1849  0.7797  1.1069
   12MOL   H584 7426   1.593   2.349   3.812  0.9479 -0.3254 -0.2005
   12MOL   H585 7427   1.538   2.184   3.833 -1.1790  0.6290 -1.8137
   12MOL   H586 7428   1.344   2.408   3.874 -0.5967 -0.4218  0.1152
   12MOL   H587 7429   1.318   2.233   3.875 -0.9315 -0.5304 -1.0725
   12MOL   H588 7430   1.360   2.310   3.729  0.5461  0.2130 -0.2078
   12MOL   H589 7431   2.451   2.521   4.099  0.0084 -1.9832  1.4121
   12MOL   H590 7432   2.286   2.558   4.065  0.5892  0.6326 -1.1520
   12MOL   C591 7433   2.353   2.641   4.258  0.0574  0.2921  0.0086
   12MOL   O592 7434   2.380   2.769   4.208  0.4287 -0.2146 -0.3208
   12MOL   C593 7435   2.275   2.828   4.135 -0.6118  0.6271  0.2268
   12MOL   C594 7436   2.295   2.966   4.101 -0.2976  0.8083 -0.5615
   12MOL   C595 7437   2.178   3.028   4.032  0.8909 -0.1655 -0.4423
   12MOL   C596 7438   2.132   2.964   3.899 -0.3701 -0.1923  0.8638
   12MOL   C597 7439   2.031   3.058   3.832 -0.2715  0.4130  0.9527
   12MOL   C598 7440   1.890   3.063   3.885  0.5717 -0.3927  0.3418
   12MOL   C599 7441   1.795   3.137   3.786 -0.1373 -1.4226 -0.0945
   12MOL   C600 7442   1.658   3.168   3.849 -0.3363  0.3262 -0.0247
   12MOL   C601 7443   2.460   2.627   4.371 -0.8462  0.4061 -0.2795
   12MOL   H602 7444   2.258   2.639   4.311 -0.9695 -1.1807 -1.8489
   12MOL   H603 7445   2.193   2.817   4.207  0.9607  1.0759  2.1256
   12MOL   H604 7446   2.255   2.767   4.047  0.3956  0.3003  0.2213
   12MOL   H605 7447   2.392   2.977   4.052  0.5150  0.6011  0.9858
   12MOL   H606 7448   2.300   3.033   4.186 -1.2879 -0.7171  0.7246
   12MOL   H607 7449   2.095   3.025   4.103  2.1571 -0.9253  1.0418
   12MOL   H608 7450   2.195   3.134   4.015 -1.8132  0.5212  0.8081
   12MOL   H609 7451   2.226   2.945   3.848 -0.4073  0.2786  0.6109
   12MOL   H610 7452   2.094   2.863   3.913  0.8401 -0.8386 -0.3605
   12MOL   H611 7453   2.069   3.157   3.807  0.4554 -0.5124 -1.8065
   12MOL   H612 7454   2.010   3.023   3.731 -0.6954  1.8973  0.5116
   12MOL   H613 7455   1.880   3.122   3.976  0.6249  0.7254 -0.3612
   12MOL   H614 7456   1.850   2.966   3.914  1.9061 -1.2689 -0.6940
   12MOL   H615 7457   1.846   3.231   3.767 -2.2723  1.0004  5.3308
   12MOL   H616 7458   1.765   3.076   3.700  0.3220  1.6243 -2.5027
   12MOL   H617 7459   1.667   3.205   3.951 -0.0996 -1.4748  0.6245
   12MOL   H618 7460   1.592   3.083   3.861  0.8915 -0.3500  2.2340
   12MOL   H619 7461   1.594   3.245   3.805 -2.3798 -1.9597 -1.2011
   12MOL   H620 7462   2.561   2.634   4.330 -0.7994  0.5093 -0.1483
   12MOL   H621 7463   2.446   2.702   4.449  0.9911  0.1605  0.3142
   12MOL   H622 7464   2.441   2.536   4.427  0.5094  1.3396  1.7497
   13MOL     C1 7465   3.785   3.732   3.622  0.0265 -0.6861 -0.2613
   13MOL     O2 7466   3.895   3.820   3.596  0.3348 -0.0778  0.0660
   13MOL     C3 7467   3.886   3.945   3.651  0.1262 -0.2360 -0.0901
   13MOL     C4 7468   4.012   4.013   3.609  0.5959  0.2009 -0.4291
   13MOL     C5 7469   4.030   4.160   3.654 -0.4045 -0.3199 -0.1223
   13MOL     C6 7470   4.153   4.225   3.591 -0.3663 -0.2637 -0.7313
   13MOL     C7 7471   4.148   4.383   3.603 -0.4028 -0.0977  1.0939
   13MOL     C8 7472   4.277   4.456   3.558 -0.4395  0.0469 -0.9650
   13MOL     C9 7473   4.394   4.425   3.646 -0.4816 -1.0313  0.3533
   13MOL    C10 7474   4.518   4.515   3.618 -0.8442 -0.2422  0.0740
   13MOL    C11 7475   3.811   3.586   3.586  0.8859 -0.6736  0.0796
   13MOL    H12 7476   3.750   3.743   3.725 -0.1325  1.5368 -0.5333
   13MOL    H13 7477   3.887   3.945   3.760  1.0948  1.5394 -0.0787
   13MOL    H14 7478   3.798   4.002   3.621 -0.3798 -0.7053  0.4920
   13MOL    H15 7479   4.018   4.016   3.500 -1.8523 -0.9644 -0.6304
   13MOL    H16 7480   4.109   3.974   3.641  1.2326  0.6678 -1.7324
   13MOL    H17 7481   3.932   4.202   3.632  0.0687  1.3215  0.8305
   13MOL    H18 7482   4.038   4.157   3.763 -3.8471 -1.4203  0.1818
   13MOL    H19 7483   4.234   4.180   3.649 -0.8619 -0.9703 -0.5826
   13MOL    H20 7484   4.164   4.201   3.485  0.3487  1.0003 -0.9583
   13MOL    H21 7485   4.062   4.423   3.548  0.8464  0.1791 -0.6861
   13MOL    H22 7486   4.107   4.409   3.700 -2.3636 -2.5433  0.9863
   13MOL    H23 7487   4.263   4.564   3.556 -0.8750  0.0301  0.3225
   13MOL    H24 7488   4.300   4.422   3.458 -1.2191 -0.3818 -1.0076
   13MOL    H25 7489   4.371   4.453   3.749  1.0354  2.8792 -0.2828
   13MOL    H26 7490   4.417   4.319   3.639  1.6164 -0.5455 -0.6708
   13MOL    H27 7491   4.552   4.505   3.515 -0.3206  0.5742  0.1614
   13MOL    H28 7492   4.604   4.496   3.683 -2.5908  0.0875  2.5654
   13MOL    H29 7493   4.490   4.619   3.635 -0.7794 -0.4091  1.3062
   13MOL    H30 7494   3.811   3.580   3.477 -0.4084  0.9398 -0.0163
   13MOL    H31 7495   3.912   3.547   3.604  0.6951 -1.3601 -0.2911
   13MOL    H32 7496   3.702   3.776   3.566  0.6672 -0.0637 -0.7267
   13MOL    C33 7497   3.710   3.476   3.645 -0.5302 -0.3621  0.3405
   13MOL    O34 7498   3.574   3.515   3.606 -0.1648 -0.3249  0.1095
   13MOL    C35 7499   3.555   3.528   3.471  0.2543 -0.6672 -0.2237
   13MOL    C36 7500   3.407   3.541   3.442 -0.6618 -0.1062  0.1772
   13MOL    C37 7501   3.373   3.586   3.299  0.5872 -0.7223  1.1609
   13MOL    C38 7502   3.221   3.573   3.265  0.5374 -0.5777 -0.1044
   13MOL    C39 7503   3.165   3.605   3.126 -0.0566 -0.4489  0.5708
   13MOL    C40 7504   3.015   3.630   3.117  0.3579  0.7100 -0.5921
   13MOL    C41 7505   2.977   3.719   3.000  0.0885 -0.0116  0.0331
   13MOL    C42 7506   2.825   3.747   2.991  0.1565 -0.1862  0.0598
   13MOL    C43 7507   3.706   3.474   3.802 -0.0261 -0.3779 -0.2212
   13MOL    H44 7508   3.730   3.375   3.611 -2.6336 -0.4310 -0.8293
   13MOL    H45 7509   3.591   3.433   3.430  1.4195 -0.5406  0.4833
   13MOL    H46 7510   3.611   3.606   3.418  1.0335  0.3398  2.0230
   13MOL    H47 7511   3.358   3.598   3.521  0.0908  1.4295 -0.4420
   13MOL    H48 7512   3.360   3.444   3.456  2.1891 -1.4854  0.4706
   13MOL    H49 7513   3.405   3.689   3.284 -1.2648 -0.2277  0.4358
   13MOL    H50 7514   3.431   3.522   3.233  0.5366 -0.3630  0.7630
   13MOL    H51 7515   3.191   3.472   3.290 -0.7648  0.3950  2.4122
   13MOL    H52 7516   3.171   3.639   3.335  0.0143 -1.7091  0.6015
   13MOL    H53 7517   3.220   3.690   3.087 -2.3039 -0.5858 -3.1601
   13MOL    H54 7518   3.190   3.538   3.043  0.3695  0.6640 -0.2158
   13MOL    H55 7519   2.970   3.660   3.212  1.2122 -0.3152  0.1487
   13MOL    H56 7520   2.972   3.530   3.110 -0.0652  0.6609  2.0872
   13MOL    H57 7521   3.025   3.814   3.022  0.3070 -0.1407  0.1094
   13MOL    H58 7522   3.014   3.686   2.903 -0.2123  2.3962 -0.9335
   13MOL    H59 7523   2.783   3.647   2.979  1.4829 -0.6146 -1.2524
   13MOL    H60 7524   2.787   3.792   2.899 -1.7863 -1.6283  0.1278
   13MOL    H61 7525   2.787   3.799   3.078 -0.4577 -0.3360 -0.1123
   13MOL    H62 7526   3.694   3.577   3.837 -1.3530 -0.4021 -0.5755
   13MOL    H63 7527   3.619   3.417   3.834 -0.6341 -0.6081 -2.2701
   13MOL    C64 7528   3.838   3.418   3.871  0.2429 -0.6665 -0.2591
   13MOL    O65 7529   3.804   3.281   3.886  0.7994  0.4127  0.2857
   13MOL    C66 7530   3.924   3.204   3.876 -0.1980  0.1981 -0.0290
   13MOL    C67 7531   3.895   3.062   3.891  1.4436 -0.2904  0.1675
   13MOL    C68 7532   3.807   3.033   4.021  0.0579  0.1038 -0.3127
   13MOL    C69 7533   3.768   2.886   4.039 -0.3308 -0.1443 -0.6646
   13MOL    C70 7534   3.659   2.832   3.947  0.3952  0.0737 -0.0119
   13MOL    C71 7535   3.545   2.921   3.913 -0.1581 -0.4240  0.1097
   13MOL    C72 7536   3.451   2.966   4.028  1.0111 -0.8376 -0.0088
   13MOL    C73 7537   3.334   3.061   3.986 -0.0307 -0.5275  0.3439
   13MOL    C74 7538   3.873   3.473   4.009  0.9803 -0.1667 -0.0275
   13MOL    H75 7539   3.921   3.438   3.804 -0.7516 -0.0361 -1.3368
   13MOL    H76 7540   4.007   3.241   3.937  0.3163 -0.2447 -0.4526
   13MOL    H77 7541   3.969   3.217   3.777 -0.6660  0.8846 -0.1585
   13MOL    H78 7542   3.977   2.993   3.909  1.0914 -1.1759 -1.5524
   13MOL    H79 7543   3.847   3.033   3.798  0.2107  1.9567  0.0728
   13MOL    H80 7544   3.863   3.059   4.111 -2.6039  0.6555  1.2498
   13MOL    H81 7545   3.718   3.095   4.013 -0.3068 -0.6889 -2.9794
   13MOL    H82 7546   3.853   2.818   4.036 -0.1799 -0.0048  0.5087
   13MOL    H83 7547   3.724   2.879   4.138  0.9594  1.2725  0.0224
   13MOL    H84 7548   3.707   2.812   3.851  0.9140  1.2303 -0.0027
   13MOL    H85 7549   3.622   2.736   3.984 -1.1005 -0.0654 -1.8501
   13MOL    H86 7550   3.483   2.862   3.845 -0.2662 -0.0238 -0.1394
   13MOL    H87 7551   3.587   3.011   3.868 -1.1504  2.2827  4.2714
   13MOL    H88 7552   3.415   2.872   4.069 -0.7945 -0.3964 -0.5581
   13MOL    H89 7553   3.500   3.017   4.111  0.0887 -0.5153  0.3437
   13MOL    H90 7554   3.296   3.046   3.886 -1.1449  2.6932  0.2169
   13MOL    H91 7555   3.363   3.165   3.973  2.2401 -1.3279 -1.2889
   13MOL    H92 7556   3.250   3.070   4.055  0.2444 -1.0258  0.7485
   13MOL    H93 7557   3.784   3.508   4.061  0.4026 -1.1690 -0.3281
   13MOL    H94 7558   3.915   3.403   4.081 -1.4353 -0.0944  1.5076
   13MOL    C95 7559   3.958   3.606   3.990 -0.0173  0.3130 -0.4691
   13MOL    O96 7560   4.080   3.562   3.926  0.3399  0.0766  0.1585
   13MOL    C97 7561   4.146   3.661   3.848  0.1427  0.1326 -0.2686
   13MOL    C98 7562   4.252   3.587   3.757 -0.3060 -0.0320 -0.3862
   13MOL    C99 7563   4.201   3.484   3.656 -0.2850  0.0584 -0.5270
   13MOL   C100 7564   4.306   3.410   3.572  0.0449  0.6712 -0.2272
   13MOL   C101 7565   4.244   3.320   3.459 -0.2517 -0.4984  0.4222
   13MOL   C102 7566   4.334   3.317   3.336 -0.0241 -0.0235 -0.2703
   13MOL   C103 7567   4.469   3.258   3.364 -0.2155 -0.0952  0.0230
   13MOL   C104 7568   4.562   3.258   3.237  0.2038  0.3632  0.4508
   13MOL   C105 7569   3.995   3.670   4.128  0.7795 -0.1206 -0.4121
   13MOL   H106 7570   3.910   3.687   3.934  1.1211  2.8804  2.1587
   13MOL   H107 7571   4.185   3.737   3.915 -0.9346 -0.2069  0.7687
   13MOL   H108 7572   4.074   3.711   3.783  3.0874  1.3474 -2.6981
   13MOL   H109 7573   4.317   3.536   3.828 -1.3531 -0.5491  0.2168
   13MOL   H110 7574   4.307   3.668   3.710  0.6330  0.4376  1.4939
   13MOL   H111 7575   4.138   3.410   3.705  0.9040  0.0743  1.0263
   13MOL   H112 7576   4.135   3.535   3.586 -0.2490 -1.3147 -1.5847
   13MOL   H113 7577   4.380   3.479   3.530  1.0203  0.8604  1.7403
   13MOL   H114 7578   4.358   3.338   3.635 -0.2039  0.8281  0.1617
   13MOL   H115 7579   4.214   3.222   3.494 -0.9947 -0.7589 -0.9197
   13MOL   H116 7580   4.153   3.365   3.420  0.3091 -0.0333 -0.3518
   13MOL   H117 7581   4.335   3.410   3.279  0.5494 -0.5191 -1.0884
   13MOL   H118 7582   4.279   3.257   3.263 -0.3074  3.1456 -2.7781
   13MOL   H119 7583   4.522   3.326   3.432  0.5623 -2.4893  1.9125
   13MOL   H120 7584   4.456   3.159   3.408 -0.0199  0.0623  0.4469
   13MOL   H121 7585   4.534   3.188   3.159 -1.0249 -0.0620  1.2472
   13MOL   H122 7586   4.665   3.226   3.249  0.1048 -0.1810 -0.1083
   13MOL   H123 7587   4.571   3.360   3.202 -0.3509  0.3999  0.4015
   13MOL   H124 7588   3.926   3.635   4.205  2.2642 -4.3609 -0.8710
   13MOL   H125 7589   4.079   3.624   4.178  0.2239 -0.7130 -0.0177
   13MOL   C126 7590   3.988   3.818   4.139 -0.5761 -0.7109  0.0180
   13MOL   O127 7591   4.127   3.858   4.128 -0.1067  0.2815 -0.0824
   13MOL   C128 7592   4.122   3.996   4.071 -0.6070 -0.0051 -0.5887
   13MOL   C129 7593   4.266   4.028   4.031 -0.1392  0.5662 -0.1321
   13MOL   C130 7594   4.298   4.172   3.978 -0.3960 -0.5096  0.3483
   13MOL   C131 7595   4.434   4.179   3.911  0.0435 -0.2487 -0.7587
   13MOL   C132 7596   4.551   4.191   4.010 -0.5081  0.6540  0.0229
   13MOL   C133 7597   4.689   4.208   3.932  0.0063 -0.1831 -0.1994
   13MOL   C134 7598   4.813   4.224   4.026 -0.5130 -0.2511 -0.0312
   13MOL   C135 7599   4.938   4.290   3.958 -0.2937 -0.2329 -0.0542
   13MOL   C136 7600   3.912   3.877   4.263  0.2825  0.1440  0.1061
   13MOL   H137 7601   3.932   3.855   4.053 -0.1741  1.0314  0.4931
   13MOL   H138 7602   4.075   4.065   4.141  1.0287  0.3980  0.1188
   13MOL   H139 7603   4.064   4.001   3.978 -2.4785  2.6855  0.6708
   13MOL   H140 7604   4.294   3.955   3.955 -1.3323  3.7905 -3.8522
   13MOL   H141 7605   4.324   4.012   4.122  1.0696  0.8853 -0.8345
   13MOL   H142 7606   4.229   4.219   3.908 -0.6762 -0.8721  0.3777
   13MOL   H143 7607   4.302   4.246   4.058  2.5345 -0.2736  0.0084
   13MOL   H144 7608   4.462   4.097   3.845  0.8265  0.2830 -1.1007
   13MOL   H145 7609   4.443   4.267   3.848  0.3483  0.9838  0.9733
   13MOL   H146 7610   4.536   4.274   4.080  1.9309  0.3537  0.9362
   13MOL   H147 7611   4.556   4.109   4.081  1.9158  1.3329  0.6827
   13MOL   H148 7612   4.696   4.295   3.866 -2.6241 -0.7913 -1.3596
   13MOL   H149 7613   4.702   4.122   3.866 -0.1838 -0.9892  0.8040
   13MOL   H150 7614   4.796   4.289   4.112  0.1501 -0.8163  0.5310
   13MOL   H151 7615   4.839   4.122   4.054  0.5775  0.0533  0.0768
   13MOL   H152 7616   4.966   4.230   3.872 -0.4243 -1.6974  0.9005
   13MOL   H153 7617   5.021   4.301   4.028 -0.9457 -0.9655  0.8549
   13MOL   H154 7618   4.913   4.390   3.925 -0.2416 -0.8109 -1.8816
   13MOL   H155 7619   3.969   3.828   4.341  0.3842  0.3035  0.1329
   13MOL   H156 7620   3.921   3.982   4.293 -1.0882  0.1557  0.5300
   13MOL   C157 7621   3.762   3.847   4.282 -0.4118  0.3800  0.1492
   13MOL   O158 7622   3.695   3.914   4.179 -0.0974  0.3380 -0.2609
   13MOL   C159 7623   3.592   3.837   4.109  0.1053 -0.5317 -0.4141
   13MOL   C160 7624   3.514   3.946   4.028  0.2592  0.3414 -0.2779
   13MOL   C161 7625   3.407   3.878   3.941 -0.1382 -0.1162 -0.3497
   13MOL   C162 7626   3.342   3.976   3.844  0.1961  0.5900  0.0357
   13MOL   C163 7627   3.218   3.911   3.774  0.3757  0.0579  0.9758
   13MOL   C164 7628   3.111   3.862   3.867 -0.2071 -0.4227  0.0736
   13MOL   C165 7629   3.036   3.980   3.937 -0.2631 -0.3006  0.4535
   13MOL   C166 7630   2.917   3.935   4.022 -0.1735 -1.0493 -0.7069
   13MOL   C167 7631   3.697   3.904   4.412  0.1489  0.5486  0.4570
   13MOL   H168 7632   3.747   3.739   4.280  0.3698  0.2736 -1.7947
   13MOL   H169 7633   3.525   3.790   4.182 -1.3607  2.3282  0.1332
   13MOL   H170 7634   3.631   3.758   4.045  1.1821  1.1179 -1.8197
   13MOL   H171 7635   3.581   4.006   3.968  0.0218 -1.2215 -2.1510
   13MOL   H172 7636   3.456   4.017   4.087  1.5984  0.6468  0.6897
   13MOL   H173 7637   3.452   3.795   3.885 -0.3008 -1.0456  0.8651
   13MOL   H174 7638   3.338   3.830   4.011  2.2054 -1.0234  1.4260
   13MOL   H175 7639   3.315   4.075   3.881  0.5613  0.0718  1.7046
   13MOL   H176 7640   3.416   4.008   3.771 -1.3556  1.6379 -1.1122
   13MOL   H177 7641   3.181   3.983   3.702 -1.1528 -2.5929 -0.9969
   13MOL   H178 7642   3.242   3.823   3.714 -1.5143 -0.3838  0.8451
   13MOL   H179 7643   3.154   3.796   3.942  0.9955  0.7953  0.4805
   13MOL   H180 7644   3.034   3.820   3.802 -0.2471  2.7607 -2.0757
   13MOL   H181 7645   3.109   4.020   4.008  0.1930  1.1354 -0.8032
   13MOL   H182 7646   2.999   4.064   3.878 -0.4213 -0.6763  0.0213
   13MOL   H183 7647   2.958   3.853   4.080  2.9276  1.0642  0.2501
   13MOL   H184 7648   2.831   3.904   3.963  0.9559 -1.9927 -1.8739
   13MOL   H185 7649   2.880   4.007   4.095 -1.2073 -1.2223 -1.0531
   13MOL   H186 7650   3.689   4.011   4.395  2.6705  0.9465  1.5874
   13MOL   H187 7651   3.594   3.869   4.423  0.4871 -0.8324 -0.6464
   13MOL   C188 7652   3.779   3.871   4.542  0.1405  0.9646 -0.1107
   13MOL   O189 7653   3.747   3.741   4.587  1.0258  0.3209 -0.1473
   13MOL   C190 7654   3.859   3.651   4.604 -0.3728  0.1557  0.3867
   13MOL   C191 7655   3.835   3.545   4.708 -0.1135  1.3343 -0.8671
   13MOL   C192 7656   3.924   3.425   4.715  0.1118 -0.6836  0.1529
   13MOL   C193 7657   4.024   3.447   4.826  0.3774 -0.5683 -0.0182
   13MOL   C194 7658   4.119   3.332   4.853 -0.0359 -0.3442 -0.0634
   13MOL   C195 7659   4.206   3.355   4.983  0.7755 -0.3400 -0.0095
   13MOL   C196 7660   4.300   3.249   5.020  0.2893 -0.5487 -0.0188
   13MOL   C197 7661   4.421   3.248   4.932  0.3315 -0.1727 -0.1681
   13MOL   C198 7662   3.728   3.963   4.655 -0.1578  0.2563 -0.5965
   13MOL   H199 7663   3.886   3.886   4.526 -0.1742  2.2452 -1.1282
   13MOL   H200 7664   3.881   3.619   4.502 -1.0411  1.1713 -0.0959
   13MOL   H201 7665   3.938   3.716   4.643  0.4499 -0.5713 -0.0637
   13MOL   H202 7666   3.741   3.499   4.677  0.0090  1.1029 -0.8958
   13MOL   H203 7667   3.813   3.570   4.812  0.9427  0.8950 -0.5266
   13MOL   H204 7668   3.867   3.336   4.743 -0.3128 -0.7098 -0.8023
   13MOL   H205 7669   3.968   3.416   4.616 -1.0809  1.6615 -0.6092
   13MOL   H206 7670   4.071   3.545   4.815  0.1757 -0.7792 -3.1385
   13MOL   H207 7671   3.970   3.455   4.921 -1.0783 -1.0637 -0.7958
   13MOL   H208 7672   4.067   3.237   4.858  0.2777 -0.5296 -0.3086
   13MOL   H209 7673   4.184   3.327   4.766 -1.0745 -1.9436 -0.7629
   13MOL   H210 7674   4.138   3.367   5.067 -0.8330 -0.6907 -1.2253
   13MOL   H211 7675   4.252   3.454   4.978 -1.4206  0.7199 -0.1127
   13MOL   H212 7676   4.347   3.271   5.115 -0.0077 -0.0391  0.0149
   13MOL   H213 7677   4.253   3.153   5.037 -0.4023  0.1286  1.9685
   13MOL   H214 7678   4.452   3.350   4.907  1.5975 -0.1708  1.2869
   13MOL   H215 7679   4.391   3.203   4.838 -2.9122 -0.4904  0.9557
   13MOL   H216 7680   4.501   3.189   4.978 -1.2142 -0.4664  2.2376
   13MOL   H217 7681   3.622   3.948   4.676  0.4526 -1.9641  1.1143
   13MOL   H218 7682   3.770   3.926   4.749  0.3774 -0.7008 -1.2157
   13MOL   C219 7683   3.781   4.109   4.654 -0.4269 -0.1987 -0.7415
   13MOL   O220 7684   3.919   4.118   4.636  0.4993 -0.4740 -0.0985
   13MOL   C221 7685   3.963   4.213   4.543  0.2636 -0.3427 -0.3289
   13MOL   C222 7686   4.112   4.189   4.518 -0.2534 -0.5731  0.7292
   13MOL   C223 7687   4.151   4.240   4.384 -0.0674  0.1082 -0.3370
   13MOL   C224 7688   4.160   4.390   4.377 -0.2939 -0.5943 -0.2563
   13MOL   C225 7689   4.291   4.444   4.434  0.6432 -0.5179 -0.5440
   13MOL   C226 7690   4.296   4.598   4.448  0.5559 -0.2260 -0.3077
   13MOL   C227 7691   4.431   4.649   4.498  0.3970 -0.6014 -0.0893
   13MOL   C228 7692   4.441   4.806   4.510  0.3545  0.3939  0.7429
   13MOL   C229 7693   3.753   4.190   4.784  0.2352 -0.2141  0.9361
   13MOL   H230 7694   3.724   4.148   4.570 -1.8718 -0.8116 -0.0796
   13MOL   H231 7695   3.952   4.316   4.575 -0.3094 -0.8188  1.0327
   13MOL   H232 7696   3.914   4.221   4.446 -0.6091  1.1864  0.2294
   13MOL   H233 7697   4.131   4.082   4.519 -3.7966 -1.2553  1.3744
   13MOL   H234 7698   4.173   4.231   4.599  0.6918 -2.0864  0.8146
   13MOL   H235 7699   4.247   4.199   4.352 -0.8923 -2.7395  0.6808
   13MOL   H236 7700   4.079   4.212   4.307  0.1911 -0.1351 -0.4940
   13MOL   H237 7701   4.160   4.399   4.268  1.0951  3.4458  0.0123
   13MOL   H238 7702   4.067   4.432   4.415 -0.1690 -0.7181  0.1838
   13MOL   H239 7703   4.300   4.399   4.533  1.5437  0.9231  0.0468
   13MOL   H240 7704   4.381   4.413   4.381  0.3399 -1.6943 -0.3811
   13MOL   H241 7705   4.216   4.619   4.519 -0.0941  1.1739 -1.4276
   13MOL   H242 7706   4.276   4.646   4.353  2.8490  0.9522 -0.2085
   13MOL   H243 7707   4.441   4.616   4.601  2.5459  1.0913  0.2759
   13MOL   H244 7708   4.515   4.587   4.465  0.0459 -0.2788 -1.6350
   13MOL   H245 7709   4.410   4.867   4.425  0.5604  1.3580  1.3466
   13MOL   H246 7710   4.548   4.824   4.515  0.7716 -2.3801  2.9576
   13MOL   H247 7711   4.393   4.845   4.600 -2.9069  0.4221 -0.9196
   13MOL   H248 7712   3.740   4.113   4.860 -3.0506 -0.9792 -0.3265
   13MOL   H249 7713   3.840   4.252   4.806 -0.3716  1.4967 -1.3472
   13MOL   C250 7714   3.625   4.280   4.798  0.2572 -0.4878  0.6720
   13MOL   O251 7715   3.634   4.366   4.690  1.1647 -0.0948  0.2384
   13MOL   C252 7716   3.533   4.353   4.593 -0.3477  0.0200  0.0990
   13MOL   C253 7717   3.577   4.405   4.458  0.3679 -0.5490 -0.0962
   13MOL   C254 7718   3.641   4.544   4.462  0.7362  0.3516 -0.3552
   13MOL   C255 7719   3.708   4.584   4.336  0.2658  0.7024 -0.5682
   13MOL   C256 7720   3.787   4.714   4.346 -0.6610  1.1955 -0.0083
   13MOL   C257 7721   3.809   4.792   4.214 -0.2182 -0.2917  0.4409
   13MOL   C258 7722   3.925   4.900   4.215 -0.3171  0.3638 -0.3950
   13MOL   C259 7723   3.942   4.968   4.079  0.2962  0.2472  0.4040
   13MOL   C260 7724   3.631   4.354   4.934  0.2186  0.8407 -0.0972
   13MOL   H261 7725   3.545   4.206   4.806 -2.3687  2.0390 -1.0821
   13MOL   H262 7726   3.436   4.392   4.621 -0.6548 -2.3267  2.5985
   13MOL   H263 7727   3.506   4.247   4.589 -1.8559  0.4482 -1.7803
   13MOL   H264 7728   3.498   4.408   4.383 -0.7545 -1.2113  1.0343
   13MOL   H265 7729   3.643   4.325   4.423  0.3229 -0.6157 -0.0283
   13MOL   H266 7730   3.565   4.617   4.492  1.0686  1.0248 -1.1413
   13MOL   H267 7731   3.717   4.540   4.539 -1.4767  0.3303  1.9122
   13MOL   H268 7732   3.773   4.506   4.296 -1.2931 -0.3520 -1.0592
   13MOL   H269 7733   3.629   4.594   4.261 -0.1636 -1.0534 -0.3614
   13MOL   H270 7734   3.744   4.784   4.418 -1.6370  2.1557 -1.4922
   13MOL   H271 7735   3.880   4.678   4.390 -0.6415  0.2728 -0.8008
   13MOL   H272 7736   3.711   4.827   4.183 -0.7805 -1.6051  0.7058
   13MOL   H273 7737   3.836   4.717   4.140  0.5798  1.5366 -1.1423
   13MOL   H274 7738   3.901   4.974   4.290 -0.7404 -0.6908  0.5251
   13MOL   H275 7739   4.017   4.850   4.248  0.0147  0.2643 -1.4332
   13MOL   H276 7740   3.853   5.030   4.064 -0.1872 -0.6322 -0.4167
   13MOL   H277 7741   3.948   4.897   3.997  1.9494 -0.1649  0.8597
   13MOL   H278 7742   4.036   5.022   4.069 -0.4908  1.7457  0.8358
   13MOL   H279 7743   3.661   4.281   5.010 -0.8219 -0.0344 -0.5167
   13MOL   H280 7744   3.704   4.434   4.926 -2.1542  3.0702 -0.0077
   13MOL   C281 7745   3.498   4.422   4.974  0.2602 -0.2556 -0.1998
   13MOL   O282 7746   3.525   4.545   5.049 -0.3467 -0.2460  0.7186
   13MOL   C283 7747   3.455   4.659   5.004  0.0266 -0.0371 -0.1771
   13MOL   C284 7748   3.509   4.780   5.084 -0.2672  0.4973  0.4721
   13MOL   C285 7749   3.659   4.794   5.088 -0.3766  0.2353 -0.7292
   13MOL   C286 7750   3.715   4.907   5.175 -0.2659  0.4815 -0.4133
   13MOL   C287 7751   3.868   4.936   5.164 -0.4955  0.7301 -0.3920
   13MOL   C288 7752   3.903   5.056   5.250  0.6396  0.4146 -0.5373
   13MOL   C289 7753   4.056   5.080   5.249 -0.7506  0.4430 -0.2949
   13MOL   C290 7754   4.103   5.218   5.317  0.3412 -0.0137  0.3386
   13MOL   C291 7755   3.402   4.338   5.066 -0.4482  0.2364  0.4445
   13MOL   H292 7756   3.448   4.450   4.881  2.9864  0.0212 -1.6371
   13MOL   H293 7757   3.347   4.661   5.018 -0.0103  6.0956 -0.0546
   13MOL   H294 7758   3.469   4.679   4.898 -0.0519  1.6610  0.1158
   13MOL   H295 7759   3.475   4.761   5.185 -0.0708  1.1453  0.6622
   13MOL   H296 7760   3.461   4.871   5.047 -0.8518 -0.1957 -0.4849
   13MOL   H297 7761   3.704   4.700   5.119 -1.2684  0.2608  0.7238
   13MOL   H298 7762   3.696   4.813   4.988  1.2253 -0.2964 -0.2549
   13MOL   H299 7763   3.667   5.002   5.151  1.3915  1.1437 -1.1189
   13MOL   H300 7764   3.706   4.882   5.281  1.3162 -2.7788 -0.9605
   13MOL   H301 7765   3.922   4.843   5.182  2.0655  2.1613 -0.4285
   13MOL   H302 7766   3.883   4.968   5.061 -0.4635 -0.4904 -0.7662
   13MOL   H303 7767   3.870   5.036   5.352  1.5785  0.0364 -0.2994
   13MOL   H304 7768   3.858   5.142   5.202 -0.0490  1.1945  1.4393
   13MOL   H305 7769   4.101   4.988   5.285 -0.3313  0.7666  0.0041
   13MOL   H306 7770   4.093   5.085   5.146  0.5177 -1.9919  0.0020
   13MOL   H307 7771   4.088   5.221   5.425 -0.5189  1.4902  0.1851
   13MOL   H308 7772   4.060   5.306   5.268 -0.8329 -0.2611  0.9190
   13MOL   H309 7773   4.211   5.234   5.309  0.2691  0.1552 -0.3181
   13MOL   H310 7774   3.466   4.300   5.146  0.1080 -1.9661 -0.9953
   13MOL   H311 7775   3.326   4.404   5.108 -0.9709  0.7750 -1.2890
   13MOL   C312 7776   3.311   4.237   4.995 -0.2291  0.6610 -0.6892
   13MOL   O313 7777   3.389   4.122   4.949  0.7832  0.3880 -0.1487
   13MOL   C314 7778   3.419   4.028   5.055 -0.0546 -0.0389  0.1918
   13MOL   C315 7779   3.514   3.925   5.005  0.5565  0.3685  0.8177
   13MOL   C316 7780   3.539   3.807   5.093 -0.0648  0.4629  0.3544
   13MOL   C317 7781   3.543   3.677   5.010 -0.4363  0.3940  0.3407
   13MOL   C318 7782   3.567   3.570   5.107  0.4587  0.1855 -0.2053
   13MOL   C319 7783   3.595   3.431   5.044  0.1309 -0.1382 -1.0550
   13MOL   C320 7784   3.625   3.324   5.153 -0.3052 -0.0501 -0.0969
   13MOL   C321 7785   3.768   3.333   5.194 -0.1220  0.0160  0.4906
   13MOL   C322 7786   3.221   4.288   4.881 -0.5970 -0.4372 -0.3957
   13MOL   H323 7787   3.236   4.200   5.066  0.3018  0.0164 -0.4539
   13MOL   H324 7788   3.330   3.975   5.089 -0.3081  0.8035  0.8369
   13MOL   H325 7789   3.460   4.077   5.143 -0.1674 -1.6122  1.1382
   13MOL   H326 7790   3.612   3.963   4.978  1.2397 -2.0348 -0.2377
   13MOL   H327 7791   3.465   3.887   4.916  0.1047  2.2228  0.2688
   13MOL   H328 7792   3.622   3.831   5.159  0.1108  4.1021 -1.0855
   13MOL   H329 7793   3.447   3.804   5.151  1.4651 -0.3381  2.7897
   13MOL   H330 7794   3.444   3.659   4.969 -0.2100  0.7096 -0.3561
   13MOL   H331 7795   3.620   3.682   4.933  0.0978  1.3315  0.9237
   13MOL   H332 7796   3.659   3.597   5.159 -0.2456  0.6443  0.8093
   13MOL   H333 7797   3.492   3.567   5.186  0.3501  0.5750 -0.2930
   13MOL   H334 7798   3.672   3.431   4.966  0.9846  3.8776 -0.2912
   13MOL   H335 7799   3.501   3.410   4.994 -0.3466  1.4264 -0.8423
   13MOL   H336 7800   3.551   3.339   5.231  1.4257 -1.0608  1.7864
   13MOL   H337 7801   3.605   3.222   5.120 -0.8913 -1.2232  3.6862
   13MOL   H338 7802   3.788   3.245   5.254 -0.4099 -0.6713 -0.4200
   13MOL   H339 7803   3.787   3.432   5.236 -0.0658  1.0312 -1.8373
   13MOL   H340 7804   3.837   3.336   5.110  0.2724 -1.7133  0.7491
   13MOL   H341 7805   3.280   4.336   4.802 -1.5178 -1.3731 -1.6598
   13MOL   H342 7806   3.183   4.205   4.822 -0.0533 -2.0001  1.4382
   13MOL   C343 7807   3.127   4.409   4.920 -0.0664  0.0577  0.3999
   13MOL   O344 7808   3.046   4.355   5.028 -0.0575  0.3877  0.1106
   13MOL   C345 7809   2.966   4.450   5.102  0.2416  0.0090  0.1110
   13MOL   C346 7810   2.894   4.374   5.214 -0.3774  0.3660  0.2218
   13MOL   C347 7811   2.822   4.484   5.309 -0.0615  0.1473  0.0054
   13MOL   C348 7812   2.697   4.551   5.254  0.5095 -0.1921  0.4507
   13MOL   C349 7813   2.647   4.656   5.346  0.3836  0.1642  0.1356
   13MOL   C350 7814   2.509   4.704   5.335  0.2891  0.7180 -0.0936
   13MOL   C351 7815   2.456   4.799   5.446  0.1664 -0.6228  0.0340
   13MOL   C352 7816   2.309   4.844   5.423 -0.2562  0.6302 -0.5853
   13MOL   C353 7817   3.032   4.454   4.802 -0.0026 -0.1313  0.2426
   13MOL   H354 7818   3.194   4.491   4.948  1.8559 -1.2004 -0.3940
   13MOL   H355 7819   2.900   4.500   5.031  2.4760  2.1744 -0.4883
   13MOL   H356 7820   3.035   4.513   5.157 -0.4268 -0.1516  1.1555
   13MOL   H357 7821   2.965   4.322   5.278  2.8783  3.9968 -0.1953
   13MOL   H358 7822   2.826   4.299   5.174 -0.6702  0.8892 -0.2649
   13MOL   H359 7823   2.812   4.446   5.411  1.5310 -0.0968  0.0828
   13MOL   H360 7824   2.900   4.556   5.332  0.5621 -1.1526  2.0414
   13MOL   H361 7825   2.712   4.602   5.159  0.2383 -0.4853  0.2491
   13MOL   H362 7826   2.620   4.476   5.239 -0.5198  0.8463  0.4640
   13MOL   H363 7827   2.667   4.635   5.451 -0.9897  1.6312  0.7147
   13MOL   H364 7828   2.712   4.741   5.325 -2.3322  1.7521 -2.1741
   13MOL   H365 7829   2.457   4.608   5.338 -1.0095  1.3963 -0.4362
   13MOL   H366 7830   2.502   4.740   5.233 -1.4397  0.9742  0.1077
   13MOL   H367 7831   2.467   4.757   5.546 -0.3149 -1.1063 -0.1161
   13MOL   H368 7832   2.521   4.886   5.438 -1.0292  0.3786  0.9701
   13MOL   H369 7833   2.308   4.924   5.350 -0.6654  0.5324 -0.6870
   13MOL   H370 7834   2.269   4.887   5.516  0.2947  3.3761 -1.5737
   13MOL   H371 7835   2.246   4.767   5.377 -0.2699  1.3869 -1.8492
   13MOL   H372 7836   2.956   4.377   4.793 -1.5026  1.2616  0.8444
   13MOL   H373 7837   2.966   4.536   4.830  0.6259 -0.8312  3.9275
   13MOL   C374 7838   3.090   4.494   4.659  0.0926 -0.0440 -0.0458
   13MOL   O375 7839   3.146   4.622   4.694  0.5124 -0.1217 -0.1951
   13MOL   C376 7840   3.278   4.633   4.645 -0.6156 -0.6785  0.3251
   13MOL   C377 7841   3.306   4.775   4.616  0.0914 -0.8184 -0.4944
   13MOL   C378 7842   3.207   4.841   4.513  0.7798  0.7120  0.2365
   13MOL   C379 7843   3.241   4.988   4.482 -0.6539  0.0607 -0.2835
   13MOL   C380 7844   3.127   5.041   4.390  0.3603  0.0423 -0.5004
   13MOL   C381 7845   3.141   5.185   4.336 -0.5475  0.0245 -0.0446
   13MOL   C382 7846   3.014   5.237   4.264  0.7968 -0.2392  0.3796
   13MOL   C383 7847   3.017   5.392   4.243 -0.9522  0.5740 -0.6720
   13MOL   C384 7848   2.974   4.522   4.556  0.3518  0.0973 -0.7342
   13MOL   H385 7849   3.161   4.418   4.629  0.3951  0.3479 -0.3164
   13MOL   H386 7850   3.305   4.571   4.560 -1.6451  0.6055 -0.9559
   13MOL   H387 7851   3.348   4.608   4.725 -1.0580 -1.3850  0.4915
   13MOL   H388 7852   3.412   4.785   4.594  0.1858 -2.5205 -0.8557
   13MOL   H389 7853   3.293   4.814   4.717  0.3556 -0.7073 -0.5021
   13MOL   H390 7854   3.237   4.788   4.423  0.0172  0.0789  0.3547
   13MOL   H391 7855   3.102   4.827   4.537  0.3401 -0.2250 -2.0649
   13MOL   H392 7856   3.269   5.046   4.571  2.1738 -0.6722 -0.6595
   13MOL   H393 7857   3.336   4.983   4.430 -1.0125 -3.7026 -0.7073
   13MOL   H394 7858   3.117   4.973   4.306  1.6900 -0.2469 -0.4447
   13MOL   H395 7859   3.034   5.041   4.447  0.0716 -0.9625 -0.9599
   13MOL   H396 7860   3.220   5.185   4.261 -1.4564 -2.1789 -1.0598
   13MOL   H397 7861   3.164   5.258   4.413 -1.4265  0.5747 -0.2949
   13MOL   H398 7862   2.992   5.184   4.171 -2.6149  1.4147  0.1662
   13MOL   H399 7863   2.930   5.225   4.332  1.1816 -0.6908  0.7711
   13MOL   H400 7864   2.921   5.439   4.221 -1.8515  0.3962  2.5670
   13MOL   H401 7865   3.088   5.433   4.171  0.5258  0.2444  0.5643
   13MOL   H402 7866   3.055   5.439   4.334 -0.8018  0.2847 -0.5840
   13MOL   H403 7867   2.903   4.583   4.612 -2.8179 -2.4556 -1.7937
   13MOL   H404 7868   3.005   4.591   4.477  0.1900 -0.7085 -1.5137
   13MOL   C405 7869   2.901   4.405   4.504 -0.2938  0.1883 -0.4541
   13MOL   O406 7870   3.003   4.349   4.421  0.4686 -0.3549 -0.6618
   13MOL   C407 7871   3.038   4.219   4.455  0.2718  0.0412  0.0625
   13MOL   C408 7872   3.134   4.161   4.352 -0.4095  0.5253  0.7210
   13MOL   C409 7873   3.158   4.008   4.362  0.0491 -0.3437  0.0514
   13MOL   C410 7874   3.224   3.950   4.488  0.5325 -0.0674 -0.4755
   13MOL   C411 7875   3.234   3.797   4.474 -0.6395  0.6322  0.1576
   13MOL   C412 7876   3.322   3.733   4.587  0.1439 -0.5686  0.1461
   13MOL   C413 7877   3.363   3.590   4.558  0.2988 -0.0178  0.2909
   13MOL   C414 7878   3.458   3.536   4.654  0.4283  0.0824  0.3134
   13MOL   C415 7879   2.782   4.435   4.416 -0.4980 -0.3105 -0.5518
   13MOL   H416 7880   2.867   4.351   4.593 -0.1762  1.3282  0.2856
   13MOL   H417 7881   2.948   4.158   4.442 -0.0633  0.7867 -1.2417
   13MOL   H418 7882   3.064   4.213   4.560  0.6543  2.2750  0.1084
   13MOL   H419 7883   3.224   4.219   4.369 -1.6362  2.4504  0.8061
   13MOL   H420 7884   3.089   4.191   4.257  0.0814 -1.4479 -0.1548
   13MOL   H421 7885   3.063   3.962   4.334 -0.2063  0.3593 -0.2563
   13MOL   H422 7886   3.217   3.995   4.271 -2.0443  1.0786 -1.5537
   13MOL   H423 7887   3.324   3.995   4.493  1.5478 -2.1406 -1.5309
   13MOL   H424 7888   3.164   3.970   4.577 -0.1799 -1.6326 -0.5906
   13MOL   H425 7889   3.140   3.743   4.491 -0.5147  0.4692  0.3341
   13MOL   H426 7890   3.280   3.767   4.381  2.3236  3.4756  0.6295
   13MOL   H427 7891   3.265   3.734   4.679 -0.1445  0.1107 -0.0328
   13MOL   H428 7892   3.412   3.792   4.604 -2.3689  2.8107  2.4748
   13MOL   H429 7893   3.279   3.520   4.564  0.3148 -0.2183 -1.4954
   13MOL   H430 7894   3.407   3.573   4.460 -2.3499 -0.7737 -0.8137
   13MOL   H431 7895   3.503   3.441   4.624  0.0470 -0.2215  0.6915
   13MOL   H432 7896   3.416   3.512   4.752 -1.2031  3.0522  0.3902
   13MOL   H433 7897   3.547   3.597   4.662 -0.6225  1.7440 -0.3601
   13MOL   H434 7898   2.707   4.488   4.474  0.2097 -0.5544  0.6200
   13MOL   H435 7899   2.798   4.502   4.332  1.7720 -1.3799 -1.0134
   13MOL   C436 7900   2.711   4.304   4.363 -0.0096 -0.8024  0.7209
   13MOL   O437 7901   2.616   4.345   4.267  0.8522 -0.1094 -0.0505
   13MOL   C438 7902   2.646   4.334   4.132  0.2193 -0.0042  0.2126
   13MOL   C439 7903   2.529   4.369   4.051 -0.3455 -0.4140  0.5425
   13MOL   C440 7904   2.402   4.275   4.052 -0.2202  0.0176 -0.5068
   13MOL   C441 7905   2.293   4.335   3.975 -0.7769 -0.5220 -0.0030
   13MOL   C442 7906   2.152   4.290   4.012 -0.6510 -0.0585  0.0087
   13MOL   C443 7907   2.131   4.143   3.975  0.6754  0.3588  0.0545
   13MOL   C444 7908   2.011   4.082   4.040  0.2581  0.4969 -0.6239
   13MOL   C445 7909   1.883   4.168   4.020  0.0592  0.2042  0.2852
   13MOL   C446 7910   2.636   4.218   4.476 -0.5062  0.4482 -0.5124
   13MOL   H447 7911   2.783   4.245   4.308  0.0960 -1.0973  1.1693
   13MOL   H448 7912   2.737   4.391   4.112 -0.1645  1.2778  2.0192
   13MOL   H449 7913   2.676   4.230   4.116  0.6047 -0.0619  1.3009
   13MOL   H450 7914   2.549   4.377   3.944  0.2109 -1.0899  0.5928
   13MOL   H451 7915   2.500   4.472   4.068 -0.8079 -0.3479 -0.6002
   13MOL   H452 7916   2.424   4.174   4.016  0.6232 -0.0011  0.0427
   13MOL   H453 7917   2.380   4.252   4.157  1.1114 -1.0515 -0.4372
   13MOL   H454 7918   2.308   4.442   3.968 -0.5517 -0.7178 -3.0879
   13MOL   H455 7919   2.312   4.310   3.871  0.5316 -1.9169  0.5402
   13MOL   H456 7920   2.127   4.304   4.117  0.5754 -0.6937  0.3935
   13MOL   H457 7921   2.085   4.356   3.958 -2.2949 -1.5106  0.2351
   13MOL   H458 7922   2.215   4.086   4.014 -1.2484 -2.0385  0.8794
   13MOL   H459 7923   2.128   4.118   3.869  1.0270  1.4100 -0.2126
   13MOL   H460 7924   1.987   3.980   4.011  0.5441  0.8514 -2.1228
   13MOL   H461 7925   2.027   4.077   4.148  0.8906  2.3582 -0.6111
   13MOL   H462 7926   1.855   4.181   3.915 -1.2120 -1.5341  0.3856
   13MOL   H463 7927   1.883   4.267   4.065 -2.3000  2.0048 -3.4026
   13MOL   H464 7928   1.803   4.112   4.068  1.1190 -2.3443 -0.8555
   13MOL   H465 7929   2.699   4.197   4.563 -2.0798 -0.0600  0.5167
   13MOL   H466 7930   2.555   4.280   4.515  0.7684  2.7859 -1.4979
   13MOL   C467 7931   2.580   4.083   4.434 -0.5250 -0.1144 -0.4318
   13MOL   O468 7932   2.515   4.029   4.542  0.2147  0.7492 -0.1090
   13MOL   C469 7933   2.375   4.051   4.544  0.2043 -0.0495  0.6364
   13MOL   C470 7934   2.307   3.956   4.637 -0.0697  0.8677 -0.3393
   13MOL   C471 7935   2.356   3.813   4.638  0.7978  0.0157  0.5430
   13MOL   C472 7936   2.485   3.790   4.719  0.1286  0.1260 -0.0905
   13MOL   C473 7937   2.535   3.643   4.703 -0.7458  0.2952 -0.2145
   13MOL   C474 7938   2.676   3.612   4.767 -0.3052 -0.0938  0.0200
   13MOL   C475 7939   2.686   3.463   4.789  0.1814  0.1162 -0.0370
   13MOL   C476 7940   2.605   3.404   4.905  0.2932 -0.6647 -0.6634
   13MOL   C477 7941   2.694   3.979   4.406 -0.4576 -0.4614  0.3881
   13MOL   H478 7942   2.514   4.090   4.348  1.6815 -1.0463 -2.2769
   13MOL   H479 7943   2.335   4.028   4.445 -1.5946  1.4704  0.9817
   13MOL   H480 7944   2.350   4.154   4.568  0.9555  0.2683  0.0680
   13MOL   H481 7945   2.203   3.950   4.604 -0.1223  1.2051 -0.2281
   13MOL   H482 7946   2.314   3.983   4.742 -0.7679 -3.2947  0.8957
   13MOL   H483 7947   2.271   3.762   4.683 -0.9464 -0.8022 -3.4771
   13MOL   H484 7948   2.343   3.771   4.539  1.5389  0.7895  0.1083
   13MOL   H485 7949   2.567   3.850   4.679 -0.2637  0.4773 -0.3838
   13MOL   H486 7950   2.461   3.816   4.822  1.0735  0.0093  0.1555
   13MOL   H487 7951   2.457   3.584   4.751 -0.4937 -1.5458 -2.0007
   13MOL   H488 7952   2.537   3.610   4.599  2.4369  1.9964 -0.7681
   13MOL   H489 7953   2.675   3.669   4.860  0.8439  0.7050 -0.4531
   13MOL   H490 7954   2.748   3.665   4.704 -1.8641  0.4249 -1.3631
   13MOL   H491 7955   2.655   3.413   4.697 -1.4308  0.3930  0.3471
   13MOL   H492 7956   2.790   3.439   4.810  0.4289  0.0466 -1.2674
   13MOL   H493 7957   2.500   3.434   4.907  0.3522 -0.4996  2.9906
   13MOL   H494 7958   2.638   3.443   5.001 -0.6248 -4.2281  1.2020
   13MOL   H495 7959   2.615   3.295   4.901  1.8365 -0.5399 -0.6012
   13MOL   H496 7960   2.774   4.017   4.343 -1.0565  1.0269  0.5245
   13MOL   H497 7961   2.735   3.952   4.503  2.4574 -0.7970 -0.8676
   13MOL   C498 7962   2.640   3.843   4.337 -0.1392 -0.2865  0.6741
   13MOL   O499 7963   2.750   3.759   4.308  0.6565  0.4696  0.0992
   13MOL   C500 7964   2.800   3.697   4.426  0.1488  0.3403  0.1668
   13MOL   C501 7965   2.868   3.561   4.376  0.2415  0.3696  0.1380
   13MOL   C502 7966   2.975   3.600   4.275  0.5991 -0.0369  0.7952
   13MOL   C503 7967   3.075   3.490   4.233 -0.3129  0.5881 -0.5231
   13MOL   C504 7968   3.179   3.545   4.137  0.3050  0.4234 -0.1640
   13MOL   C505 7969   3.280   3.440   4.082  0.0601  0.7358 -0.3098
   13MOL   C506 7970   3.392   3.493   3.987 -0.1115  0.1671 -0.6735
   13MOL   C507 7971   3.336   3.536   3.851  0.1900  0.3152 -0.0489
   13MOL   C508 7972   2.589   3.865   4.198  0.6631  0.0678 -0.4450
   13MOL   H509 7973   2.562   3.790   4.391 -0.9029  1.1048  0.9732
   13MOL   H510 7974   2.710   3.689   4.487  1.0020 -1.5139  1.2417
   13MOL   H511 7975   2.877   3.762   4.467  0.4259 -0.5458  1.0858
   13MOL   H512 7976   2.802   3.491   4.325  1.1396 -1.3685  1.3119
   13MOL   H513 7977   2.916   3.511   4.460 -1.4521 -0.7894  0.4443
   13MOL   H514 7978   2.932   3.632   4.181  1.2742 -1.7257 -0.1105
   13MOL   H515 7979   3.030   3.690   4.305  2.3754 -1.0162  0.5616
   13MOL   H516 7980   3.132   3.456   4.320  0.6711 -1.0458 -1.7596
   13MOL   H517 7981   3.023   3.405   4.190  0.1625  0.6093 -1.1542
   13MOL   H518 7982   3.130   3.593   4.052  2.0729  0.9339 -0.8994
   13MOL   H519 7983   3.234   3.618   4.196  1.4324 -1.1313  0.7295
   13MOL   H520 7984   3.215   3.368   4.032  1.3890  0.5760 -1.8321
   13MOL   H521 7985   3.323   3.391   4.169  0.2604  1.8429  0.2275
   13MOL   H522 7986   3.445   3.581   4.025 -1.9329  0.0940  2.2380
   13MOL   H523 7987   3.461   3.411   3.970 -2.5115 -1.6390 -1.9159
   13MOL   H524 7988   3.263   3.460   3.822  0.1815  0.4578 -0.3962
   13MOL   H525 7989   3.409   3.554   3.772 -0.3983  0.4408 -0.5620
   13MOL   H526 7990   3.266   3.617   3.867  0.2782  0.6485 -1.2640
   13MOL   H527 7991   2.526   3.954   4.196 -0.4144 -0.7076 -1.3543
   13MOL   H528 7992   2.671   3.889   4.131  0.0763 -1.5581 -1.7620
   13MOL   C529 7993   2.502   3.758   4.141 -0.2148  0.9989 -0.0401
   13MOL   O530 7994   2.374   3.764   4.219 -0.3497 -0.0378 -0.1135
   13MOL   C531 7995   2.253   3.787   4.148 -0.1690  0.1425 -1.1589
   13MOL   C532 7996   2.139   3.804   4.256 -0.1971  0.0492  0.0827
   13MOL   C533 7997   2.131   3.678   4.350  0.9906 -0.3944 -0.2689
   13MOL   C534 7998   2.026   3.701   4.463  0.3967 -0.1227  0.1310
   13MOL   C535 7999   2.026   3.589   4.561 -0.0420  0.5221  0.3319
   13MOL   C536 8000   1.930   3.599   4.681 -0.1887 -0.0184 -0.3149
   13MOL   C537 8001   1.928   3.727   4.762 -0.2602 -0.4065 -0.0355
   13MOL   C538 8002   1.819   3.713   4.874  0.3339 -0.3940 -0.2749
   13MOL   C539 8003   2.566   3.615   4.152 -0.1929 -0.7073  0.3259
   13MOL   H540 8004   2.472   3.772   4.037 -1.0102  1.3700  0.2278
   13MOL   H541 8005   2.268   3.871   4.080 -1.1284  0.5626 -0.8587
   13MOL   H542 8006   2.232   3.706   4.079  1.8244  0.9310 -2.7435
   13MOL   H543 8007   2.039   3.816   4.215 -0.3093  3.6149  1.2505
   13MOL   H544 8008   2.153   3.898   4.309  0.3576 -0.3787  0.7103
   13MOL   H545 8009   2.097   3.594   4.289 -2.1230 -0.7976  1.8911
   13MOL   H546 8010   2.230   3.653   4.389  1.1098  0.8976  0.2638
   13MOL   H547 8011   2.041   3.798   4.510 -1.0371 -0.3460  1.0763
   13MOL   H548 8012   1.924   3.705   4.424  0.2891 -0.5601  0.3724
   13MOL   H549 8013   1.998   3.499   4.508  1.5267  0.8065 -1.0056
   13MOL   H550 8014   2.126   3.565   4.596  0.4920  1.1169 -0.7682
   13MOL   H551 8015   1.940   3.513   4.748 -1.3968  1.6121  2.0224
   13MOL   H552 8016   1.827   3.586   4.647  0.6349 -1.3211 -2.4420
   13MOL   H553 8017   2.023   3.745   4.813  0.4571 -1.6419 -0.9225
   13MOL   H554 8018   1.906   3.810   4.695  2.0107  0.3543  0.1216
   13MOL   H555 8019   1.729   3.751   4.825  0.3518 -0.2697 -0.2134
   13MOL   H556 8020   1.847   3.785   4.951  2.3581 -0.3957 -0.9771
   13MOL   H557 8021   1.817   3.613   4.916 -1.2161  0.9197  2.9041
   13MOL   H558 8022   2.660   3.615   4.098 -0.0866 -2.9102  0.4580
   13MOL   H559 8023   2.570   3.586   4.257 -3.9035  1.3505  1.1455
   13MOL   C560 8024   2.493   3.490   4.090  0.0119  0.2209 -0.0617
   13MOL   O561 8025   2.450   3.513   3.955  0.0472  0.1483  0.2126
   13MOL   C562 8026   2.545   3.540   3.855  0.3753  0.6273 -0.1609
   13MOL   C563 8027   2.482   3.574   3.723 -0.2140 -0.6836  0.1722
   13MOL   C564 8028   2.392   3.461   3.665 -0.0086 -0.0555  0.1904
   13MOL   C565 8029   2.343   3.494   3.521 -0.5337 -0.5124 -0.7838
   13MOL   C566 8030   2.238   3.400   3.464 -0.5316 -0.5661  0.2531
   13MOL   C567 8031   2.164   3.446   3.336  0.4788 -0.3315  0.0414
   13MOL   C568 8032   2.085   3.333   3.275 -0.9564  0.0197  0.1408
   13MOL   C569 8033   2.015   3.372   3.140  0.1967  0.1523 -0.0935
   13MOL   C570 8034   2.370   3.437   4.175  0.4782  0.3593  0.3592
   13MOL   H571 8035   2.577   3.420   4.095 -0.0829  0.1686  0.9342
   13MOL   H572 8036   2.605   3.450   3.845 -0.4074  0.0609  0.1569
   13MOL   H573 8037   2.612   3.619   3.887 -0.5338  1.8940 -1.3445
   13MOL   H574 8038   2.559   3.589   3.647 -0.5893 -0.7707 -0.2289
   13MOL   H575 8039   2.424   3.665   3.736  1.1291  0.3035 -0.6043
   13MOL   H576 8040   2.453   3.371   3.665  1.6356  1.0307 -0.7301
   13MOL   H577 8041   2.311   3.441   3.734  0.8197  1.0786  1.5310
   13MOL   H578 8042   2.300   3.594   3.526  0.9665  0.0612  1.2446
   13MOL   H579 8043   2.426   3.505   3.452 -1.7493 -0.1005 -2.1918
   13MOL   H580 8044   2.300   3.314   3.441 -2.4694 -1.6152 -1.2020
   13MOL   H581 8045   2.162   3.364   3.533 -0.2814 -0.4271  0.6003
   13MOL   H582 8046   2.244   3.490   3.275  0.2827 -0.3526 -0.2298
   13MOL   H583 8047   2.101   3.533   3.354  1.0488  0.1128 -0.0796
   13MOL   H584 8048   2.146   3.244   3.264 -1.0750  0.0555 -0.8630
   13MOL   H585 8049   2.008   3.297   3.343 -0.0482 -1.5999  0.3343
   13MOL   H586 8050   2.084   3.443   3.095  2.2823 -1.3313  0.7027
   13MOL   H587 8051   1.921   3.426   3.152  0.0900  0.1889 -1.1059
   13MOL   H588 8052   1.991   3.277   3.093 -0.4348 -0.3142  1.1517
   13MOL   H589 8053   2.306   3.525   4.189  1.7564  1.6131 -1.5865
   13MOL   H590 8054   2.326   3.362   4.109  0.5972  0.8012 -0.2231
   13MOL   C591 8055   2.395   3.366   4.315 -0.1448 -0.5116 -0.0981
   13MOL   O592 8056   2.484   3.259   4.291 -0.1645  0.4474 -0.5159
   13MOL   C593 8057   2.587   3.238   4.386 -0.6104  0.8209 -0.1999
   13MOL   C594 8058   2.691   3.133   4.322 -0.0388  0.6701 -0.7861
   13MOL   C595 8059   2.625   3.000   4.274 -0.1320 -0.4338  0.1026
   13MOL   C596 8060   2.731   2.886   4.264  0.1667  0.0398 -0.4094
   13MOL   C597 8061   2.843   2.911   4.159 -0.2581 -0.1695 -0.1572
   13MOL   C598 8062   2.909   2.770   4.135 -0.4770  0.2986  0.0031
   13MOL   C599 8063   3.060   2.782   4.082  0.8683 -0.3591  0.4321
   13MOL   C600 8064   3.073   2.826   3.933  0.1770 -0.6263  0.5597
   13MOL   C601 8065   2.266   3.311   4.382 -0.4654 -1.0381 -0.1084
   13MOL   H602 8066   2.437   3.431   4.392 -1.7887 -0.5812  0.8756
   13MOL   H603 8067   2.548   3.204   4.482 -1.5106 -0.7357 -1.1077
   13MOL   H604 8068   2.636   3.332   4.411 -0.5506  0.9596 -0.8447
   13MOL   H605 8069   2.762   3.105   4.400 -0.3401 -0.2430 -0.8295
   13MOL   H606 8070   2.752   3.178   4.243  0.8824  2.1330  0.7196
   13MOL   H607 8071   2.541   2.978   4.339 -0.3773  1.0595  0.3121
   13MOL   H608 8072   2.592   3.011   4.171  1.5116 -1.6349 -0.5872
   13MOL   H609 8073   2.783   2.871   4.359 -1.1708 -1.4031  0.1328
   13MOL   H610 8074   2.680   2.792   4.242  2.2586 -0.7621 -1.9768
   13MOL   H611 8075   2.782   2.942   4.074 -0.6280  2.2989  0.9678
   13MOL   H612 8076   2.916   2.989   4.183  1.2170 -1.0281 -1.6983
   13MOL   H613 8077   2.844   2.710   4.072 -0.6764  0.1843  0.3143
   13MOL   H614 8078   2.915   2.723   4.233 -1.4989  1.4529  0.6412
   13MOL   H615 8079   3.117   2.838   4.155  0.0061  2.3869 -0.9494
   13MOL   H616 8080   3.106   2.683   4.083  1.7208  0.0452  1.1317
   13MOL   H617 8081   3.019   2.750   3.877 -0.3574 -0.4094  0.7767
   13MOL   H618 8082   3.175   2.845   3.899  0.1559  1.6931  1.7009
   13MOL   H619 8083   3.020   2.920   3.915  0.0353 -0.8154 -0.0251
   13MOL   H620 8084   2.286   3.249   4.469  0.4850  1.1865  1.3203
   13MOL   H621 8085   2.204   3.389   4.426 -0.5512 -0.0477 -1.9274
   13MOL   H622 8086   2.207   3.254   4.311 -2.4947  1.4536 -0.5076
   14MOL     C1 8087   5.622   6.926   6.538 -0.2914  0.1077 -0.1601
   14MOL     O2 8088   5.506   6.971   6.481  0.1063 -0.1879  0.3088
   14MOL     C3 8089   5.425   6.866   6.423 -0.3708  0.2564  0.5124
   14MOL     C4 8090   5.274   6.915   6.429  0.0418  0.1368  0.1216
   14MOL     C5 8091   5.171   6.814   6.391 -0.4037 -0.5286 -0.4908
   14MOL     C6 8092   5.030   6.872   6.398 -0.5928  0.1217 -0.0615
   14MOL     C7 8093   4.970   6.904   6.538 -0.0771  0.5179  0.1342
   14MOL     C8 8094   4.837   6.980   6.553 -0.5080  0.1202  0.0062
   14MOL     C9 8095   4.800   7.011   6.698 -0.4292 -0.6212 -0.0634
   14MOL    C10 8096   4.759   6.890   6.795  0.1252  0.8917 -0.7202
   14MOL    C11 8097   5.688   7.044   6.613 -0.1707  0.0137 -0.0447
   14MOL    H12 8098   5.573   6.860   6.609 -1.5407  1.1840 -0.0098
   14MOL    H13 8099   5.434   6.773   6.480  1.1399 -0.0691 -0.2489
   14MOL    H14 8100   5.457   6.849   6.321  1.0948  0.5652  0.9066
   14MOL    H15 8101   5.268   7.002   6.363  4.8639  1.1830  0.8302
   14MOL    H16 8102   5.249   6.958   6.526 -1.9850 -1.2332  0.2317
   14MOL    H17 8103   5.190   6.776   6.290 -2.8968 -2.4336 -0.2834
   14MOL    H18 8104   5.179   6.729   6.458 -0.6633 -0.0091  0.2033
   14MOL    H19 8105   5.026   6.962   6.336  0.9655 -0.1160 -0.5412
   14MOL    H20 8106   4.962   6.806   6.344 -1.0471  2.0745 -1.9529
   14MOL    H21 8107   4.951   6.804   6.579  0.7238  0.8830  1.4346
   14MOL    H22 8108   5.044   6.942   6.608 -0.0703  1.5827 -0.4417
   14MOL    H23 8109   4.750   6.923   6.521  0.7527 -1.4893 -0.6364
   14MOL    H24 8110   4.830   7.071   6.493 -2.6026  0.7530  1.1547
   14MOL    H25 8111   4.889   7.061   6.737 -0.8577  0.3070 -0.2828
   14MOL    H26 8112   4.725   7.088   6.712 -1.3054 -1.2000 -1.3959
   14MOL    H27 8113   4.780   6.901   6.901 -1.4675 -1.0863 -0.1450
   14MOL    H28 8114   4.813   6.799   6.769 -0.7057 -0.0278  0.6744
   14MOL    H29 8115   4.653   6.865   6.780  0.9353 -1.7726 -2.4642
   14MOL    H30 8116   5.705   7.124   6.541  0.8377  0.3025  0.5024
   14MOL    H31 8117   5.611   7.099   6.667  0.6842  1.1815  0.0099
   14MOL    H32 8118   5.687   6.875   6.467 -0.1152  2.2467 -1.5855
   14MOL    C33 8119   5.814   7.009   6.705 -0.7594  0.1838  0.2636
   14MOL    O34 8120   5.774   6.935   6.822 -0.2496  0.5246 -0.2039
   14MOL    C35 8121   5.856   6.820   6.850  0.4971  0.2550  0.0561
   14MOL    C36 8122   5.803   6.746   6.968  0.0626  0.1960  0.3896
   14MOL    C37 8123   5.655   6.717   6.957 -0.7087  0.1026 -0.4926
   14MOL    C38 8124   5.596   6.642   7.078 -0.1723  0.2253 -0.1100
   14MOL    C39 8125   5.667   6.511   7.110 -0.3921  0.5524 -0.3306
   14MOL    C40 8126   5.672   6.409   6.999  0.2323  0.3749 -0.3820
   14MOL    C41 8127   5.734   6.271   7.029  0.2843  0.2070  0.2661
   14MOL    C42 8128   5.781   6.173   6.918 -0.1900 -0.4875 -0.1352
   14MOL    C43 8129   5.904   7.129   6.749  0.8199  0.3152 -0.2089
   14MOL    H44 8130   5.884   6.948   6.649 -0.5140  0.0392  0.7234
   14MOL    H45 8131   5.960   6.848   6.861  0.4844  0.8369 -1.2054
   14MOL    H46 8132   5.856   6.742   6.773  2.9156  1.8787 -1.6543
   14MOL    H47 8133   5.811   6.808   7.058  0.8585  0.3527  0.2115
   14MOL    H48 8134   5.859   6.654   6.980 -2.7830 -1.4593  1.4627
   14MOL    H49 8135   5.600   6.811   6.955 -0.1303  0.4591  0.1846
   14MOL    H50 8136   5.642   6.664   6.863  1.1110 -0.5656 -0.3942
   14MOL    H51 8137   5.588   6.711   7.162 -0.7341  0.8067 -0.6350
   14MOL    H52 8138   5.489   6.630   7.063 -0.0817  1.0148 -1.4652
   14MOL    H53 8139   5.763   6.542   7.153 -0.1139 -0.1542 -0.4390
   14MOL    H54 8140   5.615   6.470   7.197 -1.2135  0.7980 -0.7045
   14MOL    H55 8141   5.721   6.443   6.908 -1.5107 -1.8972 -2.2203
   14MOL    H56 8142   5.567   6.395   6.973  0.4401 -0.3469 -0.8570
   14MOL    H57 8143   5.819   6.284   7.096  0.3612 -3.1058  0.9373
   14MOL    H58 8144   5.661   6.215   7.087  1.7780  0.1598  2.1577
   14MOL    H59 8145   5.691   6.159   6.857  0.0756  0.6680 -0.8108
   14MOL    H60 8146   5.810   6.076   6.957  0.1676 -1.0329 -1.7356
   14MOL    H61 8147   5.871   6.203   6.866  0.9680 -3.2268  0.2071
   14MOL    H62 8148   5.846   7.214   6.784  1.1872  0.5226 -0.0958
   14MOL    H63 8149   5.968   7.102   6.833  1.7661 -0.9805 -1.3161
   14MOL    C64 8150   5.996   7.174   6.636 -0.1924  0.1130  0.4716
   14MOL    O65 8151   6.097   7.077   6.632  0.4068 -0.2135 -0.3291
   14MOL    C66 8152   6.122   7.028   6.496 -0.0368 -0.7906  0.7492
   14MOL    C67 8153   6.223   6.914   6.512 -0.0123 -0.6705 -0.1924
   14MOL    C68 8154   6.179   6.788   6.588 -0.4178 -0.1827  0.1904
   14MOL    C69 8155   6.299   6.723   6.655  0.4503  0.0405 -0.5758
   14MOL    C70 8156   6.273   6.581   6.717 -0.4756 -0.5864  0.2474
   14MOL    C71 8157   6.186   6.585   6.848  0.7006 -0.1438  0.1493
   14MOL    C72 8158   6.121   6.451   6.886  0.0298 -0.6119  0.2804
   14MOL    C73 8159   6.216   6.333   6.894  0.1439 -0.1972  0.9321
   14MOL    C74 8160   6.064   7.310   6.661  0.1199 -0.1421 -0.2702
   14MOL    H75 8161   5.945   7.192   6.541  1.0481  1.0012 -0.0364
   14MOL    H76 8162   6.169   7.109   6.441 -0.4031 -0.7464  0.5008
   14MOL    H77 8163   6.030   6.997   6.446  0.6813 -0.1730 -0.9944
   14MOL    H78 8164   6.310   6.956   6.562 -1.3674  1.1140  0.7013
   14MOL    H79 8165   6.266   6.885   6.416 -1.1138  0.8826 -1.1793
   14MOL    H80 8166   6.108   6.818   6.665  0.2239 -1.2150  1.2025
   14MOL    H81 8167   6.131   6.717   6.521  0.7508 -0.4656 -0.3724
   14MOL    H82 8168   6.375   6.712   6.577  0.9849  0.6073 -0.1380
   14MOL    H83 8169   6.321   6.780   6.745  1.4014  0.0836 -0.8295
   14MOL    H84 8170   6.247   6.513   6.636  0.8553 -0.5641 -0.2145
   14MOL    H85 8171   6.376   6.549   6.738  0.4147  2.8114  1.5154
   14MOL    H86 8172   6.109   6.658   6.822  0.5742 -0.1514  0.4943
   14MOL    H87 8173   6.236   6.630   6.934 -2.8083  0.3174  2.0447
   14MOL    H88 8174   6.082   6.468   6.986  0.4871  0.7543  0.2260
   14MOL    H89 8175   6.034   6.428   6.824 -0.5791  0.8401  0.5835
   14MOL    H90 8176   6.302   6.345   6.960  1.4479  2.1556 -1.0911
   14MOL    H91 8177   6.276   6.323   6.803  2.6042 -0.2619  2.4938
   14MOL    H92 8178   6.164   6.240   6.918  0.9127 -0.6114  1.0126
   14MOL    H93 8179   6.101   7.312   6.763 -0.9244 -1.7623  0.1641
   14MOL    H94 8180   6.147   7.322   6.592  0.6088  0.3658  0.4117
   14MOL    C95 8181   5.975   7.433   6.644  0.4345 -0.9225 -0.3485
   14MOL    O96 8182   5.972   7.460   6.499 -0.4185 -0.1729 -0.4529
   14MOL    C97 8183   5.849   7.515   6.453  0.0136  0.0870 -0.2063
   14MOL    C98 8184   5.838   7.511   6.308  0.3589 -0.8420 -0.2148
   14MOL    C99 8185   5.917   7.617   6.235 -0.0124 -0.8737  0.4087
   14MOL   C100 8186   5.892   7.604   6.090 -0.2578 -0.2161  0.6780
   14MOL   C101 8187   5.996   7.681   6.008 -0.3105 -0.0938 -0.1570
   14MOL   C102 8188   5.959   7.690   5.857  0.1074 -0.3284 -0.3201
   14MOL   C103 8189   6.057   7.755   5.768 -0.7808  0.3298 -0.4923
   14MOL   C104 8190   6.032   7.751   5.619 -0.6232 -0.0703  0.8925
   14MOL   C105 8191   6.047   7.562   6.701  0.1914  0.3857  0.0260
   14MOL   H106 8192   5.872   7.433   6.681 -0.2292  4.3703 -1.7546
   14MOL   H107 8193   5.829   7.614   6.494 -1.2040 -0.4836  0.6048
   14MOL   H108 8194   5.769   7.457   6.498 -0.3372  2.7963  2.8631
   14MOL   H109 8195   5.732   7.528   6.288  0.6351  1.4854  0.1798
   14MOL   H110 8196   5.867   7.413   6.270 -0.9015 -0.9767 -0.8714
   14MOL   H111 8197   5.886   7.717   6.268  1.1867 -1.0461  2.0831
   14MOL   H112 8198   6.025   7.609   6.244  0.0469  1.0085  1.7689
   14MOL   H113 8199   5.898   7.499   6.059  0.6825  0.3929 -1.3320
   14MOL   H114 8200   5.790   7.634   6.066  0.3975  2.2530  0.9064
   14MOL   H115 8201   6.027   0.001   6.053 -3.0837  1.8256 -2.1015
   14MOL   H116 8202   6.093   7.630   6.011  0.2168  0.7479 -2.1704
   14MOL   H117 8203   5.870   7.752   5.846 -0.8185 -1.0976  2.3541
   14MOL   H118 8204   5.935   7.589   5.825  0.5914 -0.5932  0.1473
   14MOL   H119 8205   6.076   0.086   5.786  1.1960 -0.3531  1.6956
   14MOL   H120 8206   6.158   7.714   5.780 -1.3326 -1.0568 -0.4266
   14MOL   H121 8207   5.924   7.752   5.602 -0.6945 -0.4007  1.3136
   14MOL   H122 8208   6.056   7.657   5.570  0.5018  1.1793 -1.0532
   14MOL   H123 8209   6.069   0.057   5.555 -0.8932 -1.1185 -0.6190
   14MOL   H124 8210   6.151   7.560   6.667  0.1108 -0.6453 -0.1799
   14MOL   H125 8211   6.016   7.656   6.656  1.8998  0.7711 -0.3899
   14MOL   C126 8212   6.045   7.595   6.850  0.1152 -0.1208 -0.5167
   14MOL   O127 8213   5.918   7.573   6.906 -0.1942 -0.2363 -0.6048
   14MOL   C128 8214   5.909   7.451   6.983 -0.2879  0.7154  0.5574
   14MOL   C129 8215   5.758   7.441   7.008  0.7605  0.0507 -0.0115
   14MOL   C130 8216   5.677   7.394   6.891  0.6368  0.3544 -0.0847
   14MOL   C131 8217   5.528   7.422   6.909  0.5703 -0.0618 -0.5672
   14MOL   C132 8218   5.488   7.573   6.902 -0.5187 -0.0351  0.0690
   14MOL   C133 8219   5.337   7.602   6.932 -0.1396 -0.2710 -1.6425
   14MOL   C134 8220   5.252   7.569   6.814 -0.0667  0.2403  0.0060
   14MOL   C135 8221   5.104   7.583   6.848 -0.8694  0.6869  0.3769
   14MOL   C136 8222   6.080   7.742   6.888 -0.2407  0.4537 -0.1307
   14MOL   H137 8223   6.104   7.522   6.906 -0.3955 -0.1986 -0.0770
   14MOL   H138 8224   5.965   7.460   7.076 -1.9678  0.7838  1.5780
   14MOL   H139 8225   5.943   7.361   6.932 -1.9228 -0.6849  1.8525
   14MOL   H140 8226   5.717   7.536   7.043 -1.8951 -2.0807  3.0364
   14MOL   H141 8227   5.748   7.372   7.092  0.2344  0.3586  0.1820
   14MOL   H142 8228   5.709   7.438   6.796  0.0194 -0.5404 -0.7174
   14MOL   H143 8229   5.680   7.285   6.889  2.8278  0.3997 -1.5475
   14MOL   H144 8230   5.461   7.377   6.836  0.9042  1.6382 -1.9509
   14MOL   H145 8231   5.495   7.371   6.999  2.0062  1.0954  0.6559
   14MOL   H146 8232   5.539   7.644   6.967 -0.3983  0.5761 -0.6890
   14MOL   H147 8233   5.513   7.605   6.801  1.7227 -0.2835  0.5102
   14MOL   H148 8234   5.315   7.706   6.956 -1.1376  0.0913 -4.0669
   14MOL   H149 8235   5.302   7.547   7.019 -0.8517 -0.3884 -2.0066
   14MOL   H150 8236   5.269   7.647   6.739 -1.6189  0.9996  0.4066
   14MOL   H151 8237   5.268   7.468   6.775 -2.3878 -0.4634  0.8004
   14MOL   H152 8238   5.043   7.610   6.762 -1.9230 -1.2481  0.4953
   14MOL   H153 8239   5.083   7.670   6.910  2.3638  1.4793  0.4866
   14MOL   H154 8240   5.085   7.486   6.893 -0.9860 -0.0485 -1.2186
   14MOL   H155 8241   6.173   7.759   6.835 -1.5139 -1.0223 -2.9580
   14MOL   H156 8242   6.012   0.040   6.843  1.1815  0.0216 -3.0441
   14MOL   C157 8243   6.106   7.766   7.036 -0.1506  0.2208  0.0281
   14MOL   O158 8244   6.111   0.129   7.058  0.1374  0.5484  0.2930
   14MOL   C159 8245   5.991   0.182   7.107  0.0925 -0.0222 -0.1067
   14MOL   C160 8246   6.015   0.330   7.135 -0.3657 -1.2062  0.1143
   14MOL   C161 8247   6.120   0.347   7.244  0.4625 -0.3437 -0.5821
   14MOL   C162 8248   6.139   0.488   7.306 -0.5186  0.6338 -0.0553
   14MOL   C163 8249   6.272   0.493   7.380  0.0557  0.1907 -0.8436
   14MOL   C164 8250   6.284   0.619   7.464 -0.1069 -0.3959 -1.3875
   14MOL   C165 8251   6.178   0.625   7.566 -0.1938  0.1410 -0.1271
   14MOL   C166 8252   6.163   0.761   7.639  0.1444 -0.5448  0.1338
   14MOL   C167 8253   6.244   7.718   7.089  0.1630 -0.0669 -0.3274
   14MOL   H168 8254   6.020   7.725   7.089 -1.2734  0.9104 -1.2427
   14MOL   H169 8255   5.960   0.132   7.199 -0.8331 -0.5339 -0.6938
   14MOL   H170 8256   5.919   0.169   7.027 -0.8361  0.6793  0.5981
   14MOL   H171 8257   5.921   0.373   7.169 -0.0271  1.2411 -1.9399
   14MOL   H172 8258   6.038   0.389   7.047 -1.4421  0.9013  1.2074
   14MOL   H173 8259   6.087   0.286   7.328  0.7636 -1.5963 -1.3604
   14MOL   H174 8260   6.220   0.309   7.225 -0.5092 -2.6056 -1.3431
   14MOL   H175 8261   6.144   0.561   7.225  1.5921 -0.0068 -0.5246
   14MOL   H176 8262   6.044   0.505   7.357 -0.1302  2.7190  0.0201
   14MOL   H177 8263   6.274   0.416   7.456 -1.1355 -0.4436 -1.4336
   14MOL   H178 8264   6.361   0.468   7.322  0.0247 -2.5367  0.2004
   14MOL   H179 8265   6.280   0.703   7.394  2.9130  0.9538 -0.0272
   14MOL   H180 8266   6.386   0.620   7.502 -0.1564 -0.9438 -1.2339
   14MOL   H181 8267   6.083   0.616   7.512 -0.5167  2.8991 -0.1306
   14MOL   H182 8268   6.181   0.545   7.639 -0.1463  0.4385  0.1961
   14MOL   H183 8269   6.092   0.836   7.604 -0.2675 -1.3747 -0.7968
   14MOL   H184 8270   6.264   0.803   7.648 -0.3185  0.2184  1.9261
   14MOL   H185 8271   6.134   0.745   7.743  1.1974  0.7975  0.6601
   14MOL   H186 8272   6.242   7.610   7.078  1.4682 -0.2217  0.8368
   14MOL   H187 8273   6.324   7.762   7.030 -0.5194 -1.6170 -2.4613
   14MOL   C188 8274   6.258   7.733   7.244  0.3885  0.5942  0.4203
   14MOL   O189 8275   6.362   7.656   7.296  0.1928  0.6429  0.5838
   14MOL   C190 8276   6.486   7.707   7.258  0.3955  0.5576  0.0074
   14MOL   C191 8277   6.598   7.612   7.308 -0.1668  0.4313  0.2510
   14MOL   C192 8278   6.619   7.495   7.217  0.0171 -0.5568  0.0976
   14MOL   C193 8279   6.757   7.441   7.241 -0.3508  0.4691 -0.0806
   14MOL   C194 8280   6.792   7.307   7.186  0.2148 -0.2323 -0.9642
   14MOL   C195 8281   6.770   7.185   7.271 -0.6607  0.4204 -0.4937
   14MOL   C196 8282   6.795   7.052   7.191 -0.1071  0.0083  0.0259
   14MOL   C197 8283   6.732   6.932   7.266  0.0902 -0.1624 -0.5364
   14MOL   C198 8284   6.133   7.686   7.325 -0.1353 -0.2067 -0.6464
   14MOL   H199 8285   6.259   0.066   7.260 -3.9245  0.6844  0.6318
   14MOL   H200 8286   6.503   7.728   7.152 -0.8225 -0.7302 -0.4578
   14MOL   H201 8287   6.508   0.029   7.303  1.1800  0.3443  0.0794
   14MOL   H202 8288   6.567   7.580   7.407 -0.2304  2.3775  0.8785
   14MOL   H203 8289   6.693   7.663   7.326 -0.9731  1.7732  0.8090
   14MOL   H204 8290   6.543   7.422   7.244 -2.8737  1.9883 -0.9445
   14MOL   H205 8291   6.612   7.526   7.113 -0.2209  0.8051  0.5148
   14MOL   H206 8292   6.826   7.512   7.197  0.4048 -0.5587 -0.5688
   14MOL   H207 8293   6.773   7.438   7.349 -1.0549 -1.1670  0.0020
   14MOL   H208 8294   6.734   7.290   7.096 -1.0565 -2.7478  0.2643
   14MOL   H209 8295   6.896   7.314   7.152  1.2205 -2.0058  1.5884
   14MOL   H210 8296   6.678   7.194   7.329 -0.3863 -0.7531  0.1391
   14MOL   H211 8297   6.836   7.195   7.358 -1.1947 -0.7717  0.0534
   14MOL   H212 8298   6.752   7.068   7.092 -3.7140  0.5169  1.6012
   14MOL   H213 8299   6.901   7.041   7.168  0.2593 -1.2490  2.2089
   14MOL   H214 8300   6.798   6.916   7.351 -1.1096  2.1689  0.8827
   14MOL   H215 8301   6.737   6.840   7.207  0.2769  0.3531 -1.3206
   14MOL   H216 8302   6.636   6.942   7.316  1.0351 -0.9376  1.4818
   14MOL   H217 8303   6.034   7.727   7.307 -0.3638 -0.1675  0.6318
   14MOL   H218 8304   6.121   7.578   7.309 -1.5181 -0.8251  3.7978
   14MOL   C219 8305   6.155   7.717   7.476  0.4162 -0.3377 -0.0693
   14MOL   O220 8306   6.050   7.657   7.554 -0.1052  0.1807 -0.1208
   14MOL   C221 8307   6.079   7.519   7.594 -0.0046 -0.9020  0.8918
   14MOL   C222 8308   5.947   7.470   7.657  0.0895 -0.0849 -0.6251
   14MOL   C223 8309   5.955   7.328   7.712  0.1038  0.3361 -1.0539
   14MOL   C224 8310   5.855   7.287   0.044 -0.2254  0.4205 -0.3005
   14MOL   C225 8311   5.916   7.175   0.130  0.6989 -0.0025  0.2302
   14MOL   C226 8312   6.051   7.208   0.195  0.7285  0.6636 -0.0624
   14MOL   C227 8313   6.092   7.100   0.302  0.5183  0.0216  0.7268
   14MOL   C228 8314   6.235   7.126   0.352 -0.5956  0.2810 -0.9297
   14MOL   C229 8315   6.137   0.094   7.507  0.7962  0.6197 -0.0141
   14MOL   H230 8316   6.250   7.673   7.506 -0.0993 -2.4886 -1.4374
   14MOL   H231 8317   6.162   7.514   7.664  0.7324  0.2874  0.1239
   14MOL   H232 8318   6.107   7.459   7.507  1.1331 -1.4898  1.6650
   14MOL   H233 8319   5.865   7.467   7.586 -1.2661 -1.2020  0.9530
   14MOL   H234 8320   5.910   7.538   7.734  0.5630  0.7554 -1.1319
   14MOL   H235 8321   5.927   7.260   7.631 -0.2416 -2.6260  1.4541
   14MOL   H236 8322   6.059   7.299   7.727 -0.8478 -2.5338  0.2250
   14MOL   H237 8323   5.849   7.367   0.117 -0.1834 -0.3317  0.5406
   14MOL   H238 8324   5.753   7.262   0.013 -0.2611  1.5643 -1.1365
   14MOL   H239 8325   5.861   7.157   0.223  3.3196 -0.6577  1.7060
   14MOL   H240 8326   5.933   7.082   0.077  1.7126 -0.2515  0.9643
   14MOL   H241 8327   6.040   7.302   0.248 -1.1262 -0.3885  1.4812
   14MOL   H242 8328   6.133   7.229   0.126  1.8397  0.7385  1.2434
   14MOL   H243 8329   6.019   7.088   0.383  0.1248 -1.0408  0.2361
   14MOL   H244 8330   6.095   7.000   0.258  1.2848  0.4924 -0.3091
   14MOL   H245 8331   6.276   7.064   0.432 -0.0526  0.2698 -1.2143
   14MOL   H246 8332   6.235   7.221   0.405  0.8332  0.2559 -0.8723
   14MOL   H247 8333   6.304   7.125   0.268  0.1164  3.1360 -0.4398
   14MOL   H248 8334   6.208   0.147   7.443 -1.5333  1.9406 -1.5764
   14MOL   H249 8335   6.039   0.124   7.470 -0.0242 -1.5255  0.3539
   14MOL   C250 8336   6.186   0.130   7.640  0.1238 -0.0861 -0.3797
   14MOL   O251 8337   6.125   0.252   7.674 -0.5482  0.1934  0.0251
   14MOL   C252 8338   6.000   0.242   7.737 -0.0504 -0.0728  0.0208
   14MOL   C253 8339   5.955   0.376   0.026  0.5886  0.6064 -0.8040
   14MOL   C254 8340   6.022   0.401   0.170 -0.5459  0.3730 -0.1558
   14MOL   C255 8341   6.023   0.544   0.211  0.5268  0.1044  0.1554
   14MOL   C256 8342   6.058   0.558   0.354 -0.0548  0.3348 -0.6702
   14MOL   C257 8343   6.051   0.706   0.399 -0.7872  0.3665  0.3663
   14MOL   C258 8344   6.128   0.744   0.532 -0.0804 -0.9133 -0.0176
   14MOL   C259 8345   6.119   0.898   0.550 -0.3513 -0.2464 -0.4788
   14MOL   C260 8346   6.339   0.135   7.653  0.0301 -0.0926  0.1020
   14MOL   H261 8347   6.164   0.063   7.723  1.2819  0.8653  0.7354
   14MOL   H262 8348   5.997   0.162   0.037  0.2413  0.3122  0.4513
   14MOL   H263 8349   5.932   0.212   7.657 -0.8383 -0.8859  0.9779
   14MOL   H264 8350   5.848   0.377   0.048  0.8992 -0.8874  0.8786
   14MOL   H265 8351   5.982   0.448   7.723  4.0641 -0.5911 -0.8180
   14MOL   H266 8352   5.978   0.336   0.246 -1.7807  0.3495 -0.8694
   14MOL   H267 8353   6.126   0.371   0.165 -0.0738  1.9187  0.3337
   14MOL   H268 8354   6.101   0.597   0.156 -1.5711 -0.1946 -3.2655
   14MOL   H269 8355   5.927   0.583   0.176  0.1066 -1.0505  0.0047
   14MOL   H270 8356   5.991   0.494   0.412  0.8320 -0.3125 -0.3431
   14MOL   H271 8357   6.161   0.522   0.368  0.0375  0.5279 -0.8632
   14MOL   H272 8358   5.948   0.740   0.402 -0.8678  0.0284  1.7422
   14MOL   H273 8359   6.095   0.762   0.316  0.0200  0.6615  0.9936
   14MOL   H274 8360   6.083   0.696   0.619 -0.3695 -1.1147 -0.2750
   14MOL   H275 8361   6.231   0.709   0.533  0.2307 -0.1046 -1.7328
   14MOL   H276 8362   6.183   0.945   0.476  2.7442 -0.7072  1.8322
   14MOL   H277 8363   6.145   0.939   0.648  0.1560 -1.8659  0.0762
   14MOL   H278 8364   6.016   0.931   0.534 -1.0685 -2.2156 -0.0094
   14MOL   H279 8365   6.379   0.034   7.641 -0.8787 -0.3520 -0.8380
   14MOL   H280 8366   6.384   0.187   7.569 -1.1811  1.2689  0.2726
   14MOL   C281 8367   6.392   0.185   0.015 -0.2100  0.7570 -0.0859
   14MOL   O282 8368   6.479   0.296   0.004 -0.2152 -0.0474 -0.3240
   14MOL   C283 8369   6.407   0.414   7.750 -0.0403  1.1135 -0.1968
   14MOL   C284 8370   6.506   0.533   7.750 -0.0048 -0.1398 -0.3085
   14MOL   C285 8371   6.565   0.549   0.120 -0.4919 -0.6392  0.5330
   14MOL   C286 8372   6.644   0.675   0.135 -0.0201 -0.0658 -0.3497
   14MOL   C287 8373   6.774   0.688   0.046 -0.2641  0.1554 -0.4266
   14MOL   C288 8374   6.868   0.806   0.092 -0.0291 -0.5948 -0.5906
   14MOL   C289 8375   7.004   0.786   0.033  0.7107  0.0942 -0.0508
   14MOL   C290 8376   7.080   0.921   0.060  0.1420 -0.3896 -0.5055
   14MOL   C291 8377   6.471   0.086   0.092  0.2118  0.5553 -0.6580
   14MOL   H292 8378   6.301   0.200   0.074  0.8592 -2.0530  2.3858
   14MOL   H293 8379   6.327   0.433   0.048  1.9548 -0.3750  2.4831
   14MOL   H294 8380   6.363   0.407   7.651  1.0950  4.3286 -0.9876
   14MOL   H295 8381   6.469   0.633   7.729  0.3955  0.2655  0.8898
   14MOL   H296 8382   6.585   0.511   7.678  0.0487 -1.6154  0.1827
   14MOL   H297 8383   6.472   0.554   0.177 -1.3655  0.6131 -0.9719
   14MOL   H298 8384   6.620   0.463   0.158  1.9680  0.4490 -0.4705
   14MOL   H299 8385   6.580   0.762   0.132  0.7370  0.4716 -1.1443
   14MOL   H300 8386   6.671   0.664   0.241  1.4099 -0.5833 -0.7536
   14MOL   H301 8387   6.817   0.589   0.038 -0.4117  0.0547 -0.0122
   14MOL   H302 8388   6.737   0.696   7.718  0.0259 -0.7163 -0.6067
   14MOL   H303 8389   6.873   0.826   0.199  0.5884  1.7635 -1.0406
   14MOL   H304 8390   6.821   0.900   0.063 -1.0019 -0.8716  0.0681
   14MOL   H305 8391   7.057   0.695   0.062 -4.0013 -2.6936  0.2208
   14MOL   H306 8392   6.997   0.783   7.698  0.2208  0.1259 -0.0185
   14MOL   H307 8393   7.181   0.910   0.022 -0.9002 -2.8050 -2.7222
   14MOL   H308 8394   7.081   0.936   0.168 -2.1641  1.0195 -0.6353
   14MOL   H309 8395   7.027   1.006   0.016 -1.6708 -0.2929  1.7160
   14MOL   H310 8396   6.555   0.047   0.035  0.1492  0.2214 -0.5257
   14MOL   H311 8397   6.513   0.143   0.175 -1.2064  1.2340 -0.3925
   14MOL   C312 8398   6.386   7.746   0.155 -0.1958 -0.3139  0.0388
   14MOL   O313 8399   6.275   0.027   0.231  0.3618 -0.0043  0.0210
   14MOL   C314 8400   6.153   7.727   0.232  0.2348  0.3722 -0.3116
   14MOL   C315 8401   6.052   7.760   0.342  0.5048  0.2154 -0.3552
   14MOL   C316 8402   5.907   7.713   0.329  0.8964 -0.2974  0.0544
   14MOL   C317 8403   5.806   7.743   0.442  0.0024  0.0617 -0.1060
   14MOL   C318 8404   5.661   0.010   0.409  0.1914 -0.7712  0.1349
   14MOL   C319 8405   5.565   0.001   0.530 -0.6186 -0.6038 -0.6258
   14MOL   C320 8406   5.434   0.082   0.493  0.2697  0.5208  0.5337
   14MOL   C321 8407   5.353   0.006   0.385 -0.4155 -0.0829 -0.5494
   14MOL   C322 8408   6.459   7.646   0.243 -0.6104  0.2928 -0.1199
   14MOL   H323 8409   6.340   7.686   0.076 -1.4852  0.0149  0.5312
   14MOL   H324 8410   6.170   7.620   0.247  0.5597  0.5829  0.9093
   14MOL   H325 8411   6.109   7.722   0.132  0.8541 -1.8344 -0.4969
   14MOL   H326 8412   6.045   0.093   0.357 -0.7873 -0.0805  1.3512
   14MOL   H327 8413   6.083   7.724   0.441 -0.3650 -0.4059 -0.2932
   14MOL   H328 8414   5.876   7.754   0.233  0.5830 -1.8953 -0.5420
   14MOL   H329 8415   5.913   7.604   0.326 -0.1888 -0.3566 -0.5068
   14MOL   H330 8416   5.795   7.647   0.492 -0.6414 -0.8574 -1.9731
   14MOL   H331 8417   5.855   0.024   0.522 -1.9247 -0.2307  1.3082
   14MOL   H332 8418   5.657   0.114   0.379 -1.5729 -0.7322  0.4509
   14MOL   H333 8419   5.620   7.732   0.322  0.3439  1.1543 -1.1125
   14MOL   H334 8420   5.612   0.048   0.616  0.2729 -1.0715 -0.8595
   14MOL   H335 8421   5.544   7.673   0.561 -1.6754  0.6152  2.9654
   14MOL   H336 8422   5.374   0.111   0.579  2.1624  2.4080  1.2605
   14MOL   H337 8423   5.459   0.182   0.457  0.1369  1.0295  1.8150
   14MOL   H338 8424   5.260   0.063   0.382  0.6829  1.9137  1.4635
   14MOL   H339 8425   5.316   7.682   0.417  0.8876 -1.0791 -2.0587
   14MOL   H340 8426   5.411   7.767   0.294  1.6873  0.3660  0.6906
   14MOL   H341 8427   6.512   7.704   0.318  1.2907 -0.2003 -1.0434
   14MOL   H342 8428   6.391   7.575   0.292 -1.2207  0.6449 -0.4537
   14MOL   C343 8429   6.561   7.566   0.169 -0.0773  0.6890  0.1912
   14MOL   O344 8430   6.486   7.509   0.058 -0.0096 -0.1815  0.1566
   14MOL   C345 8431   6.570   7.469   7.728 -0.6875  0.3988 -0.3530
   14MOL   C346 8432   6.528   7.327   7.699  0.8602  0.6503  0.0378
   14MOL   C347 8433   6.375   7.308   7.684 -0.0342 -0.3075  0.1389
   14MOL   C348 8434   6.344   7.179   7.606 -0.2259  0.6202 -0.3408
   14MOL   C349 8435   6.355   7.066   7.712  0.0697  0.3868  0.5608
   14MOL   C350 8436   6.308   6.927   7.662 -0.6741 -0.0293 -0.4541
   14MOL   C351 8437   6.345   6.816   7.762  0.1225 -0.0761  0.0725
   14MOL   C352 8438   6.302   6.678   7.708  0.1663 -0.7242 -0.5248
   14MOL   C353 8439   6.632   7.452   0.241 -0.6053  0.1064  0.1744
   14MOL   H354 8440   6.632   7.635   0.123 -1.3018  0.7712 -1.6364
   14MOL   H355 8441   6.677   7.478   7.745 -0.5868 -2.1631  0.6578
   14MOL   H356 8442   6.552   7.523   7.635  1.7006  0.7372 -0.6399
   14MOL   H357 8443   6.569   7.276   0.012 -0.3857 -0.2000  0.1512
   14MOL   H358 8444   6.586   7.294   7.612  0.7663 -0.7937  0.5077
   14MOL   H359 8445   6.329   7.299   0.008  2.8777  0.3193  1.5999
   14MOL   H360 8446   6.332   7.388   7.624 -0.7022 -0.9056 -0.1829
   14MOL   H361 8447   6.250   7.169   7.552 -0.7645 -1.9571  0.9945
   14MOL   H362 8448   6.417   7.160   7.527 -0.9853  0.5139 -1.0180
   14MOL   H363 8449   6.458   7.063   7.750 -0.3594  0.0201  1.7351
   14MOL   H364 8450   6.291   7.091   0.023 -0.0884 -1.6812  1.0697
   14MOL   H365 8451   6.350   6.900   7.565  1.0223  3.2905 -0.7221
   14MOL   H366 8452   6.200   6.935   7.645 -0.6410  2.3018  0.2793
   14MOL   H367 8453   6.451   6.824   0.012  0.6380  2.6139 -2.6384
   14MOL   H368 8454   6.285   6.841   0.075  0.2477 -2.7664  0.9845
   14MOL   H369 8455   6.344   6.642   7.615  2.0278  0.4548 -0.1626
   14MOL   H370 8456   6.194   6.687   7.696  0.1577 -2.4580 -2.0573
   14MOL   H371 8457   6.316   6.605   0.014  2.3392  2.1212  1.7843
   14MOL   H372 8458   6.558   7.374   0.261  0.6357 -1.3137 -0.6266
   14MOL   H373 8459   6.711   7.409   0.178 -0.6500  0.6234 -0.2362
   14MOL   C374 8460   6.702   7.494   0.375 -0.1029 -0.1350  0.0862
   14MOL   O375 8461   6.807   7.576   0.331 -0.3007  0.2762 -0.5343
   14MOL   C376 8462   6.818   7.707   0.390  0.2250  0.1237  0.0730
   14MOL   C377 8463   6.900   0.024   0.310  0.1375  0.2697  0.3452
   14MOL   C378 8464   6.916   0.156   0.383 -0.2958 -0.3343  0.2425
   14MOL   C379 8465   7.013   0.249   0.311  0.6396 -0.3154 -0.4740
   14MOL   C380 8466   7.034   0.383   0.369  0.4667  0.4004 -0.4530
   14MOL   C381 8467   6.913   0.482   0.355 -0.2069  0.1311  0.0963
   14MOL   C382 8468   6.949   0.623   0.398 -0.1337 -1.0980  0.3756
   14MOL   C383 8469   7.010   0.638   0.538  0.4080 -0.0390 -0.5941
   14MOL   C384 8470   6.778   7.381   0.447 -0.6543  0.4859  0.0143
   14MOL   H385 8471   6.632   7.545   0.442 -0.5444 -1.1470  0.4132
   14MOL   H386 8472   6.877   7.688   0.479  1.9344 -0.4984 -1.1563
   14MOL   H387 8473   6.725   7.760   0.410  1.2167  2.5685 -1.5528
   14MOL   H388 8474   6.859   0.039   0.210 -2.0239  0.0294  1.1792
   14MOL   H389 8475   6.998   7.754   0.294  0.3113  0.5867  0.5251
   14MOL   H390 8476   6.823   0.212   0.391 -0.4549 -0.6086  0.3468
   14MOL   H391 8477   6.949   0.133   0.484  1.6486  0.5712 -0.1807
   14MOL   H392 8478   7.112   0.204   0.315  0.2445 -1.0834  1.4259
   14MOL   H393 8479   6.987   0.255   0.206 -1.2218  2.3075  0.1074
   14MOL   H394 8480   7.042   0.363   0.476 -1.5077  0.8859 -0.2080
   14MOL   H395 8481   7.135   0.419   0.346  2.0060 -1.8562  2.4138
   14MOL   H396 8482   6.833   0.440   0.416 -1.1203  1.5636 -0.0787
   14MOL   H397 8483   6.879   0.479   0.251  2.4448  4.2692 -1.0157
   14MOL   H398 8484   7.016   0.681   0.334 -0.7740 -1.4462 -0.6216
   14MOL   H399 8485   6.861   0.686   0.389 -0.1667 -1.0428  1.0469
   14MOL   H400 8486   7.047   0.735   0.571  0.7764 -0.6632  0.8607
   14MOL   H401 8487   7.094   0.570   0.551  0.3636 -0.2219 -1.2546
   14MOL   H402 8488   6.931   0.620   0.610  1.0914  0.1283  0.2125
   14MOL   H403 8489   6.845   7.332   0.377 -1.0027 -0.3190  0.2326
   14MOL   H404 8490   6.839   7.429   0.523  1.3236 -0.4354 -0.9630
   14MOL   C405 8491   6.680   7.280   0.522 -0.6638 -0.1388 -0.1543
   14MOL   O406 8492   6.592   7.358   0.600 -0.0267  0.1719 -0.7064
   14MOL   C407 8493   6.460   7.325   0.571  0.2880  0.3824 -0.1255
   14MOL   C408 8494   6.383   7.436   0.639  0.6856  0.3825 -0.7959
   14MOL   C409 8495   6.229   7.432   0.627  0.3519 -0.1816  0.9677
   14MOL   C410 8496   6.165   7.538   0.708  0.5143  0.3631 -0.5471
   14MOL   C411 8497   6.017   7.509   0.704 -0.6488 -0.4005 -0.0587
   14MOL   C412 8498   5.928   7.600   0.795 -0.1560  0.2741  0.4886
   14MOL   C413 8499   5.791   7.539   0.816 -0.9613  0.4753  0.7630
   14MOL   C414 8500   5.718   7.622   0.915  0.6180  0.4599  0.8234
   14MOL   C415 8501   6.751   7.198   0.625  0.0477  0.3024  0.0996
   14MOL   H416 8502   6.637   7.215   0.445 -1.6364 -1.1339  1.2105
   14MOL   H417 8503   6.443   7.233   0.627  0.9363 -0.4178 -1.2205
   14MOL   H418 8504   6.430   7.319   0.467 -0.1624  0.2438  0.0103
   14MOL   H419 8505   6.414   7.533   0.601  0.9374 -0.4541 -2.7395
   14MOL   H420 8506   6.406   7.427   0.745  0.6872  1.6824 -0.6675
   14MOL   H421 8507   6.188   7.429   0.526  0.3782 -2.1156  1.0018
   14MOL   H422 8508   6.204   7.332   0.664  0.1280  0.2806  2.0967
   14MOL   H423 8509   6.205   7.538   0.810  2.3107  0.4374 -1.2341
   14MOL   H424 8510   6.194   7.639   0.678  1.1510  1.1181  2.3815
   14MOL   H425 8511   5.981   7.509   0.602 -1.5787 -0.8516  0.2627
   14MOL   H426 8512   6.001   7.406   0.736  4.8528 -1.9862 -1.8916
   14MOL   H427 8513   5.910   7.699   0.753 -0.7967  0.1731  0.5112
   14MOL   H428 8514   5.982   7.617   0.888  0.0517  2.7786 -0.0581
   14MOL   H429 8515   5.737   7.545   0.721 -0.3506  2.7221  0.5476
   14MOL   H430 8516   5.807   7.439   0.856  0.6455  0.2383 -0.4308
   14MOL   H431 8517   5.712   7.726   0.881  4.0154  0.7919  1.1279
   14MOL   H432 8518   5.780   7.627   1.005 -3.1271 -0.2977  3.5958
   14MOL   H433 8519   5.619   7.584   0.939 -0.7859  4.8516  2.5831
   14MOL   H434 8520   6.792   7.258   0.706 -0.6104  0.5466  0.2582
   14MOL   H435 8521   6.672   7.144   0.677 -0.5791 -1.6313 -2.7594
   14MOL   C436 8522   6.863   7.106   0.575 -0.3836 -0.0227  0.3564
   14MOL   O437 8523   6.807   7.038   0.459 -0.1281 -0.4915 -0.0984
   14MOL   C438 8524   6.905   6.976   0.376 -0.0077  0.5605  0.8967
   14MOL   C439 8525   6.854   6.963   0.225 -0.0067  0.4015  0.2124
   14MOL   C440 8526   6.837   7.101   0.150 -0.0332 -0.3400  0.1958
   14MOL   C441 8527   6.786   7.100   0.007 -0.5162 -0.2990  0.2846
   14MOL   C442 8528   6.850   7.003   7.678  0.6118 -0.5901 -0.1203
   14MOL   C443 8529   7.007   7.013   7.690  0.0386 -0.0413  0.2975
   14MOL   C444 8530   7.092   6.947   7.577 -0.2288 -0.4438 -0.4261
   14MOL   C445 8531   7.239   6.967   7.612  0.2054  0.9617 -0.0151
   14MOL   C446 8532   6.896   6.995   0.672  0.6174  0.4823  0.3648
   14MOL   H447 8533   6.946   7.172   0.549 -0.4694  0.1907  0.6287
   14MOL   H448 8534   7.006   7.015   0.378  0.5090 -0.7636  1.4471
   14MOL   H449 8535   6.919   6.876   0.418 -0.3957  0.9160  1.8897
   14MOL   H450 8536   6.766   6.903   0.203 -1.0727  2.2698 -0.7067
   14MOL   H451 8537   6.929   6.910   0.165 -1.1484 -1.7319  0.6199
   14MOL   H452 8538   6.764   7.157   0.208  2.8976  2.3292  1.5073
   14MOL   H453 8539   6.929   7.160   0.160  1.0108 -1.7843 -0.6801
   14MOL   H454 8540   6.681   7.073   0.017 -0.4513  0.0259  2.0354
   14MOL   H455 8541   6.796   7.203   7.748  0.5275  0.0422  1.5964
   14MOL   H456 8542   6.815   6.901   7.691  4.1522 -1.6663  1.8009
   14MOL   H457 8543   6.829   7.030   7.575  3.0907 -0.8656 -0.7169
   14MOL   H458 8544   7.039   6.980   0.015 -0.7285  0.2090  0.6377
   14MOL   H459 8545   7.034   7.119   7.685 -0.9002  0.1953  0.1738
   14MOL   H460 8546   7.069   6.843   7.554 -0.2627 -0.2218 -1.3976
   14MOL   H461 8547   7.091   7.001   7.482 -2.0554  0.2371 -0.0355
   14MOL   H462 8548   7.268   6.897   7.690 -0.1446  0.3359 -0.4440
   14MOL   H463 8549   7.255   7.070   7.645 -0.8508  0.7285  1.2635
   14MOL   H464 8550   7.308   6.936   7.534 -1.6912 -0.4140 -1.2093
   14MOL   H465 8551   6.806   6.955   0.721 -0.9759  1.5772 -1.5987
   14MOL   H466 8552   6.939   6.907   0.625 -1.4849  0.3404 -1.3713
   14MOL   C467 8553   6.987   7.027   0.792 -0.1675 -0.1435 -0.1307
   14MOL   O468 8554   7.099   7.081   0.718 -0.1109 -0.6227 -0.4069
   14MOL   C469 8555   7.188   7.166   0.790  0.3755 -0.1697  0.0530
   14MOL   C470 8556   7.235   7.261   0.685 -0.3422  0.0012  0.0811
   14MOL   C471 8557   7.139   7.383   0.651  0.5142  0.6612  0.1832
   14MOL   C472 8558   7.179   7.459   0.523  0.4459 -0.3190  0.6024
   14MOL   C473 8559   7.167   7.379   0.390  0.2328 -0.4768 -0.0709
   14MOL   C474 8560   7.172   7.468   0.269 -0.1451 -0.1859  0.4177
   14MOL   C475 8561   7.102   7.410   0.149 -0.8506  0.8208 -0.5365
   14MOL   C476 8562   7.105   7.492   0.025 -0.6396 -0.0772  0.4263
   14MOL   C477 8563   7.048   6.903   0.864 -0.7583 -0.4904  0.0066
   14MOL   H478 8564   6.950   7.099   0.865  2.6806 -0.3156  1.5816
   14MOL   H479 8565   7.270   7.123   0.846 -0.4440 -1.3786  0.3561
   14MOL   H480 8566   7.141   7.218   0.873  2.9999  1.8690  0.3061
   14MOL   H481 8567   7.260   7.202   0.596  2.9400  0.2197  0.7953
   14MOL   H482 8568   7.329   7.300   0.722 -0.3419 -0.8648  1.0280
   14MOL   H483 8569   7.036   7.347   0.649  0.8560 -0.2638 -2.0859
   14MOL   H484 8570   7.148   7.459   0.729  0.7818  1.5370 -0.6967
   14MOL   H485 8571   7.116   7.546   0.506 -0.9828 -1.6210 -1.0497
   14MOL   H486 8572   7.281   7.495   0.534 -0.4514  2.1338  1.0608
   14MOL   H487 8573   7.246   7.304   0.376  0.0713 -0.5859 -0.3879
   14MOL   H488 8574   7.073   7.324   0.396  0.2411 -0.4619  0.2113
   14MOL   H489 8575   7.278   7.477   0.245 -0.7880  1.3557 -2.0674
   14MOL   H490 8576   7.144   7.571   0.294  1.6311  0.5604 -0.5201
   14MOL   H491 8577   7.149   7.315   0.122 -2.2700 -0.0391 -0.0350
   14MOL   H492 8578   7.001   7.395   0.185 -0.8805  1.6793 -0.2557
   14MOL   H493 8579   7.200   7.496   7.746 -1.1549 -5.0047 -1.0779
   14MOL   H494 8580   7.063   7.586   0.062  2.2667  0.5231  2.3595
   14MOL   H495 8581   7.036   7.435   7.737 -1.0412 -0.3636  1.1117
   14MOL   H496 8582   7.082   6.831   0.790  0.0182 -0.8031  0.6539
   14MOL   H497 8583   7.136   6.934   0.921  0.5566 -1.5141 -1.4121
   14MOL   C498 8584   6.947   6.822   0.950 -0.1360 -0.2140 -0.2322
   14MOL   O499 8585   6.899   6.923   1.039 -0.3169 -0.1877 -0.3777
   14MOL   C500 8586   6.760   6.901   1.075  0.0241 -0.2804 -0.3834
   14MOL   C501 8587   6.746   6.941   1.224 -0.1346 -0.0177 -0.2433
   14MOL   C502 8588   6.819   6.844   1.319 -0.2889  0.1555  0.8112
   14MOL   C503 8589   6.804   6.886   1.466 -0.1270 -0.5072 -0.9950
   14MOL   C504 8590   6.912   6.818   1.556 -0.0134  0.2986  0.0093
   14MOL   C505 8591   7.042   6.897   1.526  0.1662  0.7577 -0.1799
   14MOL   C506 8592   7.144   6.876   1.636 -0.1159 -0.4917 -0.0036
   14MOL   C507 8593   7.269   6.965   1.632 -0.4083  0.4005 -0.2155
   14MOL   C508 8594   7.026   6.719   1.039 -0.3202 -0.0786 -0.3529
   14MOL   H509 8595   6.873   6.771   0.888 -1.6657 -1.2068  2.3513
   14MOL   H510 8596   6.741   6.794   1.077 -0.6548 -0.1774 -1.1878
   14MOL   H511 8597   6.685   6.952   1.015 -0.5184 -0.6334 -0.0078
   14MOL   H512 8598   6.638   6.949   1.239 -0.1239 -2.7767  1.5961
   14MOL   H513 8599   6.776   7.045   1.238 -1.9007  0.5336 -0.5024
   14MOL   H514 8600   6.780   6.742   1.319 -0.2642  0.1434 -0.0742
   14MOL   H515 8601   6.922   6.836   1.283 -0.4588 -0.4338  0.4505
   14MOL   H516 8602   6.796   6.993   1.481  0.7757 -0.8616  2.4025
   14MOL   H517 8603   6.709   6.851   1.507 -0.0331  0.2179 -0.1583
   14MOL   H518 8604   6.881   6.829   1.660 -0.3226  1.7391 -0.2211
   14MOL   H519 8605   6.936   6.712   1.549 -1.1458  0.1015 -1.0499
   14MOL   H520 8606   7.020   7.004   1.519 -0.0652  0.5804 -2.5213
   14MOL   H521 8607   7.085   6.877   1.428 -0.3760  1.5524 -0.5884
   14MOL   H522 8608   7.104   6.911   1.731 -1.4175  2.6957 -1.6359
   14MOL   H523 8609   7.180   6.773   1.638  0.2535 -0.3609  0.1198
   14MOL   H524 8610   7.334   6.938   1.715 -1.7805 -0.4307  0.6254
   14MOL   H525 8611   7.243   7.063   1.671  2.5901  1.0555  0.2491
   14MOL   H526 8612   7.327   6.969   1.540 -1.3576 -0.3556 -0.8719
   14MOL   H527 8613   7.104   6.766   1.100 -1.1998  1.9313 -0.7299
   14MOL   H528 8614   6.956   6.679   1.111  0.1991 -1.4172 -0.5860
   14MOL   C529 8615   7.080   6.611   0.952 -0.3045  0.7901 -0.0032
   14MOL   O530 8616   6.979   6.556   0.872  0.7638 -0.2106  0.2442
   14MOL   C531 8617   7.003   6.543   0.731  0.2609 -0.2591 -0.5034
   14MOL   C532 8618   6.889   6.455   0.674  0.0246 -0.4236 -0.1647
   14MOL   C533 8619   6.890   6.307   0.728  0.0958 -1.1139  0.1147
   14MOL   C534 8620   6.774   6.234   0.666 -0.2824 -0.1297  0.3477
   14MOL   C535 8621   6.749   6.105   0.735 -0.1244  0.4184  0.5765
   14MOL   C536 8622   6.635   6.023   0.684 -0.0243 -0.1918  0.3450
   14MOL   C537 8623   6.621   5.880   0.746  0.0315  0.6602  0.5230
   14MOL   C538 8624   6.617   5.877   0.900 -0.1914 -0.2182  0.0576
   14MOL   C539 8625   7.156   6.507   1.034 -0.2297  0.5302 -0.0473
   14MOL   H540 8626   7.154   6.664   0.891 -0.7663  2.1254  0.5663
   14MOL   H541 8627   6.985   6.636   0.677 -3.2092 -0.0157  0.9302
   14MOL   H542 8628   7.101   6.500   0.711 -0.0454 -0.8136 -0.8009
   14MOL   H543 8629   6.905   6.461   0.566 -0.9089  1.9559 -0.1936
   14MOL   H544 8630   6.800   6.513   0.699  0.1411 -0.2040 -0.2592
   14MOL   H545 8631   6.986   6.262   0.703 -0.0962 -1.6343  0.3108
   14MOL   H546 8632   6.893   6.299   0.836 -0.0237  0.6004  0.2644
   14MOL   H547 8633   6.681   6.291   0.671 -0.5240 -0.5781  1.0314
   14MOL   H548 8634   6.789   6.207   0.562  0.3081 -1.3402  0.7396
   14MOL   H549 8635   6.846   6.058   0.717  1.0338  2.6527  0.7945
   14MOL   H550 8636   6.736   6.117   0.843  0.5872 -0.0484  0.7246
   14MOL   H551 8637   6.646   6.014   0.576 -1.5479 -0.9126  0.2326
   14MOL   H552 8638   6.543   6.080   0.697 -0.5652 -0.6212 -1.4004
   14MOL   H553 8639   6.532   5.828   0.710  0.7620 -0.0294 -0.3050
   14MOL   H554 8640   6.709   5.820   0.725 -0.2633  0.5760 -0.5128
   14MOL   H555 8641   6.608   5.774   0.935  0.6108 -0.2040  0.3142
   14MOL   H556 8642   6.532   5.931   0.942 -1.1466 -0.2033 -1.8581
   14MOL   H557 8643   6.703   5.917   0.954  1.0065 -1.3167 -1.0396
   14MOL   H558 8644   7.220   6.569   1.098 -0.3535  1.1917 -0.5523
   14MOL   H559 8645   7.089   6.460   1.105 -0.5472  1.1509  0.0702
   14MOL   C560 8646   7.245   6.406   0.969 -0.0854  0.6037 -0.3124
   14MOL   O561 8647   7.310   6.343   1.075  0.2124  0.1792  0.6047
   14MOL   C562 8648   7.241   6.241   1.133  0.4437 -0.5478  0.4010
   14MOL   C563 8649   7.325   6.205   1.255  0.2941  0.2266  0.2048
   14MOL   C564 8650   7.465   6.144   1.220 -0.2761 -0.2549  0.2247
   14MOL   C565 8651   7.530   6.092   1.352 -0.2654  0.6761  0.1563
   14MOL   C566 8652   7.506   5.945   1.380  0.0998  0.0332 -0.0360
   14MOL   C567 8653   7.581   5.854   1.286 -0.1643 -0.8602 -0.1220
   14MOL   C568 8654   7.529   5.705   1.300 -0.5279 -0.2825 -0.0754
   14MOL   C569 8655   7.565   5.620   1.180 -0.1670 -0.5347 -0.2623
   14MOL   C570 8656   7.355   6.468   0.885 -0.0571 -0.2597  1.1248
   14MOL   H571 8657   7.186   6.336   0.908 -1.2273  0.2878  1.1221
   14MOL   H572 8658   7.239   6.153   1.069  2.1178 -0.0951 -0.2917
   14MOL   H573 8659   7.139   6.267   1.164  0.6772  0.3209  0.4500
   14MOL   H574 8660   7.283   6.128   1.319  0.7452  1.2456  1.7584
   14MOL   H575 8661   7.333   6.300   1.309  2.6298 -0.3043  0.8814
   14MOL   H576 8662   7.449   6.066   1.145 -0.6654 -1.3469  1.4173
   14MOL   H577 8663   7.520   6.229   1.181 -1.2892  0.2973 -0.0355
   14MOL   H578 8664   7.635   6.120   1.356 -0.0317  0.1685 -1.9816
   14MOL   H579 8665   7.487   6.155   1.430  1.3442  1.3748  0.5070
   14MOL   H580 8666   7.540   5.923   1.481  0.0669  1.2212  0.2383
   14MOL   H581 8667   7.400   5.922   1.378  0.6886 -3.2105  2.2257
   14MOL   H582 8668   7.685   5.866   1.316 -0.8255  0.1782  1.9055
   14MOL   H583 8669   7.558   5.881   1.183 -1.2887 -2.2563 -0.2617
   14MOL   H584 8670   7.574   5.659   1.388 -1.0173 -1.4138 -0.3996
   14MOL   H585 8671   7.421   5.695   1.314 -0.9267  0.9838 -2.0929
   14MOL   H586 8672   7.672   5.607   1.168 -0.1160  0.9052 -1.5831
   14MOL   H587 8673   7.516   5.639   1.084  0.1594 -4.1407 -1.2135
   14MOL   H588 8674   7.537   5.517   1.201  0.1251 -0.3575  1.0073
   14MOL   H589 8675   7.324   6.531   0.801  3.4748  1.1864  0.8180
   14MOL   H590 8676   7.405   6.538   0.952 -2.7162  2.3938  0.4346
   14MOL   C591 8677   7.455   6.367   0.827  0.0184  0.4729 -0.5962
   14MOL   O592 8678   7.549   6.445   0.758 -0.2828  0.1678 -0.3464
   14MOL   C593 8679   7.671   6.378   0.725  0.0007  0.3076 -0.2950
   14MOL   C594 8680   7.765   6.479   0.665 -0.1058 -0.8718  0.1130
   14MOL   C595 8681   7.717   6.536   0.525  0.2404 -0.3005  0.3090
   14MOL   C596 8682   0.041   6.640   0.463 -0.3042  0.2185  0.5025
   14MOL   C597 8683   0.039   6.629   0.314  0.0233  0.3701  0.8586
   14MOL   C598 8684   7.689   6.689   0.249  0.0556 -0.1759  0.0259
   14MOL   C599 8685   7.692   6.688   0.092  0.1594  0.4365  0.0966
   14MOL   C600 8686   7.576   6.771   0.021 -0.2016 -0.0719 -0.1189
   14MOL   C601 8687   7.384   6.270   0.741  0.5932  0.6483 -0.5878
   14MOL   H602 8688   7.499   6.320   0.916  1.0335 -0.7320 -1.7167
   14MOL   H603 8689   7.660   6.283   0.672 -2.0070 -0.6934  1.8247
   14MOL   H604 8690   7.715   6.348   0.820 -1.5468  3.2102  1.3870
   14MOL   H605 8691   0.090   6.434   0.665 -0.4229 -1.5901  1.2526
   14MOL   H606 8692   7.766   6.564   0.734 -1.6545 -0.4242 -0.4058
   14MOL   H607 8693   7.685   6.462   0.452 -0.9983  1.5421 -1.0367
   14MOL   H608 8694   7.621   6.585   0.537 -0.3571 -1.2515 -0.4948
   14MOL   H609 8695   0.029   6.745   0.493 -0.8963  0.3766 -0.2811
   14MOL   H610 8696   0.140   6.632   0.509 -0.3866  1.1878  0.8776
   14MOL   H611 8697   0.119   6.694   0.281 -0.4464  0.2968 -0.4510
   14MOL   H612 8698   0.056   6.525   0.286 -1.7171  0.7959 -2.0169
   14MOL   H613 8699   7.682   6.790   0.290  0.4916  0.3810 -1.2369
   14MOL   H614 8700   7.593   6.640   0.266 -0.9379  1.7655  0.2471
   14MOL   H615 8701   0.015   6.732   0.071  1.5771 -1.7038  1.8943
   14MOL   H616 8702   7.694   6.590   0.045  0.2916  0.1862  0.6163
   14MOL   H617 8703   7.593   6.770   7.688  1.7537  0.7083  0.1644
   14MOL   H618 8704   7.580   6.878   0.041  1.9930 -0.2293  0.3496
   14MOL   H619 8705   7.473   6.750   0.049 -0.3188 -0.3152 -0.7339
   14MOL   H620 8706   7.461   6.226   0.678  1.4221 -0.3462  1.0714
   14MOL   H621 8707   7.335   6.187   0.791  0.3099  0.3952 -1.2870
   14MOL   H622 8708   7.321   6.329   0.675 -0.5097 -0.7535 -0.8297
   15MOL     C1 8709   5.305   4.094   3.305 -0.2758 -0.3817  0.6787
   15MOL     O2 8710   5.425   4.091   3.382  0.2982  0.3163  0.5097
   15MOL     C3 8711   5.441   3.979   3.472  0.6377  0.4378  0.4056
   15MOL     C4 8712   5.578   3.999   3.536  0.0910 -0.4714 -0.0068
   15MOL     C5 8713   5.606   3.876   3.628  0.3941 -0.5177 -0.4939
   15MOL     C6 8714   5.742   3.882   3.699 -0.6016 -0.1557  0.4928
   15MOL     C7 8715   5.767   3.752   3.787  0.1641 -0.4086 -0.1518
   15MOL     C8 8716   5.896   3.760   3.857  0.7153 -1.2363 -0.1413
   15MOL     C9 8717   5.923   3.637   3.945 -0.2687 -0.4031  0.1017
   15MOL    C10 8718   6.066   3.633   3.999 -0.6921 -0.4692  0.0660
   15MOL    C11 8719   5.312   4.227   3.222  1.1454 -0.3106  0.6021
   15MOL    H12 8720   5.313   4.003   3.246  2.7181  1.2238 -1.5524
   15MOL    H13 8721   5.444   3.882   3.421 -1.1334  0.5917  0.0091
   15MOL    H14 8722   5.365   3.982   3.550  1.9673 -0.9510  1.7974
   15MOL    H15 8723   5.561   4.094   3.586 -0.8944  0.7304 -2.5511
   15MOL    H16 8724   5.656   4.018   3.463 -0.6834 -0.8546 -0.9456
   15MOL    H17 8725   5.534   3.871   3.710  0.6042  0.6063 -0.2375
   15MOL    H18 8726   5.590   3.788   3.565  0.8916  0.7480 -2.4344
   15MOL    H19 8727   5.815   3.871   3.619 -0.3038 -1.8641  0.9614
   15MOL    H20 8728   5.753   3.971   3.760  2.0794 -1.3644  1.8605
   15MOL    H21 8729   5.683   3.731   3.854  0.3245  2.7908  1.1658
   15MOL    H22 8730   5.772   3.670   3.716 -0.3267 -1.5564  1.1086
   15MOL    H23 8731   5.902   3.853   3.913 -0.8974 -0.7839 -0.6833
   15MOL    H24 8732   5.968   3.758   3.775 -1.7580  0.4208 -2.4250
   15MOL    H25 8733   5.851   3.618   4.024  0.9685 -1.0491  1.0990
   15MOL    H26 8734   5.913   3.558   3.871  1.0843  1.8147 -2.5716
   15MOL    H27 8735   6.095   3.723   4.052  0.0597 -0.7999  0.2249
   15MOL    H28 8736   6.149   3.618   3.930 -1.7760  0.6303 -1.5120
   15MOL    H29 8737   6.075   3.555   4.075 -1.2681  1.2354  1.9106
   15MOL    H30 8738   5.297   4.309   3.292  1.2517 -0.1343  0.4162
   15MOL    H31 8739   5.406   4.242   3.170  0.9889 -0.4221  0.2824
   15MOL    H32 8740   5.222   4.098   3.375 -0.2503  2.3324  0.6203
   15MOL    C33 8741   5.197   4.241   3.117 -0.7406  0.2026  0.3992
   15MOL    O34 8742   5.194   4.356   3.024  0.3522  0.2000  1.1688
   15MOL    C35 8743   5.249   4.473   3.086 -0.2960  0.2017  0.0799
   15MOL    C36 8744   5.222   4.592   2.995  0.0916 -0.2078 -0.3956
   15MOL    C37 8745   5.067   4.604   2.966 -0.0690 -0.5589  0.1912
   15MOL    C38 8746   5.040   4.727   2.874 -0.4109  0.0490  0.0356
   15MOL    C39 8747   4.901   4.789   2.896  0.1318  0.4436  0.3357
   15MOL    C40 8748   4.854   4.899   2.805 -0.0286 -0.2750  0.8703
   15MOL    C41 8749   4.704   4.937   2.819  0.4148  0.3152 -1.0989
   15MOL    C42 8750   4.684   5.082   2.783  0.1215 -0.7970 -0.5150
   15MOL    C43 8751   5.059   4.240   3.191 -0.3216 -0.2711 -0.0522
   15MOL    H44 8752   5.199   4.152   3.054  0.8122  0.5367 -0.0276
   15MOL    H45 8753   5.355   4.457   3.104 -0.6935 -1.3136  1.1843
   15MOL    H46 8754   5.205   4.495   3.184 -0.1795 -0.9004  0.3889
   15MOL    H47 8755   5.270   4.592   2.898  0.9832  2.0974 -0.0017
   15MOL    H48 8756   5.255   4.683   3.046 -1.1784  0.2777 -0.4014
   15MOL    H49 8757   5.044   4.514   2.908 -2.6504 -0.2694  0.6952
   15MOL    H50 8758   5.010   4.604   3.059  2.2958  0.7956  1.6626
   15MOL    H51 8759   5.118   4.801   2.891  0.2434 -0.5106 -0.4656
   15MOL    H52 8760   5.030   4.699   2.769 -0.6408 -0.2611  0.1394
   15MOL    H53 8761   4.820   4.717   2.887  0.5154  0.1185 -0.5695
   15MOL    H54 8762   4.885   4.828   2.997 -2.5609  0.4440 -0.0709
   15MOL    H55 8763   4.869   4.875   2.700 -2.5488 -1.2778  0.7017
   15MOL    H56 8764   4.920   4.985   2.822 -0.7596  1.2645 -3.5230
   15MOL    H57 8765   4.636   4.872   2.763  1.2144 -2.5850  1.1685
   15MOL    H58 8766   4.660   4.920   2.918 -2.4601  0.6877 -2.2503
   15MOL    H59 8767   4.578   5.109   2.786  0.1566 -0.6690 -0.4392
   15MOL    H60 8768   4.716   5.109   2.683 -0.1306 -0.4469 -0.4992
   15MOL    H61 8769   4.734   5.147   2.854  2.3209 -0.9346 -1.8752
   15MOL    H62 8770   5.051   4.158   3.262  1.4076 -2.1469 -1.9220
   15MOL    H63 8771   5.051   4.336   3.242 -0.6014  0.2051 -0.9818
   15MOL    C64 8772   4.932   4.252   3.107 -1.1686 -0.3060  0.7411
   15MOL    O65 8773   4.824   4.278   3.198 -0.3367 -0.1261 -0.3075
   15MOL    C66 8774   4.726   4.358   3.137 -0.3289 -0.2946  0.2631
   15MOL    C67 8775   4.594   4.354   3.225 -1.1112 -0.2013 -0.3604
   15MOL    C68 8776   4.531   4.213   3.186  1.1299 -0.0529 -0.3815
   15MOL    C69 8777   4.438   4.153   3.300  0.3677 -0.3487 -0.1770
   15MOL    C70 8778   4.391   4.012   3.280 -1.1001  0.1596  0.5976
   15MOL    C71 8779   4.353   3.946   3.410 -0.2727 -0.2375  0.6831
   15MOL    C72 8780   4.277   3.819   3.396  0.0464 -0.1694 -0.3187
   15MOL    C73 8781   4.354   3.706   3.328  0.0454  0.1934 -0.3490
   15MOL    C74 8782   4.896   4.124   3.031 -0.2579 -0.2184  0.2852
   15MOL    H75 8783   4.954   4.335   3.040  0.1577  0.8626  2.5783
   15MOL    H76 8784   4.707   4.345   3.030 -1.0629  1.7557  0.1361
   15MOL    H77 8785   4.765   4.459   3.126  0.9349 -0.6145  1.6747
   15MOL    H78 8786   4.528   4.439   3.205  0.9467  1.1260 -1.7196
   15MOL    H79 8787   4.626   4.364   3.328 -0.7445  1.5267 -0.6186
   15MOL    H80 8788   4.484   4.216   3.088  1.5290 -1.1368 -0.6094
   15MOL    H81 8789   4.610   4.140   3.166 -0.7005 -1.6886 -1.8720
   15MOL    H82 8790   4.492   4.156   3.394  2.1007  1.2996 -1.1803
   15MOL    H83 8791   4.355   4.223   3.307  1.9735  1.4803  1.2181
   15MOL    H84 8792   4.322   3.996   3.197  1.0534 -0.7695 -1.0705
   15MOL    H85 8793   4.477   3.956   3.242 -1.7296 -0.8321  0.6294
   15MOL    H86 8794   4.294   4.020   3.466 -0.1478  1.6940 -1.6470
   15MOL    H87 8795   4.436   3.928   3.479 -0.4848  2.2441  1.6673
   15MOL    H88 8796   4.261   3.784   3.498  0.7964 -2.2571 -0.8885
   15MOL    H89 8797   4.181   3.836   3.348 -0.9709 -1.2642  1.2706
   15MOL    H90 8798   4.342   3.696   3.220  2.4956 -1.1118 -0.5347
   15MOL    H91 8799   4.313   3.607   3.352 -1.0133  0.5059 -0.8278
   15MOL    H92 8800   4.458   3.726   3.351  0.1818  0.3170 -1.0607
   15MOL    H93 8801   4.922   4.042   3.099 -1.0064  0.8659  1.9172
   15MOL    H94 8802   4.788   4.117   3.020 -0.2372  0.1783 -0.1389
   15MOL    C95 8803   4.960   4.098   2.892 -0.0488 -0.4432  0.1044
   15MOL    O96 8804   4.878   4.182   2.813  0.3575 -0.1194 -0.0806
   15MOL    C97 8805   4.934   4.238   2.693  0.5510  0.5312 -0.4659
   15MOL    C98 8806   4.824   4.249   2.589  0.0304  0.7511  0.8427
   15MOL    C99 8807   4.740   4.116   2.564  0.3354 -0.8295 -0.0077
   15MOL   C100 8808   4.612   4.150   2.483  0.6714  0.2578  0.5564
   15MOL   C101 8809   4.525   4.023   2.444 -0.9549  0.2441 -0.0797
   15MOL   C102 8810   4.575   3.965   2.314 -0.1941 -0.2335  0.1583
   15MOL   C103 8811   4.503   3.835   2.276  0.9872 -0.0211  0.1908
   15MOL   C104 8812   4.528   3.792   2.132  0.1736 -0.7148 -0.1782
   15MOL   C105 8813   4.968   3.949   2.851  0.8639 -0.6006  0.1304
   15MOL   H106 8814   5.061   4.138   2.885  0.4461 -1.4874  0.9887
   15MOL   H107 8815   5.017   4.174   2.660 -0.3466 -1.5812  1.2564
   15MOL   H108 8816   4.975   4.334   2.722  0.9174  0.0090  0.7561
   15MOL   H109 8817   4.864   4.286   2.495  0.6137 -0.7449  0.4771
   15MOL   H110 8818   4.756   4.328   2.621 -0.2425  0.3546  1.2525
   15MOL   H111 8819   4.799   4.044   2.508 -1.3969  0.6777 -3.9327
   15MOL   H112 8820   4.716   4.071   2.660  0.7504  1.9714  1.4787
   15MOL   H113 8821   4.542   4.217   2.533  0.8355  0.2645  0.7816
   15MOL   H114 8822   4.642   4.201   2.392 -0.4007  1.1423  0.6972
   15MOL   H115 8823   4.511   3.950   2.524 -0.3136  0.8935  0.6431
   15MOL   H116 8824   4.424   4.043   2.410 -0.3165  2.5246 -0.7173
   15MOL   H117 8825   4.681   3.945   2.302 -0.0045  1.1436 -0.5778
   15MOL   H118 8826   4.551   4.032   2.231 -1.7112 -0.7444  0.1579
   15MOL   H119 8827   4.523   3.762   2.354  0.6810 -1.4688 -1.0655
   15MOL   H120 8828   4.397   3.857   2.285  0.9674 -0.0861  0.1141
   15MOL   H121 8829   4.633   3.787   2.103 -0.9344 -0.4108 -4.5086
   15MOL   H122 8830   4.491   3.873   2.070 -0.6272  0.3153  1.6169
   15MOL   H123 8831   4.469   3.704   2.107  0.1921 -0.2243 -1.9838
   15MOL   H124 8832   4.890   3.896   2.905 -0.7014  1.8125  0.3021
   15MOL   H125 8833   4.946   3.962   2.745  2.6069  1.6657  0.0054
   15MOL   C126 8834   5.100   3.884   2.859 -0.2615  0.6886  0.2164
   15MOL   O127 8835   5.083   3.762   2.783 -0.2893 -0.2855 -0.3053
   15MOL   C128 8836   5.152   3.753   2.659 -0.2863 -0.2430 -0.3758
   15MOL   C129 8837   5.098   3.647   2.561 -0.1919 -0.1718  0.4679
   15MOL   C130 8838   4.953   3.669   2.515  0.0127 -0.4207 -0.1679
   15MOL   C131 8839   4.888   3.530   2.473 -1.2872  0.3108 -0.8407
   15MOL   C132 8840   4.736   3.541   2.439 -0.2289 -0.1650  0.7080
   15MOL   C133 8841   4.649   3.563   2.561  0.9460 -0.2208  0.9180
   15MOL   C134 8842   4.511   3.510   2.532  0.4801  0.1820 -0.3705
   15MOL   C135 8843   4.395   3.563   2.620 -0.8693 -0.2205 -0.4866
   15MOL   C136 8844   5.149   3.839   2.995  0.8662 -0.4391  0.0626
   15MOL   H137 8845   5.170   3.952   2.811  0.8947  0.0984  1.0367
   15MOL   H138 8846   5.259   3.747   2.680 -0.0014 -0.0769 -1.7423
   15MOL   H139 8847   5.137   3.850   2.611  1.0380  0.1278 -0.0600
   15MOL   H140 8848   5.122   3.550   2.606  0.3082  0.3335  1.2921
   15MOL   H141 8849   5.165   3.644   2.475  1.8194  1.1753  1.9571
   15MOL   H142 8850   4.899   3.714   2.599  0.1094 -0.8955  0.1490
   15MOL   H143 8851   4.968   3.738   2.432 -1.2858  1.8955  1.4601
   15MOL   H144 8852   4.946   3.499   2.386  0.5808 -0.4377  0.6124
   15MOL   H145 8853   4.899   3.456   2.552 -2.3874  0.3693 -0.6260
   15MOL   H146 8854   4.718   3.623   2.369  0.6994 -0.8312 -0.3334
   15MOL   H147 8855   4.698   3.453   2.387  0.2499 -0.5046  0.9247
   15MOL   H148 8856   4.645   3.671   2.576  0.5678 -0.2883  1.3306
   15MOL   H149 8857   4.694   3.515   2.648 -0.0449  1.0387  2.1523
   15MOL   H150 8858   4.488   3.536   2.429 -0.9161  1.6481  0.2874
   15MOL   H151 8859   4.507   3.402   2.520  1.0695 -0.1148  1.8974
   15MOL   H152 8860   4.409   3.536   2.725  0.8309  0.2786 -0.5774
   15MOL   H153 8861   4.303   3.520   2.581 -1.3003 -0.1438  0.4335
   15MOL   H154 8862   4.379   3.671   2.617  0.3092  0.0284  1.3761
   15MOL   H155 8863   5.136   3.921   3.065 -1.6188 -0.6607 -0.1177
   15MOL   H156 8864   5.071   3.773   3.033 -1.9650  1.6087 -1.9849
   15MOL   C157 8865   5.292   3.779   3.001 -0.3654  0.2664 -0.1449
   15MOL   O158 8866   5.319   3.746   3.132 -0.0166 -0.1861  0.4675
   15MOL   C159 8867   5.310   3.611   3.163 -0.2512 -1.2268 -1.0192
   15MOL   C160 8868   5.332   3.582   3.305 -0.5453  0.1756  0.1901
   15MOL   C161 8869   5.328   3.436   3.333 -0.0644  0.2184  0.2206
   15MOL   C162 8870   5.386   3.392   3.463 -0.1902 -0.2717 -0.0437
   15MOL   C163 8871   5.325   3.453   3.592  0.2250 -0.0625  0.0820
   15MOL   C164 8872   5.373   3.386   3.728  0.3895 -0.6640  0.0274
   15MOL   C165 8873   5.524   3.406   3.758 -0.1029 -0.1130  0.6268
   15MOL   C166 8874   5.565   3.344   3.893  0.3336  0.3481 -1.3232
   15MOL   C167 8875   5.398   3.879   2.946 -0.3375 -0.0570  0.0559
   15MOL   H168 8876   5.298   3.691   2.937  0.9103  0.1575  0.0935
   15MOL   H169 8877   5.372   3.547   3.100  1.7250 -0.6970  0.3314
   15MOL   H170 8878   5.212   3.574   3.134 -0.6144 -3.1539  2.3733
   15MOL   H171 8879   5.259   3.634   3.367 -3.0563 -2.3192 -0.5983
   15MOL   H172 8880   5.428   3.632   3.320 -0.3974 -0.0413 -0.0420
   15MOL   H173 8881   5.226   3.396   3.330  0.5851 -1.4309 -0.7370
   15MOL   H174 8882   5.386   3.384   3.257 -0.3223 -1.9079  1.4361
   15MOL   H175 8883   5.376   3.285   3.483  0.2728 -0.4528 -0.7537
   15MOL   H176 8884   5.494   3.401   3.455 -0.4680  0.5718 -4.0698
   15MOL   H177 8885   5.352   3.559   3.595 -1.6869  0.6778 -4.6565
   15MOL   H178 8886   5.221   3.423   3.593  1.0235 -2.9768 -0.8849
   15MOL   H179 8887   5.345   3.281   3.733 -0.5887 -0.5816 -2.9153
   15MOL   H180 8888   5.312   3.438   3.801 -1.3625 -0.7554 -1.3460
   15MOL   H181 8889   5.591   3.356   3.688  2.2688  0.6520  2.2713
   15MOL   H182 8890   5.543   3.513   3.757 -1.5431  0.1524 -1.5640
   15MOL   H183 8891   5.673   3.354   3.904  0.2758  0.5553 -0.9067
   15MOL   H184 8892   5.522   3.245   3.910 -1.4343  1.4593  1.0082
   15MOL   H185 8893   5.524   3.401   3.976  1.1731 -0.8879 -0.0393
   15MOL   H186 8894   5.376   3.888   2.839  0.1444  1.0100  0.0415
   15MOL   H187 8895   5.382   3.974   2.996  0.7251  0.0415  0.2097
   15MOL   C188 8896   5.543   3.845   2.976 -0.4153 -0.0460  0.7143
   15MOL   O189 8897   5.633   3.953   2.937  0.5651 -0.7007  0.5538
   15MOL   C190 8898   5.646   4.047   3.040  0.1745  0.4263 -0.1959
   15MOL   C191 8899   5.734   4.171   2.997  0.0769  0.0284 -0.0693
   15MOL   C192 8900   5.645   4.282   2.929 -0.1584  0.6947  0.1240
   15MOL   C193 8901   5.722   4.407   2.888  0.2313 -0.0963  0.4199
   15MOL   C194 8902   5.627   4.509   2.821  0.3265 -0.3993  0.6073
   15MOL   C195 8903   5.708   4.620   2.753 -0.0414 -0.4929 -0.3758
   15MOL   C196 8904   5.621   4.686   2.648  0.0755  0.8779  1.0533
   15MOL   C197 8905   5.704   4.778   2.559 -0.0435  0.8537  0.3376
   15MOL   C198 8906   5.597   3.720   2.904  0.2826  0.0255  0.5928
   15MOL   H199 8907   5.555   3.821   3.081  0.3923  0.5355  0.7576
   15MOL   H200 8908   5.544   4.071   3.071  0.3740 -1.0562  1.6793
   15MOL   H201 8909   5.693   3.984   3.115 -1.4673 -1.5694 -0.7766
   15MOL   H202 8910   5.822   4.154   2.935 -2.1762 -0.1182 -3.3605
   15MOL   H203 8911   5.767   4.200   3.097 -0.0996 -0.1678  0.0466
   15MOL   H204 8912   5.608   4.240   2.835  1.4583  0.9469 -0.6366
   15MOL   H205 8913   5.557   4.312   2.986 -1.1153 -1.3392 -0.2219
   15MOL   H206 8914   5.769   4.462   2.970  0.3010  0.3485  0.0821
   15MOL   H207 8915   5.797   4.383   2.813  0.0195  1.6299 -0.3662
   15MOL   H208 8916   5.552   4.458   2.759 -0.2985  0.7331  0.4202
   15MOL   H209 8917   5.567   4.551   2.902  1.3843 -2.3168  2.4540
   15MOL   H210 8918   5.799   4.578   2.710  0.3474 -0.3758  0.3310
   15MOL   H211 8919   5.732   4.695   2.829 -1.0187 -2.1591  1.6264
   15MOL   H212 8920   5.566   4.614   2.588  0.1251  1.6538  0.0623
   15MOL   H213 8921   5.549   4.751   2.699  0.3782  0.5784  1.8791
   15MOL   H214 8922   5.792   4.734   2.513  0.1897  3.9790 -2.4397
   15MOL   H215 8923   5.743   4.859   2.622 -1.8076 -0.1427  2.7728
   15MOL   H216 8924   5.646   4.810   2.472  0.0710  0.2948  0.0517
   15MOL   H217 8925   5.540   3.632   2.934  0.7357 -0.3968  0.2280
   15MOL   H218 8926   5.578   3.732   2.797 -0.6738 -1.2445  0.6170
   15MOL   C219 8927   5.736   3.669   2.943  0.7868  0.9276 -0.2912
   15MOL   O220 8928   5.752   3.659   3.088 -0.0601  0.4860  0.1349
   15MOL   C221 8929   5.708   3.542   3.163 -0.1251  0.2947  0.2956
   15MOL   C222 8930   5.759   3.558   3.306 -0.8776  0.3480  0.0300
   15MOL   C223 8931   5.912   3.535   3.323 -0.0933  0.3667 -0.1889
   15MOL   C224 8932   5.956   3.536   3.475  0.8183 -0.1193  0.4351
   15MOL   C225 8933   6.105   3.508   3.492  0.3246 -0.0556 -0.3305
   15MOL   C226 8934   6.142   3.471   3.633  0.5311  0.3970 -0.5947
   15MOL   C227 8935   6.285   3.419   3.647  0.2014 -0.2241  0.3148
   15MOL   C228 8936   6.391   3.510   3.583 -0.5515  0.0805 -0.4998
   15MOL   C229 8937   5.846   3.748   2.879 -0.0665  0.8846 -0.5118
   15MOL   H230 8938   5.745   3.569   2.901 -0.5489 -0.8424  3.3764
   15MOL   H231 8939   5.747   3.453   3.114 -3.3488 -1.6240  1.0687
   15MOL   H232 8940   5.600   3.533   3.156 -0.0958  1.0871 -1.2911
   15MOL   H233 8941   5.714   3.489   3.377  1.7342 -1.7562 -0.2878
   15MOL   H234 8942   5.730   3.651   3.357 -1.5866 -1.1984  2.5438
   15MOL   H235 8943   5.940   3.442   3.274 -1.6287 -0.4369  0.4527
   15MOL   H236 8944   5.973   3.602   3.262  1.1617 -0.1020  0.5313
   15MOL   H237 8945   5.915   3.623   3.525 -0.6391 -0.4880 -0.0868
   15MOL   H238 8946   5.903   3.452   3.521  0.4214 -0.2730 -0.2983
   15MOL   H239 8947   6.134   3.439   3.414 -3.0211 -1.0747 -0.7507
   15MOL   H240 8948   6.143   3.608   3.473 -1.2115  0.3125 -1.6342
   15MOL   H241 8949   6.072   3.402   3.680 -0.8599  1.7952 -0.5760
   15MOL   H242 8950   6.125   3.563   3.689  0.5230  0.2094 -0.2884
   15MOL   H243 8951   6.301   3.417   3.755 -0.1294  1.1881  0.4009
   15MOL   H244 8952   6.294   3.316   3.610  0.7488  0.0735 -0.3864
   15MOL   H245 8953   6.492   3.487   3.618 -1.3169  0.6952  2.1565
   15MOL   H246 8954   6.367   3.610   3.619 -1.6125 -0.8677  1.4603
   15MOL   H247 8955   6.390   3.519   3.474 -4.2649  0.4770 -0.4948
   15MOL   H248 8956   5.811   3.794   2.787 -1.0328 -1.5744 -1.4039
   15MOL   H249 8957   5.874   3.833   2.940 -0.5141  0.0005  0.9594
   15MOL   C250 8958   5.975   3.666   2.849  0.0004  0.2534  0.2119
   15MOL   O251 8959   6.001   3.579   2.964  0.5755 -0.4779 -0.3964
   15MOL   C252 8960   6.072   3.464   2.938  0.0105  0.4549  0.1924
   15MOL   C253 8961   6.141   3.399   3.060 -0.1798  0.8026 -0.2206
   15MOL   C254 8962   6.234   3.487   3.146 -0.2532 -0.2813  0.3844
   15MOL   C255 8963   6.349   3.548   3.069 -0.5543  0.0931 -0.3021
   15MOL   C256 8964   6.396   3.682   3.130 -0.3262 -0.2652  0.3280
   15MOL   C257 8965   6.514   3.745   3.057  0.3369  0.3579 -0.2754
   15MOL   C258 8966   6.573   3.867   3.129 -0.1773 -0.3833  0.4735
   15MOL   C259 8967   6.485   3.991   3.125 -0.1962  0.4179 -0.2178
   15MOL   C260 8968   6.093   3.757   2.835 -0.7545  0.5818  0.3286
   15MOL   H261 8969   5.968   3.605   2.758  3.0203  1.5707 -0.9645
   15MOL   H262 8970   6.140   3.479   2.854  1.8318 -0.1492  1.5238
   15MOL   H263 8971   6.002   3.386   2.909 -2.0077  0.8075  3.8276
   15MOL   H264 8972   6.190   3.305   3.033 -0.3978  0.0512  1.9698
   15MOL   H265 8973   6.069   3.366   3.135 -1.4845  0.2208 -1.6952
   15MOL   H266 8974   6.174   3.564   3.196 -2.3971 -1.6599 -0.0099
   15MOL   H267 8975   6.283   3.434   3.228  0.8689 -0.4149 -0.3681
   15MOL   H268 8976   6.429   3.476   3.053  0.3543  1.5571 -2.5833
   15MOL   H269 8977   6.315   3.572   2.968 -1.0453  1.1701  0.1176
   15MOL   H270 8978   6.312   3.750   3.146  1.3769  1.7535  0.8903
   15MOL   H271 8979   6.424   3.661   3.234  0.7660  1.8643  0.4776
   15MOL   H272 8980   6.473   3.777   2.961 -0.0002  0.7883  0.0087
   15MOL   H273 8981   6.597   3.679   3.031  0.5824  0.8573 -0.7810
   15MOL   H274 8982   6.597   3.843   3.233  0.9447  1.8895  0.7673
   15MOL   H275 8983   6.672   3.886   3.089  0.7162 -1.5421  2.0518
   15MOL   H276 8984   6.520   4.066   3.055 -1.7230  1.4224  0.0634
   15MOL   H277 8985   6.475   4.036   3.224  1.7336  0.1510  0.1155
   15MOL   H278 8986   6.384   3.960   3.098 -1.0873  1.1599  2.1104
   15MOL   H279 8987   6.092   3.826   2.920  2.6210  0.0428  0.8546
   15MOL   H280 8988   6.185   3.702   2.850 -2.2341 -1.8879  0.6575
   15MOL   C281 8989   6.120   3.829   2.702 -0.1806 -0.0035 -0.2450
   15MOL   O282 8990   6.011   3.902   2.649 -0.8985 -0.4417 -0.5467
   15MOL   C283 8991   5.987   4.030   2.709 -0.2447  0.0475  0.4588
   15MOL   C284 8992   5.860   4.074   2.641 -0.2237 -0.5808  0.0380
   15MOL   C285 8993   5.888   4.115   2.499  0.0714 -0.4597 -0.1497
   15MOL   C286 8994   5.760   4.152   2.430  0.0474  0.3456 -1.1790
   15MOL   C287 8995   5.766   4.190   2.283 -0.9593 -0.3055  0.4335
   15MOL   C288 8996   5.630   4.211   2.215 -0.3754  0.0460  0.7208
   15MOL   C289 8997   5.657   4.236   2.070 -0.1297  0.0831  0.0121
   15MOL   C290 8998   5.526   4.236   1.981 -0.4230  0.4245 -1.0965
   15MOL   C291 8999   6.157   3.736   2.589 -0.3028  0.6990  0.9572
   15MOL   H292 9000   6.212   3.884   2.720  0.0943 -0.3488 -0.5831
   15MOL   H293 9001   6.072   4.092   2.681 -0.3066  0.0202  0.2008
   15MOL   H294 9002   5.984   4.022   2.817  1.2841  1.7157  0.6419
   15MOL   H295 9003   5.808   4.156   2.692  0.6305  0.8817 -1.3907
   15MOL   H296 9004   5.795   3.987   2.651 -1.8770  0.2410 -2.8364
   15MOL   H297 9005   5.968   4.188   2.492 -0.7313  0.4138 -0.2176
   15MOL   H298 9006   5.925   4.028   2.444 -0.9314 -1.8385  1.2803
   15MOL   H299 9007   5.701   4.061   2.448  2.5907 -0.8061  1.8152
   15MOL   H300 9008   5.724   4.233   2.493  3.9996 -0.5433  2.4352
   15MOL   H301 9009   5.831   4.278   2.285  2.4573 -2.7266 -0.4938
   15MOL   H302 9010   5.823   4.111   2.234 -2.2905 -2.2258  1.9263
   15MOL   H303 9011   5.582   4.296   2.264 -0.0733  1.0990 -0.7812
   15MOL   H304 9012   5.566   4.123   2.211  1.2640 -1.0964 -1.4657
   15MOL   H305 9013   5.719   4.323   2.050 -0.1330  0.0757 -0.0308
   15MOL   H306 9014   5.709   4.154   2.020  0.9019  1.0405 -0.5041
   15MOL   H307 9015   5.548   4.283   1.885  0.1950  2.3761 -0.0165
   15MOL   H308 9016   5.458   4.297   2.041 -1.6705  0.0038 -2.0676
   15MOL   H309 9017   5.482   4.139   1.959  0.9356 -0.3092 -0.6355
   15MOL   H310 9018   6.232   3.663   2.618  1.1243  2.0852  0.8399
   15MOL   H311 9019   6.072   3.673   2.562 -0.0051 -0.4755  2.7252
   15MOL   C312 9020   6.216   3.806   2.463  0.0464  0.5840 -0.5200
   15MOL   O313 9021   6.236   3.714   2.356 -0.0424 -0.3544 -0.0364
   15MOL   C314 9022   6.163   3.745   2.239 -0.2319  0.0947 -0.6816
   15MOL   C315 9023   6.226   3.675   2.120  0.2816 -0.5625 -0.3835
   15MOL   C316 9024   6.371   3.710   2.100  0.0248 -1.1385  0.0273
   15MOL   C317 9025   6.418   3.639   1.967 -0.2741  0.5808  0.1894
   15MOL   C318 9026   6.569   3.666   1.944  0.4493 -0.3887  0.0160
   15MOL   C319 9027   6.628   3.624   1.810  0.4822 -0.4645  0.3027
   15MOL   C320 9028   6.619   3.736   1.706  0.3461 -0.1095 -0.1138
   15MOL   C321 9029   6.726   3.706   1.598  0.3242  0.2449  0.8541
   15MOL   C322 9030   6.352   3.868   2.489 -0.1287 -0.5536  0.1113
   15MOL   H323 9031   6.157   3.892   2.434 -2.7010 -1.2033 -0.3874
   15MOL   H324 9032   6.168   3.851   2.215 -1.9041  0.0517 -1.2913
   15MOL   H325 9033   6.058   3.720   2.254  0.0291  0.8810  2.9332
   15MOL   H326 9034   6.170   3.702   2.031 -0.7586  0.6100  0.6101
   15MOL   H327 9035   6.216   3.568   2.139 -2.0706 -0.3510 -0.2350
   15MOL   H328 9036   6.376   3.817   2.081 -2.3039 -0.1932  4.2378
   15MOL   H329 9037   6.432   3.681   2.185 -0.5734 -0.8610  0.5481
   15MOL   H330 9038   6.408   3.531   1.978  1.2098  0.5440  1.2231
   15MOL   H331 9039   6.359   3.664   1.879  0.3397  0.5459 -0.2316
   15MOL   H332 9040   6.574   3.774   1.949 -1.6844 -0.3509  2.9968
   15MOL   H333 9041   6.635   3.627   2.022  0.7253  1.7863  0.9094
   15MOL   H334 9042   6.579   3.531   1.779  0.8746 -1.2223  1.8812
   15MOL   H335 9043   6.729   3.588   1.829  1.2447  2.2263  1.4694
   15MOL   H336 9044   6.519   3.733   1.663 -0.4072  0.5768  1.5323
   15MOL   H337 9045   6.640   3.833   1.751 -0.1524 -0.6724  1.3617
   15MOL   H338 9046   6.700   3.632   1.522 -1.5973  0.4692  1.2734
   15MOL   H339 9047   6.824   3.679   1.637  1.1005  1.6008 -0.1091
   15MOL   H340 9048   6.734   3.798   1.540  2.3467 -1.0044 -0.9301
   15MOL   H341 9049   6.362   3.893   2.594 -1.1227  1.1767 -0.1899
   15MOL   H342 9050   6.429   3.791   2.493  0.0006 -0.3554  1.5174
   15MOL   C343 9051   6.390   3.988   2.405 -0.3387 -0.1112  0.2730
   15MOL   O344 9052   6.530   4.000   2.398  0.1857  0.3826 -0.1126
   15MOL   C345 9053   6.590   3.931   2.287 -0.4936 -0.3655 -0.5050
   15MOL   C346 9054   6.743   3.940   2.283 -0.0827 -0.4269  0.7659
   15MOL   C347 9055   6.809   3.871   2.161  0.5459 -0.0846  0.9783
   15MOL   C348 9056   6.954   3.864   2.178 -0.3827 -0.0281  0.5009
   15MOL   C349 9057   7.024   3.790   2.064 -0.1225 -0.5257  0.8909
   15MOL   C350 9058   7.183   3.791   2.065 -0.4794 -0.0390 -0.4094
   15MOL   C351 9059   7.233   3.766   1.924  0.8492 -0.7703  0.0278
   15MOL   C352 9060   7.205   3.622   1.874  0.0055 -0.3035 -0.4651
   15MOL   C353 9061   6.336   4.120   2.462 -0.0898 -0.6123 -0.3218
   15MOL   H354 9062   6.351   3.978   2.304 -0.6610  2.0256  0.1491
   15MOL   H355 9063   6.555   3.973   2.193 -2.6821 -0.9318  0.0219
   15MOL   H356 9064   6.572   3.824   2.289  1.5804 -0.7451 -0.8926
   15MOL   H357 9065   6.777   3.905   2.381  0.9981  0.1996  0.6230
   15MOL   H358 9066   6.778   4.043   2.286  1.0123 -0.7869  0.6827
   15MOL   H359 9067   6.764   3.772   2.154  0.7031 -0.0925 -0.0144
   15MOL   H360 9068   6.783   3.932   2.075  0.1724 -2.0170 -0.3057
   15MOL   H361 9069   6.990   3.963   2.207 -2.1079  0.1048  2.2607
   15MOL   H362 9070   6.982   3.800   2.261 -0.7292  0.1322  0.7422
   15MOL   H363 9071   6.998   3.684   2.065 -0.1748 -0.5043  1.6272
   15MOL   H364 9072   6.976   3.827   1.973  0.0264  0.9869  1.4105
   15MOL   H365 9073   7.214   3.716   2.138 -1.6365  0.4150  0.5567
   15MOL   H366 9074   7.231   3.883   2.100 -2.2570  0.4056  0.9047
   15MOL   H367 9075   7.184   3.840   1.861  2.5234  1.5441  1.3650
   15MOL   H368 9076   7.338   3.792   1.918  0.8119 -0.5023  0.5719
   15MOL   H369 9077   7.266   3.555   1.936  0.5015 -0.9883 -1.6731
   15MOL   H370 9078   7.229   3.610   1.768 -1.1505  0.5133 -0.8283
   15MOL   H371 9079   7.100   3.591   1.881 -0.2126  0.0770 -1.9056
   15MOL   H372 9080   6.230   4.097   2.473  0.1684 -1.7850 -0.2297
   15MOL   H373 9081   6.374   4.145   2.561 -1.4867  0.9334 -0.1476
   15MOL   C374 9082   6.341   4.242   2.368 -0.2813 -0.7862  0.7518
   15MOL   O375 9083   6.417   4.342   2.424  0.0497 -0.0552  0.0624
   15MOL   C376 9084   6.560   4.334   2.410  0.4262  0.6065 -0.3652
   15MOL   C377 9085   6.612   4.350   2.268 -0.2166 -0.0285  0.3916
   15MOL   C378 9086   6.766   4.360   2.258  0.3473  0.5261 -0.6919
   15MOL   C379 9087   6.816   4.341   2.116  0.6156 -0.0717  0.3400
   15MOL   C380 9088   6.953   4.262   2.109 -0.0610 -0.3153 -0.0427
   15MOL   C381 9089   7.071   4.356   2.124 -0.2800 -0.6978 -0.1760
   15MOL   C382 9090   7.203   4.278   2.111  0.3928 -0.2120  0.1730
   15MOL   C383 9091   7.317   4.376   2.063 -0.5552  0.0461  0.1357
   15MOL   C384 9092   6.197   4.290   2.327 -0.2025  0.1750 -0.2402
   15MOL   H385 9093   6.388   4.203   2.277 -0.0933 -2.0187  1.3574
   15MOL   H386 9094   6.594   4.243   2.459 -1.6053  0.0117 -0.0034
   15MOL   H387 9095   6.607   4.415   2.466  2.4531 -2.2395  2.1917
   15MOL   H388 9096   6.571   4.440   2.223  0.9800 -0.2374 -1.1626
   15MOL   H389 9097   6.577   4.258   2.220  2.2378 -1.1427  0.6783
   15MOL   H390 9098   6.804   4.455   2.296 -0.0491  0.7953 -0.9693
   15MOL   H391 9099   6.804   4.292   2.334 -0.6774  1.1212  0.3785
   15MOL   H392 9100   6.750   4.264   2.079  0.3892 -0.3447  1.2857
   15MOL   H393 9101   6.800   4.427   2.052  0.4936 -0.3168  0.0431
   15MOL   H394 9102   6.967   4.174   2.172 -0.4996  0.3565  1.0016
   15MOL   H395 9103   6.949   4.214   2.011  1.2380  0.3698 -0.4439
   15MOL   H396 9104   7.066   4.418   2.214 -1.1922  1.5067 -1.7075
   15MOL   H397 9105   7.067   4.427   2.041  1.2834  0.7458  0.9532
   15MOL   H398 9106   7.217   4.245   2.214 -0.7004 -1.8070 -0.1801
   15MOL   H399 9107   7.201   4.196   2.039 -2.4241 -1.6787  1.8539
   15MOL   H400 9108   7.411   4.322   2.066  0.3846  1.4368 -2.1503
   15MOL   H401 9109   7.312   4.466   2.124 -1.4437 -0.0424  0.2057
   15MOL   H402 9110   7.293   4.412   1.962 -2.8623  0.2044  0.7127
   15MOL   H403 9111   6.145   4.203   2.287 -0.6501  0.1682  0.3458
   15MOL   H404 9112   6.145   4.304   2.422 -0.4993 -1.3249 -0.1757
   15MOL   C405 9113   6.191   4.405   2.221 -0.3467 -0.2861  0.7651
   15MOL   O406 9114   6.061   4.455   2.190  0.7125 -0.0451 -0.2947
   15MOL   C407 9115   5.992   4.540   2.274  0.7357 -1.1136 -0.4696
   15MOL   C408 9116   5.882   4.609   2.199  0.1084  0.2304 -0.2623
   15MOL   C409 9117   5.918   4.690   2.070  0.3024 -0.4593  0.5143
   15MOL   C410 9118   5.801   4.757   1.998  0.6713 -0.3587  0.4587
   15MOL   C411 9119   5.844   4.794   1.855  0.1131 -0.0416  0.3714
   15MOL   C412 9120   5.715   4.843   1.775  0.3787  0.2657 -0.5045
   15MOL   C413 9121   5.751   4.868   1.621  0.0406 -0.2132 -0.1814
   15MOL   C414 9122   5.747   4.749   1.522  0.6821  0.7460 -0.2615
   15MOL   C415 9123   6.257   4.377   2.083 -0.6137 -0.5969 -0.4103
   15MOL   H416 9124   6.255   4.486   2.256 -0.3047  0.4403 -0.9699
   15MOL   H417 9125   6.058   4.617   2.317  3.0573 -3.1229 -0.3012
   15MOL   H418 9126   5.954   4.499   2.367  2.7554 -0.5831  0.6314
   15MOL   H419 9127   5.828   4.672   2.270 -0.6861 -1.4312  0.6205
   15MOL   H420 9128   5.812   4.532   2.167 -0.1256 -0.7098  2.3636
   15MOL   H421 9129   5.999   4.761   2.085 -1.2239  1.7929 -1.5527
   15MOL   H422 9130   5.974   4.623   2.004  0.1679  0.7064 -0.8054
   15MOL   H423 9131   5.714   4.692   2.007  0.2488 -0.1968 -1.9069
   15MOL   H424 9132   5.759   4.843   2.050 -1.6437 -1.6726  0.8468
   15MOL   H425 9133   5.928   4.864   1.850  0.7882 -0.6386  2.5712
   15MOL   H426 9134   5.887   4.713   1.795  0.0571 -0.2407  0.6003
   15MOL   H427 9135   5.691   4.942   1.815 -0.7164 -0.7661  1.4494
   15MOL   H428 9136   5.624   4.785   1.790  0.7156  0.2547  1.6294
   15MOL   H429 9137   5.678   4.944   1.594  0.8209 -0.7013 -3.8764
   15MOL   H430 9138   5.846   4.920   1.614 -1.9029  3.6181  0.7170
   15MOL   H431 9139   5.647   4.708   1.519  0.6664  0.5985  1.7512
   15MOL   H432 9140   5.823   4.676   1.548  1.4716  0.9674 -1.8204
   15MOL   H433 9141   5.759   4.782   1.418  1.4176 -0.4813 -0.5753
   15MOL   H434 9142   6.245   4.465   2.020 -0.6337  0.0052  0.4198
   15MOL   H435 9143   6.364   4.355   2.090 -0.4312 -0.1086 -1.5961
   15MOL   C436 9144   6.198   4.255   2.005 -0.4237  0.0219  0.1570
   15MOL   O437 9145   6.284   4.234   1.891  0.6406 -0.3968 -0.2951
   15MOL   C438 9146   6.397   4.148   1.906  0.2921 -0.1536  0.7796
   15MOL   C439 9147   6.495   4.142   1.783  0.3598  0.5886 -0.7289
   15MOL   C440 9148   6.436   4.088   1.661 -0.4422  0.8743 -0.2146
   15MOL   C441 9149   6.424   4.192   1.550 -0.0848 -0.3999 -0.2981
   15MOL   C442 9150   6.367   4.128   1.423 -0.0731 -0.0917 -0.1226
   15MOL   C443 9151   6.215   4.105   1.406 -0.0672  0.3005  0.1997
   15MOL   C444 9152   6.185   4.040   1.273  0.2270 -0.0767  0.0302
   15MOL   C445 9153   6.237   4.108   1.145  0.9090 -0.2932 -0.1072
   15MOL   C446 9154   6.054   4.264   1.956 -0.8124 -0.3056 -0.2865
   15MOL   H447 9155   6.202   4.171   2.074 -1.1014  1.5261  2.0562
   15MOL   H448 9156   6.465   4.200   1.974  0.6342 -2.6466  2.4222
   15MOL   H449 9157   6.371   4.050   1.946  0.2060 -0.7354 -0.6803
   15MOL   H450 9158   6.589   4.093   1.809 -1.1802 -1.4475  1.3070
   15MOL   H451 9159   6.529   4.243   1.763 -0.2974  0.7112 -1.2624
   15MOL   H452 9160   6.496   4.000   1.636 -1.1279  0.5935 -0.9031
   15MOL   H453 9161   6.334   4.063   1.687 -0.1083  0.5319  0.7838
   15MOL   H454 9162   6.363   4.276   1.583  1.6951  0.0558  1.9151
   15MOL   H455 9163   6.515   4.249   1.532 -0.3010  0.2969  0.7543
   15MOL   H456 9164   6.406   4.194   1.346 -0.7625 -0.0837 -0.4663
   15MOL   H457 9165   6.411   4.031   1.399 -1.4979 -1.1887  1.5109
   15MOL   H458 9166   6.151   4.191   1.426  0.1284  0.5434 -0.2054
   15MOL   H459 9167   6.199   4.031   1.484  0.8230  0.5094  0.5895
   15MOL   H460 9168   6.221   3.937   1.272 -1.0868 -0.5534  1.2626
   15MOL   H461 9169   6.078   4.028   1.261  0.2295  0.5097 -0.6356
   15MOL   H462 9170   6.178   4.079   1.058  0.8215  0.4082 -0.2848
   15MOL   H463 9171   6.337   4.073   1.120  0.7565 -0.5659 -0.3385
   15MOL   H464 9172   6.226   4.216   1.158  1.6830 -0.4304  1.8575
   15MOL   H465 9173   5.997   4.261   2.049  0.1828  1.3594  0.3878
   15MOL   H466 9174   6.033   4.365   1.920  0.9703 -0.1035 -0.8161
   15MOL   C467 9175   6.001   4.157   1.853 -0.2021  0.3183 -0.0884
   15MOL   O468 9176   5.869   4.190   1.828 -0.2807 -0.0840  0.2557
   15MOL   C469 9177   5.835   4.297   1.737  0.5862 -0.0860 -0.2893
   15MOL   C470 9178   5.852   4.244   1.593  0.4624  0.3517  0.8329
   15MOL   C471 9179   5.864   4.358   1.496 -0.4703  0.3061 -0.2425
   15MOL   C472 9180   5.850   4.302   1.348 -0.6711  0.0849 -0.0523
   15MOL   C473 9181   5.923   4.393   1.244 -0.2300 -0.0233 -0.0173
   15MOL   C474 9182   5.862   4.523   1.216 -0.2888 -0.7146 -0.1080
   15MOL   C475 9183   5.957   4.631   1.147  0.2357 -0.8492  0.3240
   15MOL   C476 9184   5.891   4.767   1.129  0.2918 -0.3390  0.6933
   15MOL   C477 9185   6.002   4.021   1.917 -0.4520 -0.0634  0.3007
   15MOL   H478 9186   6.058   4.141   1.762 -0.2351 -1.1325  0.1354
   15MOL   H479 9187   5.909   4.375   1.752  1.4915 -0.7398 -1.3331
   15MOL   H480 9188   5.739   4.346   1.755 -1.2347 -2.5383 -2.8789
   15MOL   H481 9189   5.779   4.169   1.564  2.3009 -1.5809  1.0673
   15MOL   H482 9190   5.938   4.179   1.580  0.1363  0.1536 -0.3843
   15MOL   H483 9191   5.801   4.439   1.532  1.2266  0.7799  1.7647
   15MOL   H484 9192   5.965   4.400   1.497  0.4617 -1.8815  0.7573
   15MOL   H485 9193   5.905   4.208   1.346 -0.0517  0.4290  0.4155
   15MOL   H486 9194   5.749   4.274   1.317 -0.1561 -2.3361  0.3352
   15MOL   H487 9195   6.023   4.405   1.285  0.0330 -0.7759 -0.4301
   15MOL   H488 9196   5.928   4.340   1.150 -0.2528  1.4408 -0.8575
   15MOL   H489 9197   5.807   4.563   1.301 -1.3283 -0.7974 -0.7277
   15MOL   H490 9198   5.788   4.493   1.142 -0.7493  0.3565 -0.0993
   15MOL   H491 9199   6.049   4.652   1.200 -0.4474  0.8012  0.8977
   15MOL   H492 9200   5.987   4.582   1.055  0.5963  1.9570 -1.1262
   15MOL   H493 9201   5.877   4.801   1.232 -1.7860 -4.2465  1.8001
   15MOL   H494 9202   5.787   4.754   1.096 -0.3218  1.2837  1.9268
   15MOL   H495 9203   5.950   4.841   1.075 -1.4376  1.2636  0.9229
   15MOL   H496 9204   6.100   3.994   1.956  0.8033  1.6050 -1.6275
   15MOL   H497 9205   5.944   4.023   2.009  0.2188 -3.2571  0.8746
   15MOL   C498 9206   5.937   3.918   1.824  0.3940 -0.5512  0.9154
   15MOL   O499 9207   5.914   3.806   1.907  0.2482  0.1711  0.0725
   15MOL   C500 9208   5.788   3.731   1.894  0.0303  0.3017 -0.1815
   15MOL   C501 9209   5.789   3.609   1.980 -0.2317 -0.4004 -0.4051
   15MOL   C502 9210   5.899   3.509   1.936  0.9349  0.3910  0.7643
   15MOL   C503 9211   5.935   3.402   2.047 -0.8402  0.0982  0.1234
   15MOL   C504 9212   6.052   3.319   1.998 -0.0296  0.4723 -0.0152
   15MOL   C505 9213   6.093   3.198   2.076  0.3404  0.5641  0.2300
   15MOL   C506 9214   6.217   3.126   2.021  0.3244  0.1382  0.4347
   15MOL   C507 9215   6.258   3.009   2.107 -0.4197 -0.0660  0.0332
   15MOL   C508 9216   6.039   3.867   1.717  0.2869 -0.5900  0.1546
   15MOL   H509 9217   5.844   3.959   1.785  0.3216 -2.3536 -0.9104
   15MOL   H510 9218   5.765   3.716   1.788  1.2888 -1.7842 -0.1890
   15MOL   H511 9219   5.707   3.799   1.918 -0.1372 -0.8784  2.7506
   15MOL   H512 9220   5.690   3.566   1.993 -0.7441  0.9210  0.1543
   15MOL   H513 9221   5.798   3.642   2.083 -1.7256 -0.3017 -0.2971
   15MOL   H514 9222   5.863   3.453   1.849  0.8820  0.6385  0.6262
   15MOL   H515 9223   5.989   3.566   1.914  1.1869  0.5213  2.1039
   15MOL   H516 9224   5.958   3.457   2.138  1.4803  0.5464 -0.7126
   15MOL   H517 9225   5.849   3.337   2.063  0.4544 -1.6979 -0.0542
   15MOL   H518 9226   6.019   3.281   1.901 -2.2007  1.2174  0.4182
   15MOL   H519 9227   6.143   3.378   1.990 -0.8048  1.8886  1.3705
   15MOL   H520 9228   6.008   3.130   2.084  0.5774  0.2513  0.0523
   15MOL   H521 9229   6.120   3.229   2.177  1.3880  2.4821 -0.6061
   15MOL   H522 9230   6.206   3.089   1.919 -0.9137  0.7971  0.3111
   15MOL   H523 9231   6.292   3.205   2.027 -1.6996  2.4330 -2.5395
   15MOL   H524 9232   6.360   2.978   2.084 -0.3806  0.6009 -0.7047
   15MOL   H525 9233   6.178   2.938   2.087  1.7558 -2.2997 -0.9934
   15MOL   H526 9234   6.255   3.030   2.214  1.9430 -2.3805  0.6347
   15MOL   H527 9235   6.091   3.946   1.663 -1.4993  0.7810  0.3960
   15MOL   H528 9236   6.115   3.815   1.775 -0.7482  0.1858  2.2706
   15MOL   C529 9237   5.991   3.768   1.606 -0.0832 -0.4201  0.7651
   15MOL   O530 9238   6.096   3.728   1.522 -0.5897 -0.9427  0.0130
   15MOL   C531 9239   6.188   3.641   1.584  0.6973  0.6776 -0.1370
   15MOL   C532 9240   6.289   3.596   1.478 -0.4521 -0.1490  0.0859
   15MOL   C533 9241   6.370   3.704   1.406 -0.0465 -0.4127 -0.1650
   15MOL   C534 9242   6.461   3.650   1.295  0.0853 -0.1247  0.2159
   15MOL   C535 9243   6.549   3.754   1.218  0.4432  0.3006 -0.7919
   15MOL   C536 9244   6.612   3.672   1.098 -0.3135  0.8929  0.0732
   15MOL   C537 9245   6.697   3.765   1.007 -0.6106 -0.7876  0.6957
   15MOL   C538 9246   6.757   3.696   0.888  0.8504  1.2811 -0.5608
   15MOL   C539 9247   5.895   3.848   1.511 -0.4180 -0.1436 -0.0088
   15MOL   H540 9248   5.950   3.677   1.650  0.6111 -0.3943  1.4892
   15MOL   H541 9249   6.259   3.679   1.658  1.0462  0.5367 -0.3949
   15MOL   H542 9250   6.131   3.557   1.623  1.3468 -0.1381 -0.9057
   15MOL   H543 9251   6.225   3.559   1.397 -0.4648  0.8048 -0.3497
   15MOL   H544 9252   6.342   3.507   1.511  1.0987  0.4776 -0.6935
   15MOL   H545 9253   6.295   3.768   1.360  1.7778  1.4021 -0.6724
   15MOL   H546 9254   6.425   3.763   1.479  1.5493  1.1018 -2.5026
   15MOL   H547 9255   6.527   3.580   1.346  1.1020 -0.6911 -1.8217
   15MOL   H548 9256   6.398   3.594   1.225  0.1778  1.1792 -0.9434
   15MOL   H549 9257   6.488   3.835   1.178  0.4318  0.7322  0.0868
   15MOL   H550 9258   6.614   3.797   1.294 -0.3957 -0.0752  0.1533
   15MOL   H551 9259   6.524   3.633   1.049 -1.0672  0.8389  1.4327
   15MOL   H552 9260   6.660   3.589   1.149 -1.0853  1.8434  2.4298
   15MOL   H553 9261   6.638   3.843   0.958  1.3130  1.0393  1.2263
   15MOL   H554 9262   6.779   3.813   1.060  1.1516 -1.3822 -1.4084
   15MOL   H555 9263   6.692   3.628   0.832  0.5622  1.9159 -0.9928
   15MOL   H556 9264   6.842   3.642   0.932 -0.9999 -0.3394  1.1373
   15MOL   H557 9265   6.807   3.770   0.826  1.1487  0.7027 -1.0159
   15MOL   H558 9266   5.865   3.942   1.557 -0.1221 -0.1356  0.1692
   15MOL   H559 9267   5.956   3.888   1.430  0.3481 -0.1159  0.5730
   15MOL   C560 9268   5.776   3.766   1.449 -0.0026  0.9188 -0.0803
   15MOL   O561 9269   5.692   3.727   1.560 -0.0315 -0.2376 -0.4864
   15MOL   C562 9270   5.552   3.714   1.540 -0.0851  0.8946 -0.0805
   15MOL   C563 9271   5.479   3.629   1.641  0.0810 -0.1193  0.0878
   15MOL   C564 9272   5.504   3.474   1.618 -0.3702  0.3661 -0.0482
   15MOL   C565 9273   5.443   3.381   1.714 -0.4559  0.0616 -0.4877
   15MOL   C566 9274   5.443   3.230   1.673  0.0176  0.6796 -0.0342
   15MOL   C567 9275   5.416   3.156   1.801  0.8949  0.0739  0.4163
   15MOL   C568 9276   5.359   3.008   1.785  0.1174 -0.4804  0.0868
   15MOL   C569 9277   5.208   2.993   1.750 -0.5599 -0.2585  0.1088
   15MOL   C570 9278   5.823   3.647   1.372  0.0306  0.8261 -0.1191
   15MOL   H571 9279   5.708   3.826   1.389 -1.1997  0.1548  0.4912
   15MOL   H572 9280   5.520   3.691   1.438 -0.7690  0.1055  0.3075
   15MOL   H573 9281   5.522   3.818   1.555 -1.2573  0.4415  0.7366
   15MOL   H574 9282   5.372   3.642   1.626 -0.0185 -1.1509 -0.1314
   15MOL   H575 9283   5.489   3.665   1.743 -1.0202  1.3134 -0.2812
   15MOL   H576 9284   5.471   3.450   1.517  2.0719  0.3955 -0.8908
   15MOL   H577 9285   5.610   3.451   1.630  0.1171  3.5391  2.5573
   15MOL   H578 9286   5.499   3.405   1.805 -0.2026 -1.3304 -0.2567
   15MOL   H579 9287   5.341   3.418   1.723 -1.1803 -1.5129 -1.9288
   15MOL   H580 9288   5.352   3.222   1.613  0.2728 -3.2791 -0.0212
   15MOL   H581 9289   5.531   3.200   1.615 -0.5221 -0.6312 -0.1920
   15MOL   H582 9290   5.341   3.211   1.857 -1.1705 -0.1953 -2.0020
   15MOL   H583 9291   5.512   3.153   1.853  1.2673 -1.2726 -0.3244
   15MOL   H584 9292   5.416   2.960   1.706 -1.3312 -0.3797 -1.0506
   15MOL   H585 9293   5.371   2.953   1.879 -0.8998  0.4033  0.7443
   15MOL   H586 9294   5.184   2.892   1.715 -0.4985 -0.4199  0.5216
   15MOL   H587 9295   5.177   3.057   1.668 -0.9652  2.4919  2.3497
   15MOL   H588 9296   5.151   3.012   1.841 -0.5014 -1.6835  0.4604
   15MOL   H589 9297   5.890   3.586   1.432 -1.3897 -0.0496  0.6038
   15MOL   H590 9298   5.733   3.588   1.356  0.1700  0.4520  0.4714
   15MOL   C591 9299   5.882   3.669   1.237 -0.3684  1.0697  0.1725
   15MOL   O592 9300   5.775   3.706   1.150  0.1691 -0.1166  0.6601
   15MOL   C593 9301   5.818   3.768   1.032 -0.0705 -0.0995  0.6506
   15MOL   C594 9302   5.820   3.918   1.058  0.1846  0.8246  0.0121
   15MOL   C595 9303   5.839   4.002   0.926  0.1057  0.0252  0.6464
   15MOL   C596 9304   5.877   4.148   0.948 -0.2858  0.3422 -0.0964
   15MOL   C597 9305   5.913   4.222   0.817  0.8367  0.2012  0.0195
   15MOL   C598 9306   5.956   4.368   0.838  0.5711  0.4056 -0.5623
   15MOL   C599 9307   5.964   4.451   0.714  0.0031  0.4170 -0.3249
   15MOL   C600 9308   5.974   4.598   0.742  0.9204 -0.4411  0.3498
   15MOL   C601 9309   5.948   3.539   1.196  0.2225  0.0558 -0.0901
   15MOL   H602 9310   5.953   3.752   1.246  0.4678  0.4068 -0.1944
   15MOL   H603 9311   5.734   3.748   0.966 -1.7984 -2.4432  3.4365
   15MOL   H604 9312   5.912   3.725   0.998 -0.4245 -0.7636  0.5077
   15MOL   H605 9313   5.900   3.947   1.126  1.1699 -1.3000 -0.2019
   15MOL   H606 9314   5.727   3.951   1.104 -0.4739 -0.1350 -0.6186
   15MOL   H607 9315   5.909   3.950   0.861 -0.2559 -1.6182  1.5411
   15MOL   H608 9316   5.750   4.010   0.863  1.4327  1.4113 -1.1265
   15MOL   H609 9317   5.787   4.188   0.995 -1.1612 -1.6363  0.0059
   15MOL   H610 9318   5.961   4.153   1.017 -0.1052  3.1276 -0.4609
   15MOL   H611 9319   5.988   4.168   0.758  1.6972  1.6186 -0.1886
   15MOL   H612 9320   5.821   4.211   0.759 -0.3187  1.9580  1.4560
   15MOL   H613 9321   6.051   4.374   0.891  0.0351 -0.5296  0.5283
   15MOL   H614 9322   5.867   4.402   0.892  0.9428  1.5412 -0.6587
   15MOL   H615 9323   6.045   4.423   0.647  0.9133 -0.0959  0.9760
   15MOL   H616 9324   5.875   4.428   0.655  0.2297 -1.3045 -0.0218
   15MOL   H617 9325   6.068   4.610   0.797  1.1349 -0.9696  0.1002
   15MOL   H618 9326   5.893   4.640   0.801 -0.5335 -1.7154 -0.7151
   15MOL   H619 9327   5.969   4.647   0.645  0.4011 -3.2100 -1.0570
   15MOL   H620 9328   5.991   3.560   1.098  0.8725  2.2385  0.6288
   15MOL   H621 9329   6.026   3.490   1.255  0.3059  2.1836  1.6075
   15MOL   H622 9330   5.869   3.470   1.168  0.3544  0.0181 -0.3720
   16MOL     C1 9331   0.328   6.685   1.993 -0.9417  0.1158 -0.5057
   16MOL     O2 9332   0.408   6.801   2.004 -0.7527 -0.1053 -0.0071
   16MOL     C3 9333   0.548   6.781   1.966  0.2418  0.0923 -0.0643
   16MOL     C4 9334   0.616   6.925   1.944 -0.0081 -0.6339  0.5954
   16MOL     C5 9335   0.765   6.915   1.917 -0.4057  0.0406  0.5266
   16MOL     C6 9336   0.822   7.055   1.876 -0.9061 -0.0357  0.5715
   16MOL     C7 9337   0.974   7.058   1.844  0.4189  0.4849 -0.7101
   16MOL     C8 9338   1.007   6.992   1.716 -0.5532 -0.6591  0.2281
   16MOL     C9 9339   1.109   6.880   1.714 -0.1141 -0.4256 -0.3022
   16MOL    C10 9340   1.132   6.832   1.574 -0.2386 -0.6957  0.1682
   16MOL    C11 9341   0.197   6.717   2.067 -0.8148  0.8985  0.8971
   16MOL    H12 9342   0.310   6.650   1.892 -0.7294  1.9329 -1.1792
   16MOL    H13 9343   0.550   6.726   1.872 -1.3990 -2.9558  1.6002
   16MOL    H14 9344   0.596   6.721   2.044 -0.1925 -0.3360 -0.1213
   16MOL    H15 9345   0.590   6.991   2.026 -0.3625 -0.1656  0.1093
   16MOL    H16 9346   0.572   6.969   1.854  2.0345 -0.7525 -0.5140
   16MOL    H17 9347   0.807   6.876   2.010 -0.6663  0.6158  0.8908
   16MOL    H18 9348   0.784   6.842   1.838  0.3306  0.1316  0.6152
   16MOL    H19 9349   0.755   7.099   1.802  2.4836  0.6421 -2.2261
   16MOL    H20 9350   0.805   7.124   1.958 -0.4742  0.7417  0.0090
   16MOL    H21 9351   0.996   7.164   1.834 -0.5816  0.5753 -2.1186
   16MOL    H22 9352   1.025   7.014   1.929  1.6599 -0.4244 -1.8933
   16MOL    H23 9353   1.054   7.069   1.655 -0.7950  0.2928  1.2317
   16MOL    H24 9354   0.916   6.970   1.660 -0.0022 -0.0354 -0.9394
   16MOL    H25 9355   1.198   6.927   1.757 -0.1504 -0.9964  0.4060
   16MOL    H26 9356   1.088   6.793   1.777  0.2262 -1.2705 -1.3462
   16MOL    H27 9357   1.157   6.914   1.507  0.2324 -0.0999  1.0690
   16MOL    H28 9358   1.037   6.795   1.537  0.5246 -0.3199 -2.2528
   16MOL    H29 9359   1.205   6.752   1.560  1.4457  0.9808 -0.9673
   16MOL    H30 9360   0.210   6.712   2.175  1.1934 -1.9078  0.5916
   16MOL    H31 9361   0.177   6.822   2.049 -1.6403  0.8769  1.6637
   16MOL    H32 9362   0.382   6.610   2.051 -0.6863 -1.4061 -2.6430
   16MOL    C33 9363   0.077   6.624   2.025  0.1079 -0.1755  0.1413
   16MOL    O34 9364   7.727   6.673   2.075 -0.5552 -0.7902 -0.0146
   16MOL    C35 9365   7.678   6.790   2.018  0.5681  0.2567 -0.5414
   16MOL    C36 9366   7.556   6.816   2.095 -0.5745  0.3592 -0.4450
   16MOL    C37 9367   7.478   6.929   2.030 -0.3181  0.6066 -0.6351
   16MOL    C38 9368   7.352   6.971   2.107  0.4085  0.2722  0.7030
   16MOL    C39 9369   7.235   6.869   2.091 -0.8031  0.0326 -0.2392
   16MOL    C40 9370   7.097   6.924   2.157 -0.0145  0.2372 -0.1201
   16MOL    C41 9371   6.975   6.840   2.121  0.2621  0.2281 -0.4540
   16MOL    C42 9372   6.971   6.712   2.206  0.3435 -0.2790 -0.0387
   16MOL    C43 9373   0.093   6.485   2.094  0.0518 -0.5315  0.3592
   16MOL    H44 9374   0.066   6.608   1.918 -1.1474  2.2362 -0.1180
   16MOL    H45 9375   7.654   6.776   1.913  2.1285 -0.6621 -0.7862
   16MOL    H46 9376   7.753   6.869   2.021 -0.1701  0.9017  1.4524
   16MOL    H47 9377   7.578   6.833   2.200 -2.0702 -0.8001  0.0847
   16MOL    H48 9378   7.490   6.729   2.094  1.0144 -0.8672 -2.5738
   16MOL    H49 9379   7.532   7.022   2.012  0.3912  0.0573 -1.4022
   16MOL    H50 9380   7.444   6.896   1.931 -1.0747 -2.1088  0.4663
   16MOL    H51 9381   7.364   6.999   2.212 -2.0516 -1.2334  1.4331
   16MOL    H52 9382   7.328   7.068   2.063  0.6876  0.5220  1.0947
   16MOL    H53 9383   7.216   6.862   1.983 -0.3468  1.7217 -0.4528
   16MOL    H54 9384   7.262   6.770   2.126 -2.4682 -0.2135  0.4020
   16MOL    H55 9385   7.086   7.029   2.133 -2.7083 -0.2213 -1.0590
   16MOL    H56 9386   7.099   6.944   2.264  0.4138 -1.5313  0.2304
   16MOL    H57 9387   6.880   6.889   2.144 -0.1052 -0.3446 -0.7515
   16MOL    H58 9388   6.975   6.823   2.013  0.9720  2.3669 -0.8154
   16MOL    H59 9389   6.888   6.650   2.171  0.8950 -0.8325 -0.3781
   16MOL    H60 9390   6.959   6.736   2.312  1.7387  0.8674 -0.1244
   16MOL    H61 9391   7.061   6.652   2.188 -0.5112 -1.1937 -1.3814
   16MOL    H62 9392   0.008   6.422   2.067 -0.2928 -0.3027  0.8843
   16MOL    H63 9393   0.166   6.425   2.040 -1.1218 -0.9577 -0.7810
   16MOL    C64 9394   0.122   6.488   2.248  0.2706 -0.0593 -0.1366
   16MOL    O65 9395   0.261   6.497   2.285  0.2499  0.1996 -0.1593
   16MOL    C66 9396   0.297   6.520   2.425 -0.0132  0.0765 -0.4508
   16MOL    C67 9397   0.440   6.583   2.441  0.1285 -0.5504  0.2914
   16MOL    C68 9398   0.439   6.737   2.420 -1.2334  0.2132 -0.1231
   16MOL    C69 9399   0.577   6.792   2.393 -0.2264 -0.0062 -0.0886
   16MOL    C70 9400   0.591   6.938   2.358 -0.4684  0.0484  0.0104
   16MOL    C71 9401   0.730   6.994   2.355 -0.2809  0.1829  1.6437
   16MOL    C72 9402   0.726   7.130   2.285 -0.3621  0.2891  0.1121
   16MOL    C73 9403   0.871   7.179   2.268 -0.0591  0.0220  0.6440
   16MOL    C74 9404   0.061   6.366   2.316 -0.4638 -0.7394  0.0199
   16MOL    H75 9405   0.070   6.576   2.286  2.7552  1.8596 -1.0545
   16MOL    H76 9406   0.282   6.423   2.473  0.3253  0.1784 -0.1385
   16MOL    H77 9407   0.223   6.592   2.458  1.2173  1.6749 -1.0817
   16MOL    H78 9408   0.507   6.518   2.384  0.1160 -0.1323 -0.1978
   16MOL    H79 9409   0.475   6.578   2.544 -1.4891 -1.8170  0.8066
   16MOL    H80 9410   0.372   6.778   2.344 -1.1287 -0.1735 -0.4291
   16MOL    H81 9411   0.402   6.787   2.509 -0.3650  0.0925  0.3094
   16MOL    H82 9412   0.639   6.786   2.483  0.2292  0.3667 -0.3743
   16MOL    H83 9413   0.630   6.727   2.323 -0.8752  0.9811 -1.5184
   16MOL    H84 9414   0.545   6.956   2.261  1.3911  2.5709 -0.4261
   16MOL    H85 9415   0.536   6.991   2.436  0.9926  1.9888 -0.2600
   16MOL    H86 9416   0.802   6.928   2.305 -1.4274  0.5648 -0.6028
   16MOL    H87 9417   0.775   7.017   2.451 -0.1606  1.2233  1.3432
   16MOL    H88 9418   0.672   7.117   2.191  2.8593  2.6361 -2.1543
   16MOL    H89 9419   0.673   7.204   2.345  0.5351  0.6549  0.4512
   16MOL    H90 9420   0.879   7.280   2.229  0.5626 -0.7224 -1.1897
   16MOL    H91 9421   0.925   7.121   2.193 -0.0530  0.9658 -0.0882
   16MOL    H92 9422   0.929   7.169   2.359  2.9102  1.5740 -1.0042
   16MOL    H93 9423   0.136   6.289   2.295 -0.7858 -1.5385  1.6834
   16MOL    H94 9424   0.076   6.383   2.423 -0.2167 -0.4588 -0.0611
   16MOL    C95 9425   7.690   6.317   2.293 -0.0137  0.2006 -0.5462
   16MOL    O96 9426   7.606   6.420   2.342  0.2838  0.1643 -0.2941
   16MOL    C97 9427   7.474   6.424   2.280 -0.0389  0.1352  0.3411
   16MOL    C98 9428   7.405   6.537   2.359  0.5037  1.1170 -0.3243
   16MOL    C99 9429   7.254   6.518   2.347  0.2327 -0.0854  0.6615
   16MOL   C100 9430   7.203   6.399   2.434 -0.5807  0.0623 -0.9648
   16MOL   C101 9431   7.060   6.398   2.474 -0.4018  0.0904 -0.9453
   16MOL   C102 9432   6.994   6.267   2.525 -0.4634  0.2134 -0.2717
   16MOL   C103 9433   6.870   6.297   2.616  0.2134  0.4413 -0.1431
   16MOL   C104 9434   6.787   6.171   2.651 -0.5982  0.2186 -0.0908
   16MOL   C105 9435   7.662   6.197   2.390 -0.0796  0.4881 -0.7579
   16MOL   H106 9436   7.672   6.298   2.188 -1.2886  1.3050 -0.5344
   16MOL   H107 9437   7.429   6.325   2.285  1.9052 -0.7224  1.6171
   16MOL   H108 9438   7.483   6.470   2.181 -3.9523  2.9988  1.1958
   16MOL   H109 9439   7.428   6.638   2.325  0.6462  1.3502  0.4414
   16MOL   H110 9440   7.430   6.523   2.464  0.9298  2.8686 -0.1703
   16MOL   H111 9441   7.204   6.611   2.375 -1.1682  1.0800 -5.1942
   16MOL   H112 9442   7.212   6.504   2.248  0.3105  2.7155  0.1916
   16MOL   H113 9443   7.238   6.297   2.415  2.7223  1.0922 -0.7858
   16MOL   H114 9444   7.246   6.428   2.530 -1.2019 -0.0961 -0.6395
   16MOL   H115 9445   7.027   6.489   2.525  1.8424  0.0021  0.7363
   16MOL   H116 9446   7.030   6.408   2.370  1.2532  0.1449 -1.4368
   16MOL   H117 9447   7.066   6.201   2.574  1.0867  1.3604 -0.9761
   16MOL   H118 9448   6.956   6.208   2.441 -3.9985  0.9539  0.7021
   16MOL   H119 9449   6.898   6.344   2.710 -3.4462  1.9438  0.2817
   16MOL   H120 9450   6.804   6.365   2.562 -0.4747  0.7781  1.1066
   16MOL   H121 9451   6.836   6.106   2.723 -2.4027 -2.1049 -0.9094
   16MOL   H122 9452   6.783   6.117   2.556  2.5832  0.8182 -0.6121
   16MOL   H123 9453   6.685   6.195   2.680 -0.1872  0.6751  0.9943
   16MOL   H124 9454   7.727   6.203   2.477 -0.1332  0.0589 -0.6888
   16MOL   H125 9455   7.562   6.212   2.432  0.8641 -0.1611  1.7744
   16MOL   C126 9456   7.654   6.056   2.324 -0.5583  0.2926  0.2500
   16MOL   O127 9457   7.590   5.970   2.424  0.5448  0.3029  0.4181
   16MOL   C128 9458   7.447   5.975   2.434  0.3862  0.4792  0.3350
   16MOL   C129 9459   7.394   5.863   2.512  0.0499  0.5335 -0.1456
   16MOL   C130 9460   7.246   5.836   2.501 -0.3289 -0.2630  0.2853
   16MOL   C131 9461   7.192   5.728   2.588 -0.4970 -0.5966 -0.1398
   16MOL   C132 9462   7.031   5.743   2.588 -0.1207  0.3760 -1.0964
   16MOL   C133 9463   6.960   5.622   2.650  0.0784  0.0890  0.2186
   16MOL   C134 9464   6.799   5.627   2.633 -0.3111 -0.6687 -0.5747
   16MOL   C135 9465   6.745   5.509   2.703 -0.1591 -0.5866 -0.7797
   16MOL   C136 9466   0.028   6.000   2.311 -0.1301  0.3789  0.6003
   16MOL   H137 9467   7.598   6.063   2.230 -2.0237 -4.1009  0.6639
   16MOL   H138 9468   7.419   5.960   2.329  0.5514 -0.5439  0.4352
   16MOL   H139 9469   7.411   6.074   2.462  2.6970  1.4102  0.1061
   16MOL   H140 9470   7.418   5.865   2.618 -1.3326 -2.7754  0.2937
   16MOL   H141 9471   7.445   5.770   2.487 -0.1125  0.7387 -1.2634
   16MOL   H142 9472   7.189   5.928   2.516  0.5712  0.7648 -2.3440
   16MOL   H143 9473   7.232   5.818   2.394 -0.4184  0.2404  0.2094
   16MOL   H144 9474   7.211   5.626   2.555  1.4242 -0.4404  0.4411
   16MOL   H145 9475   7.226   5.748   2.690  0.6354 -0.8002 -0.4693
   16MOL   H146 9476   7.006   5.838   2.636  0.5655 -0.4508  0.9628
   16MOL   H147 9477   6.992   5.758   2.487 -1.6495 -2.4037 -0.9636
   16MOL   H148 9478   6.982   5.622   2.757 -1.5286  0.6112  0.5560
   16MOL   H149 9479   6.999   5.530   2.607 -1.1733 -0.9630  1.2791
   16MOL   H150 9480   6.764   5.723   2.670 -0.0873 -0.2103 -1.5512
   16MOL   H151 9481   6.781   5.622   2.526 -0.1970 -2.4104 -0.5233
   16MOL   H152 9482   6.763   5.523   2.809 -1.0978  0.6076 -0.7705
   16MOL   H153 9483   6.798   5.422   2.664 -1.5974 -0.7841 -2.3491
   16MOL   H154 9484   6.643   5.491   2.667 -1.0332 -0.8253  1.7140
   16MOL   H155 9485   0.093   6.071   2.260  0.4452 -0.4838  0.1208
   16MOL   H156 9486   0.069   5.990   2.412  0.0005  0.5015  0.5598
   16MOL   C157 9487   0.035   5.861   2.252 -0.2478  0.1134 -0.3778
   16MOL   O158 9488   0.167   5.816   2.271 -0.1476 -0.3226 -0.3438
   16MOL   C159 9489   0.194   5.742   2.392  0.3809  0.1824  0.0038
   16MOL   C160 9490   0.339   5.754   2.435  0.5551 -0.0589 -0.1352
   16MOL   C161 9491   0.387   5.898   2.419  0.0732 -0.7920 -0.3203
   16MOL   C162 9492   0.533   5.896   2.458  0.5555 -0.3186  0.6125
   16MOL   C163 9493   0.628   5.830   2.351  0.5807  0.4381  0.2825
   16MOL   C164 9494   0.779   5.829   2.391  0.0454 -0.4228 -0.4497
   16MOL   C165 9495   0.867   5.817   2.264 -0.1301 -0.2885  0.2593
   16MOL   C166 9496   1.012   5.871   2.274  0.2070  0.2443  0.0904
   16MOL   C167 9497   0.022   5.850   2.099 -0.1423  0.2363  0.0914
   16MOL   H168 9498   7.732   5.797   2.294 -1.2586  1.2451 -0.4681
   16MOL   H169 9499   0.164   5.637   2.393 -0.1692  0.3248  3.0736
   16MOL   H170 9500   0.138   5.787   2.474 -1.3604  1.3288 -1.7495
   16MOL   H171 9501   0.394   5.683   2.374 -0.5625  0.3684 -1.6727
   16MOL   H172 9502   0.358   5.721   2.537 -1.7952 -0.6161  0.1645
   16MOL   H173 9503   0.373   5.932   2.317  2.5108 -2.1618 -1.1601
   16MOL   H174 9504   0.327   5.971   2.474 -0.1852 -0.3641 -1.1643
   16MOL   H175 9505   0.561   6.001   2.472  1.5581 -0.2685 -1.5349
   16MOL   H176 9506   0.555   5.856   2.556  3.0783  0.9437  0.6122
   16MOL   H177 9507   0.602   5.726   2.329 -2.8485  1.3066 -0.1280
   16MOL   H178 9508   0.609   5.884   2.258 -2.0776 -0.7136  0.1199
   16MOL   H179 9509   0.801   5.750   2.462 -1.6387  0.6245  1.3224
   16MOL   H180 9510   0.786   5.931   2.428  2.2702 -0.4157 -0.8458
   16MOL   H181 9511   0.874   5.715   2.224  0.3921 -0.4537  0.7698
   16MOL   H182 9512   0.829   5.874   2.180 -0.0141  0.0720  0.4534
   16MOL   H183 9513   1.052   5.835   2.369  0.5532 -1.2354 -0.6071
   16MOL   H184 9514   1.004   5.980   2.281  0.9172  0.2344  1.1922
   16MOL   H185 9515   1.079   5.848   2.192 -1.1366  2.0714 -1.5753
   16MOL   H186 9516   0.067   5.942   2.061  3.2524 -1.0372  0.7917
   16MOL   H187 9517   0.093   5.776   2.063 -0.8601 -1.9267  2.9241
   16MOL   C188 9518   7.655   5.833   2.041  0.3048  0.5443  0.6191
   16MOL   O189 9519   7.598   5.705   2.071 -0.9168  0.1040  0.4214
   16MOL   C190 9520   7.474   5.708   2.134 -0.5479  0.6901 -0.5107
   16MOL   C191 9521   7.424   5.563   2.167 -0.6390 -0.1297  0.2842
   16MOL   C192 9522   7.280   5.569   2.219  0.1369 -0.0461 -0.0032
   16MOL   C193 9523   7.229   5.423   2.247 -0.2129 -0.2887  0.0584
   16MOL   C194 9524   7.093   5.417   2.320  0.5030  0.1989 -0.8263
   16MOL   C195 9525   7.052   5.267   2.344  0.4769 -0.4889 -0.5645
   16MOL   C196 9526   6.958   5.255   2.461 -0.1385 -0.0764 -0.0883
   16MOL   C197 9527   6.942   5.103   2.490 -0.3640 -0.7107 -0.0801
   16MOL   C198 9528   7.670   5.836   1.888  0.8287  0.1115  0.0521
   16MOL   H199 9529   7.593   5.918   2.066 -1.0179 -0.2843  0.2074
   16MOL   H200 9530   7.489   5.766   2.225 -2.1330  1.4797 -0.7452
   16MOL   H201 9531   7.407   5.761   2.066  0.5165  2.0625 -0.5110
   16MOL   H202 9532   7.492   5.521   2.242  0.3754 -0.2900 -0.7056
   16MOL   H203 9533   7.434   5.494   2.083  1.1359 -0.1065  0.4515
   16MOL   H204 9534   7.272   5.623   2.313 -2.6309  0.0308 -0.2378
   16MOL   H205 9535   7.209   5.619   2.152 -0.1369 -1.4118 -0.7662
   16MOL   H206 9536   7.230   5.373   2.150 -2.5851  1.4569 -0.9170
   16MOL   H207 9537   7.290   5.360   2.311 -0.2457 -0.2370  0.1395
   16MOL   H208 9538   7.117   5.472   2.411  0.5610  2.1006 -1.9562
   16MOL   H209 9539   7.009   5.466   2.270  1.9357  2.8849 -0.6787
   16MOL   H210 9540   7.143   5.211   2.367  0.0907 -1.0197 -0.3129
   16MOL   H211 9541   7.027   5.210   2.255 -1.6356 -1.3602  0.5503
   16MOL   H212 9542   6.996   5.309   2.547  0.8629  1.6615 -1.5653
   16MOL   H213 9543   6.862   5.300   2.437  0.1445  0.6026  0.0185
   16MOL   H214 9544   7.039   5.054   2.499  0.3386  0.1032 -2.5988
   16MOL   H215 9545   6.896   5.043   2.412 -1.5460  1.2651 -0.9428
   16MOL   H216 9546   6.899   5.087   2.589  0.6752 -0.2700  0.4484
   16MOL   H217 9547   7.747   5.770   1.849  0.5909  1.2126 -2.3556
   16MOL   H218 9548   7.579   5.790   1.849 -0.0489  1.8088  0.0675
   16MOL   C219 9549   7.688   5.978   1.836 -0.1294 -0.0508  0.2261
   16MOL   O220 9550   7.555   6.014   1.803  0.1787 -0.1792  0.4765
   16MOL   C221 9551   7.517   6.149   1.827  0.1694  0.1942  0.4414
   16MOL   C222 9552   7.363   6.156   1.848  0.1389  0.1809  1.2442
   16MOL   C223 9553   7.318   6.074   1.973 -0.2489 -0.1306  0.6870
   16MOL   C224 9554   7.180   6.097   2.040  0.4735 -0.6261  0.2580
   16MOL   C225 9555   7.120   5.994   2.133 -0.1882  0.3327 -0.1874
   16MOL   C226 9556   6.974   6.018   2.163  0.6615  0.2716 -0.3774
   16MOL   C227 9557   6.927   5.916   2.265 -0.6838 -0.0925 -0.3668
   16MOL   C228 9558   6.775   5.909   2.288  0.3129 -0.6290 -0.1323
   16MOL   C229 9559   7.773   5.969   1.699  0.4692  0.4367  0.0899
   16MOL   H230 9560   7.729   6.055   1.901  1.3548 -1.0169  0.4497
   16MOL   H231 9561   7.555   6.207   1.743 -6.2796  0.0107 -2.9519
   16MOL   H232 9562   7.559   6.184   1.922  1.3526  0.2092 -0.0817
   16MOL   H233 9563   7.314   6.125   1.756  1.4130  0.9051  0.3070
   16MOL   H234 9564   7.326   6.257   1.865 -0.6358  0.0143  0.5615
   16MOL   H235 9565   7.317   5.972   1.934 -3.1799 -0.0511  0.3881
   16MOL   H236 9566   7.400   6.078   2.044  0.9843 -3.6881 -0.4149
   16MOL   H237 9567   7.178   6.192   2.094  1.0884 -0.1788 -0.4865
   16MOL   H238 9568   7.099   6.101   1.967 -0.5230 -3.2797  1.1505
   16MOL   H239 9569   7.130   5.898   2.083  0.7376  0.5809 -0.4776
   16MOL   H240 9570   7.174   5.993   2.228 -1.9717 -0.5274  0.8380
   16MOL   H241 9571   6.896   6.011   2.086 -1.7948  1.9037  1.8994
   16MOL   H242 9572   6.951   6.115   2.207 -1.0451 -1.0322  1.7190
   16MOL   H243 9573   6.962   5.821   2.224  3.7366 -0.4828  3.8510
   16MOL   H244 9574   6.973   5.922   2.363 -1.9934 -2.0986  0.3980
   16MOL   H245 9575   6.751   5.999   2.345  0.3319  0.3603 -1.6594
   16MOL   H246 9576   6.740   5.823   2.345 -1.6121  0.0403 -0.2585
   16MOL   H247 9577   6.725   5.904   2.191 -0.4972  0.0406  0.2399
   16MOL   H248 9578   7.729   5.878   1.659  0.4882  0.0591  0.9240
   16MOL   H249 9579   7.755   6.049   1.627  0.9826  0.2732 -0.2215
   16MOL   C250 9580   0.148   5.945   1.729  0.5110 -0.4939  0.0702
   16MOL   O251 9581   0.204   6.055   1.801 -0.1806  0.0706  0.0811
   16MOL   C252 9582   0.305   6.014   1.888 -0.2961 -0.2702 -0.2585
   16MOL   C253 9583   0.367   6.151   1.927  0.8327 -0.2641  0.3955
   16MOL   C254 9584   0.462   6.143   2.052  0.3344 -0.1598  0.1538
   16MOL   C255 9585   0.583   6.249   2.049  0.1394 -0.3779  0.1221
   16MOL   C256 9586   0.666   6.249   2.174 -0.1108  0.1302 -0.3099
   16MOL   C257 9587   0.804   6.317   2.140  0.5987 -0.1898 -0.0923
   16MOL   C258 9588   0.786   6.471   2.111  0.1689 -0.3909  0.0099
   16MOL   C259 9589   0.916   6.541   2.087  0.0632 -0.7570 -0.7161
   16MOL   C260 9590   0.231   5.943   1.595  0.3656 -0.1502 -0.3306
   16MOL   H261 9591   0.155   5.849   1.781  0.7090 -0.4603  0.1042
   16MOL   H262 9592   0.368   5.934   1.849  1.3811  2.3972 -3.1911
   16MOL   H263 9593   0.252   5.971   1.973  0.2391  0.4413  0.4425
   16MOL   H264 9594   0.285   6.219   1.946 -0.0622 -1.5349  1.1239
   16MOL   H265 9595   0.414   6.187   1.835  1.0785 -2.2431 -0.2823
   16MOL   H266 9596   0.412   6.141   2.148 -2.2526 -0.8227 -1.1769
   16MOL   H267 9597   0.509   6.044   2.050 -1.6303 -1.1455  1.7418
   16MOL   H268 9598   0.637   6.240   1.955 -2.1034  2.0713 -1.4588
   16MOL   H269 9599   0.537   6.347   2.045  0.3830 -0.3200 -1.5740
   16MOL   H270 9600   0.612   6.293   2.257  2.3589  1.7021  0.4889
   16MOL   H271 9601   0.678   6.143   2.199  0.8313  0.6457  1.4297
   16MOL   H272 9602   0.847   6.271   2.051 -0.5567  1.6412 -1.6472
   16MOL   H273 9603   0.874   6.308   2.222 -1.1380 -1.8483  1.2420
   16MOL   H274 9604   0.724   6.479   2.022  0.7965 -0.2848 -0.4253
   16MOL   H275 9605   0.735   6.512   2.198 -1.5062  0.7363 -1.4817
   16MOL   H276 9606   0.968   6.495   2.003 -0.9441 -0.9367 -1.2442
   16MOL   H277 9607   0.978   6.535   2.177  1.6587 -0.5926 -1.7941
   16MOL   H278 9608   0.910   6.647   2.064  0.3116  0.0777  2.7067
   16MOL   H279 9609   0.221   6.040   1.548  1.7548 -0.3042 -0.9633
   16MOL   H280 9610   0.337   5.933   1.616  1.1299  3.1597 -2.3358
   16MOL   C281 9611   0.194   5.821   1.501 -0.6202 -0.1588 -0.4449
   16MOL   O282 9612   0.200   5.700   1.579 -0.4362 -0.1065  0.2946
   16MOL   C283 9613   0.116   5.593   1.533 -0.0179  0.3484 -0.0468
   16MOL   C284 9614   0.123   5.476   1.628 -0.2503 -0.1041 -0.1459
   16MOL   C285 9615   0.054   5.516   1.760  0.2637  0.2895  0.1353
   16MOL   C286 9616   0.041   5.395   1.851  1.5379 -0.2402  0.1847
   16MOL   C287 9617   7.767   5.418   1.993 -0.6945 -0.2145 -0.2711
   16MOL   C288 9618   7.746   5.285   2.078 -0.3624  0.5869  0.5811
   16MOL   C289 9619   7.630   5.193   2.025 -0.4241 -0.5876 -0.5400
   16MOL   C290 9620   7.614   5.067   2.102  0.3981  0.6961  0.2233
   16MOL   C291 9621   0.297   5.817   1.386 -0.2827 -0.1192 -0.2830
   16MOL   H292 9622   0.095   5.842   1.459 -1.5665 -2.1584  0.7453
   16MOL   H293 9623   0.167   5.558   1.444 -1.2731 -2.2732  0.1989
   16MOL   H294 9624   0.017   5.632   1.510  0.2104  0.8841 -0.1351
   16MOL   H295 9625   0.225   5.446   1.653 -0.0812 -0.9902 -1.8465
   16MOL   H296 9626   0.073   5.391   1.583 -3.3063  0.4039  2.1639
   16MOL   H297 9627   0.095   5.596   1.820  1.9562  0.1424 -0.7941
   16MOL   H298 9628   7.733   5.553   1.722  0.8441 -0.1070 -1.7753
   16MOL   H299 9629   7.750   5.325   1.798  1.1384 -0.2193  0.6426
   16MOL   H300 9630   0.140   5.351   1.862  1.8436  0.2876 -0.4751
   16MOL   H301 9631   0.052   5.483   2.058 -1.3546  0.2691 -0.1536
   16MOL   H302 9632   7.673   5.473   2.001  0.7028  2.0523  1.2968
   16MOL   H303 9633   7.705   5.325   2.171 -1.1093  0.6619  0.2292
   16MOL   H304 9634   0.056   5.230   2.119 -0.7701 -1.4769 -1.2263
   16MOL   H305 9635   7.536   5.248   2.023  0.0925  0.2404 -2.2234
   16MOL   H306 9636   7.642   5.178   1.918 -2.0377  1.6797 -1.0782
   16MOL   H307 9637   7.708   5.013   2.105  1.2056  2.0075 -0.7272
   16MOL   H308 9638   7.537   5.006   2.056  1.5878 -0.0498 -0.8109
   16MOL   H309 9639   7.578   5.101   2.200 -0.2914 -1.4188  0.7191
   16MOL   H310 9640   0.383   5.789   1.446 -0.7828  0.1035  0.5448
   16MOL   H311 9641   0.277   5.728   1.326  1.9737  0.2556 -1.6287
   16MOL   C312 9642   0.326   5.923   1.290  0.5607  0.1787 -0.3512
   16MOL   O313 9643   0.217   5.941   1.202 -0.1818  0.3382  0.9207
   16MOL   C314 9644   0.146   6.068   1.185 -0.0213 -0.3959  1.1242
   16MOL   C315 9645   0.236   6.192   1.183  0.3804  0.5749 -0.0495
   16MOL   C316 9646   0.173   6.315   1.127  0.2016 -0.6577  0.5742
   16MOL   C317 9647   0.250   6.446   1.149 -0.6582  0.3598 -0.0187
   16MOL   C318 9648   0.187   6.564   1.078  0.6608  0.0902  0.0768
   16MOL   C319 9649   0.263   6.700   1.081 -0.1878 -0.7394 -0.0885
   16MOL   C320 9650   0.185   6.830   1.033  0.1460  0.3841 -0.7052
   16MOL   C321 9651   0.268   6.958   1.065 -0.1090 -0.3660 -0.0316
   16MOL   C322 9652   0.452   5.872   1.210  0.4304 -0.2913 -0.4396
   16MOL   H323 9653   0.345   6.018   1.339  0.0979  0.5640 -0.9126
   16MOL   H324 9654   0.074   6.074   1.266  0.2463 -0.3905  1.3607
   16MOL   H325 9655   0.078   6.071   1.099 -0.6359  2.0131  1.6725
   16MOL   H326 9656   0.326   6.165   1.129 -0.0671  1.4799 -1.2678
   16MOL   H327 9657   0.272   6.220   1.283 -2.9983  2.0682  0.8303
   16MOL   H328 9658   0.159   6.300   1.020  0.7126 -0.6551  0.5048
   16MOL   H329 9659   0.076   6.330   1.176 -0.3450  1.0557 -0.9470
   16MOL   H330 9660   0.257   6.465   1.256 -1.1015  0.4826 -0.0067
   16MOL   H331 9661   0.352   6.426   1.116  0.1541  4.1398 -0.0050
   16MOL   H332 9662   0.183   6.527   0.976 -1.4995 -1.7347  0.7794
   16MOL   H333 9663   0.084   6.573   1.111  0.7280  0.5537  0.1604
   16MOL   H334 9664   0.354   6.675   1.025 -0.5974 -1.2144 -0.5545
   16MOL   H335 9665   0.311   6.718   1.177  2.1193 -1.1796 -1.1127
   16MOL   H336 9666   0.159   6.824   0.927 -2.3269  0.0963 -0.1167
   16MOL   H337 9667   0.089   6.835   1.084  0.8166 -2.8147  0.9500
   16MOL   H338 9668   0.211   7.032   1.009 -0.5699 -0.7282 -0.0406
   16MOL   H339 9669   0.367   6.951   1.020  0.1665 -1.8922  0.7830
   16MOL   H340 9670   0.267   6.979   1.172 -0.9275  0.9373 -0.2848
   16MOL   H341 9671   0.451   5.763   1.199 -1.6256 -0.8663  4.3843
   16MOL   H342 9672   0.437   5.905   1.107 -0.0507 -0.2170 -0.3496
   16MOL   C343 9673   0.589   5.918   1.253  0.0340  0.0691 -0.4443
   16MOL   O344 9674   0.600   6.058   1.231  0.5581  0.0739 -0.0935
   16MOL   C345 9675   0.673   6.127   1.331 -0.3352  0.0327 -0.2662
   16MOL   C346 9676   0.739   6.246   1.264 -0.2372  0.0912  0.7736
   16MOL   C347 9677   0.653   6.356   1.198  0.4403  0.0183 -0.1526
   16MOL   C348 9678   0.729   6.479   1.148 -0.5846 -0.2538 -0.0995
   16MOL   C349 9679   0.662   6.557   1.038  1.0083 -0.3746 -0.1621
   16MOL   C350 9680   0.742   6.674   0.980 -0.1301 -0.1169  0.1072
   16MOL   C351 9681   0.653   6.742   0.873  0.3026  0.2875  0.5079
   16MOL   C352 9682   0.741   6.823   0.774 -0.3652 -0.1969 -0.1296
   16MOL   C353 9683   0.701   5.854   1.162  0.1587  0.3137 -0.2521
   16MOL   H354 9684   0.602   5.893   1.359  1.4297 -0.5838 -0.7586
   16MOL   H355 9685   0.747   6.063   1.380  3.9448  4.5700 -0.4080
   16MOL   H356 9686   0.592   6.163   1.394 -0.0211  0.7274 -0.2565
   16MOL   H357 9687   0.814   6.217   1.190  1.5701  1.2736  2.0945
   16MOL   H358 9688   0.795   6.296   1.343  3.0877 -1.6374 -0.3642
   16MOL   H359 9689   0.600   6.309   1.116 -2.9461  1.6996  0.9521
   16MOL   H360 9690   0.573   6.388   1.265 -0.8918 -2.1591 -0.6691
   16MOL   H361 9691   0.765   6.537   1.232 -1.0520  0.2683 -0.2579
   16MOL   H362 9692   0.822   6.440   1.106  0.3822 -0.8141  2.5190
   16MOL   H363 9693   0.635   6.489   0.958  3.4903 -2.7849  0.9496
   16MOL   H364 9694   0.567   6.590   1.080  1.4966  2.4807 -1.2015
   16MOL   H365 9695   0.823   6.625   0.925 -0.1381 -1.9379  1.6366
   16MOL   H366 9696   0.784   6.748   1.047  3.0769 -1.4222 -0.3727
   16MOL   H367 9697   0.586   6.672   0.824 -0.5469  2.5077 -1.5721
   16MOL   H368 9698   0.586   6.812   0.924  0.4156 -1.4780  3.2116
   16MOL   H369 9699   0.833   6.767   0.755 -0.3950  0.7497 -3.2135
   16MOL   H370 9700   0.782   6.917   0.811 -2.2649  0.4323  0.4180
   16MOL   H371 9701   0.700   6.845   0.676  0.9197  0.9377 -0.4251
   16MOL   H372 9702   0.659   5.839   1.063 -0.3988 -0.3911  0.0902
   16MOL   H373 9703   0.786   5.923   1.151 -0.7877  1.5798  0.2535
   16MOL   C374 9704   0.755   5.723   1.223 -0.7038 -0.4718 -0.5600
   16MOL   O375 9705   0.649   5.639   1.280  0.6163 -0.2935 -0.5993
   16MOL   C376 9706   0.675   5.499   1.285  0.1099  0.6059 -0.0853
   16MOL   C377 9707   0.574   5.435   1.381 -0.5308  0.6744  0.2353
   16MOL   C378 9708   0.577   5.282   1.381 -0.0748  0.3110  0.4614
   16MOL   C379 9709   0.696   5.224   1.466  0.0203 -0.3944  0.4443
   16MOL   C380 9710   0.708   5.067   1.475  0.1280  0.0086 -0.8430
   16MOL   C381 9711   0.836   5.029   1.561 -0.2737  0.0303  0.5975
   16MOL   C382 9712   0.859   4.874   1.539 -0.2769  0.0317 -0.1175
   16MOL   C383 9713   0.999   4.820   1.578 -0.0657 -0.2222  0.8493
   16MOL   C384 9714   0.853   5.743   1.346 -0.4525 -0.4719 -0.4809
   16MOL   H385 9715   0.802   5.670   1.140  1.6305  0.5601  0.0571
   16MOL   H386 9716   0.770   5.474   1.331 -1.3662 -0.5978  2.3798
   16MOL   H387 9717   0.668   5.454   1.186  1.1245 -0.0481  0.1359
   16MOL   H388 9718   0.475   5.468   1.348 -0.8531  0.4419  0.9367
   16MOL   H389 9719   0.595   5.480   1.478 -1.7876  1.7525  0.0267
   16MOL   H390 9720   0.480   5.252   1.420  0.1226 -1.7132 -0.5453
   16MOL   H391 9721   0.590   5.249   1.278 -1.9996  1.8838 -0.3159
   16MOL   H392 9722   0.788   5.276   1.437  1.1062 -1.7139  1.4641
   16MOL   H393 9723   0.671   5.256   1.567 -1.6043 -2.3274  0.6745
   16MOL   H394 9724   0.617   5.019   1.513 -0.2104  0.6062 -0.8903
   16MOL   H395 9725   0.720   5.040   1.370 -1.3666  1.8743 -1.5209
   16MOL   H396 9726   0.814   5.057   1.664  0.0600  0.3838  0.5732
   16MOL   H397 9727   0.911   5.098   1.522 -1.4715  0.9728 -0.0629
   16MOL   H398 9728   0.783   4.831   1.605  0.3891 -0.8158  0.1180
   16MOL   H399 9729   0.839   4.842   1.437  0.8601  0.4859 -0.4909
   16MOL   H400 9730   1.022   4.836   1.683  0.0737  0.7510  0.6736
   16MOL   H401 9731   1.076   4.885   1.537  0.3320  1.1716  3.6511
   16MOL   H402 9732   1.009   4.715   1.551  0.5644 -0.4070  1.7728
   16MOL   H403 9733   0.793   5.797   1.420  1.0442  1.7516 -0.8511
   16MOL   H404 9734   0.877   5.649   1.394  0.7527  0.5679  0.9919
   16MOL   C405 9735   0.985   5.821   1.322 -0.0230 -0.3091 -0.4247
   16MOL   O406 9736   1.071   5.745   1.231 -0.5895 -0.2809  0.1197
   16MOL   C407 9737   1.071   5.818   1.107  0.2255  0.4302 -0.2622
   16MOL   C408 9738   1.136   5.735   1.001  0.5804 -0.3538 -0.0164
   16MOL   C409 9739   1.075   5.600   0.965  0.0442 -0.2472  0.2905
   16MOL   C410 9740   1.161   5.532   0.853 -0.1240  1.0263 -0.8213
   16MOL   C411 9741   1.302   5.479   0.887  0.2950  0.1617 -0.6827
   16MOL   C412 9742   1.311   5.340   0.943 -0.1151  0.1593  0.2039
   16MOL   C413 9743   1.456   5.307   0.977 -0.4597 -0.8518  0.3048
   16MOL   C414 9744   1.462   5.167   1.048 -0.1760  1.0236  0.0582
   16MOL   C415 9745   1.059   5.843   1.452  0.5575  0.7504 -0.8329
   16MOL   H416 9746   0.960   5.923   1.294  1.5280  0.3252  0.4605
   16MOL   H417 9747   1.113   5.913   1.139 -1.3848  1.0864 -0.0174
   16MOL   H418 9748   0.966   5.836   1.081  0.5021  1.2205 -0.8285
   16MOL   H419 9749   1.241   5.720   1.023  1.0132 -1.3590 -2.6377
   16MOL   H420 9750   1.155   5.803   0.918  0.4726 -0.9365 -0.5138
   16MOL   H421 9751   1.058   5.527   1.045  0.7896 -1.2599 -0.4639
   16MOL   H422 9752   0.973   5.617   0.932  0.2768  0.3923 -0.0934
   16MOL   H423 9753   1.094   5.448   0.831  1.1115 -0.4889  1.0649
   16MOL   H424 9754   1.169   5.578   0.754  3.1775  1.1576 -0.5277
   16MOL   H425 9755   1.362   5.483   0.796 -1.2982 -0.5901 -1.8029
   16MOL   H426 9756   1.359   5.550   0.946 -0.3672  0.6493 -0.6303
   16MOL   H427 9757   1.260   5.264   0.884 -1.3915 -0.2094  1.7486
   16MOL   H428 9758   1.242   5.343   1.027 -0.9659 -1.3410 -0.4172
   16MOL   H429 9759   1.523   5.309   0.890  0.6455 -0.0088  1.1644
   16MOL   H430 9760   1.499   5.382   1.043  2.3117 -1.3190 -0.8653
   16MOL   H431 9761   1.438   5.083   0.982  0.6899  1.5433 -0.9365
   16MOL   H432 9762   1.398   5.173   1.136  0.7628  0.0501  0.8131
   16MOL   H433 9763   1.559   5.150   1.094 -1.6595 -1.1528  2.5290
   16MOL   H434 9764   0.994   5.893   1.524  1.7226  0.0886  0.7240
   16MOL   H435 9765   1.067   5.747   1.503  0.8902  0.9117 -0.5815
   16MOL   C436 9766   1.187   5.932   1.446 -0.4071  1.1146 -0.1776
   16MOL   O437 9767   1.290   5.836   1.430  0.5642 -0.1225  0.6735
   16MOL   C438 9768   1.379   5.871   1.336 -0.6657 -0.4458 -0.0611
   16MOL   C439 9769   1.500   5.776   1.338 -0.0260  0.9737 -0.1620
   16MOL   C440 9770   1.602   5.806   1.231  0.6931 -0.3972  0.2074
   16MOL   C441 9771   1.730   5.726   1.253  0.2311  0.7605 -0.2890
   16MOL   C442 9772   1.838   5.747   1.144 -0.0252  0.7019  0.5832
   16MOL   C443 9773   1.965   5.654   1.173 -0.2415 -0.4156 -0.6158
   16MOL   C444 9774   2.094   5.700   1.094 -0.0254 -0.2565 -0.2812
   16MOL   C445 9775   2.217   5.608   1.097  0.3205 -0.7384 -0.1080
   16MOL   C446 9776   1.237   6.010   1.572 -0.5599  0.8414 -0.4987
   16MOL   H447 9777   1.166   5.999   1.363  0.1261  0.7140 -0.6461
   16MOL   H448 9778   1.321   5.848   1.247  0.6752  0.6752 -1.2358
   16MOL   H449 9779   1.409   5.976   1.341 -1.9532 -0.1432  1.9535
   16MOL   H450 9780   1.464   5.673   1.330  0.5213  0.7481  0.2579
   16MOL   H451 9781   1.544   5.780   1.437  0.5177  0.7405 -0.3887
   16MOL   H452 9782   1.553   5.768   1.141 -2.0481  0.2673  1.3620
   16MOL   H453 9783   1.621   5.913   1.229 -1.2785 -0.0340 -0.5659
   16MOL   H454 9784   1.780   5.739   1.349 -1.0406  1.9960  0.2153
   16MOL   H455 9785   1.716   5.618   1.249  1.5040  0.5395  0.7699
   16MOL   H456 9786   1.787   5.718   1.052  0.0244 -1.7157  1.2746
   16MOL   H457 9787   1.871   5.850   1.134  0.3680  0.6536  1.3514
   16MOL   H458 9788   1.939   5.553   1.145 -1.2323 -0.5704  0.7795
   16MOL   H459 9789   1.990   5.649   1.279 -2.5482 -1.4400 -0.0939
   16MOL   H460 9790   2.059   5.735   0.996 -1.5562  0.2597  0.4275
   16MOL   H461 9791   2.124   5.793   1.142 -1.9212  0.7228 -0.9194
   16MOL   H462 9792   2.284   5.641   1.017  0.1980 -2.1686 -0.8264
   16MOL   H463 9793   2.186   5.504   1.088 -0.2352 -0.7090  1.4189
   16MOL   H464 9794   2.285   5.610   1.182  2.4980  1.8959 -1.7886
   16MOL   H465 9795   1.231   5.944   1.659  4.4269  0.5947 -0.2216
   16MOL   H466 9796   1.337   6.049   1.554  0.2359 -1.0565 -0.2764
   16MOL   C467 9797   1.146   6.126   1.592 -0.0398  0.4870 -0.0965
   16MOL   O468 9798   1.186   6.226   1.497 -0.0623 -0.7972 -0.4294
   16MOL   C469 9799   1.089   6.314   1.434  0.3971 -0.4068  0.6657
   16MOL   C470 9800   1.168   6.429   1.372 -0.3433 -0.7943 -0.0991
   16MOL   C471 9801   1.090   6.519   1.273 -0.2426 -0.5748  0.1460
   16MOL   C472 9802   1.163   6.646   1.220 -0.1968  0.0320  1.6349
   16MOL   C473 9803   1.076   6.739   1.143 -0.7669 -0.3079 -0.0264
   16MOL   C474 9804   1.158   6.845   1.074 -0.7588 -0.6935  0.1095
   16MOL   C475 9805   1.204   6.947   1.181 -0.1871  0.3871 -0.3207
   16MOL   C476 9806   1.275   7.064   1.117 -0.3977  0.1435 -0.3060
   16MOL   C477 9807   1.156   6.195   1.726  0.1239 -0.0144  0.1127
   16MOL   H478 9808   1.042   6.098   1.574  0.7585 -1.7883 -1.4030
   16MOL   H479 9809   1.014   6.340   1.509 -0.0420  1.0576 -0.2649
   16MOL   H480 9810   1.030   6.254   1.365 -0.6622  0.4127  0.8408
   16MOL   H481 9811   1.263   6.397   1.329 -0.7591 -1.7817 -0.2800
   16MOL   H482 9812   1.186   6.494   1.458 -0.5579 -0.1760 -0.5207
   16MOL   H483 9813   1.066   6.454   1.188 -1.5042 -0.3899  0.3625
   16MOL   H484 9814   0.999   6.560   1.316 -1.8429 -1.0401 -2.6790
   16MOL   H485 9815   1.199   6.697   1.310  3.0321 -0.1548  0.5189
   16MOL   H486 9816   1.252   6.614   1.166 -2.8524 -2.0547 -1.6548
   16MOL   H487 9817   1.029   6.688   1.059  0.3998  2.4707 -2.4592
   16MOL   H488 9818   0.993   6.777   1.203 -0.2409  1.2743 -0.2678
   16MOL   H489 9819   1.088   6.891   1.004  1.6993 -0.0557 -2.0010
   16MOL   H490 9820   1.238   6.802   1.013 -1.7809 -2.8695  0.2278
   16MOL   H491 9821   1.116   6.984   1.233 -0.6795 -0.8269 -0.2925
   16MOL   H492 9822   1.265   6.901   1.259 -1.0366 -2.0226 -1.0600
   16MOL   H493 9823   1.373   7.038   1.076  0.3455  0.4488  1.2433
   16MOL   H494 9824   1.284   7.153   1.180  0.7017 -0.1400 -0.0505
   16MOL   H495 9825   1.226   7.100   1.027  0.2031 -1.4317 -1.2986
   16MOL   H496 9826   1.258   6.232   1.738  0.0583 -0.0127  0.6663
   16MOL   H497 9827   1.098   6.287   1.731 -0.2054 -0.2620  0.8839
   16MOL   C498 9828   1.123   6.110   1.850  0.4920  0.1987 -0.5592
   16MOL   O499 9829   0.991   6.061   1.836  0.1006 -0.3452  0.0046
   16MOL   C500 9830   0.966   5.916   1.863 -0.0494  0.0120  0.3249
   16MOL   C501 9831   0.822   5.885   1.826 -0.1693 -0.0967  0.2014
   16MOL   C502 9832   0.799   5.736   1.816 -0.3442 -0.4470 -0.4086
   16MOL   C503 9833   0.648   5.697   1.804  0.0188 -0.3989 -0.1995
   16MOL   C504 9834   0.583   5.699   1.943 -0.4312 -0.4521  0.0626
   16MOL   C505 9835   0.453   5.630   1.935 -0.1596 -0.4786 -0.5348
   16MOL   C506 9836   0.384   5.620   2.075  0.2562  0.8173 -0.6396
   16MOL   C507 9837   0.390   5.482   2.152 -0.0638 -0.6988  0.6435
   16MOL   C508 9838   1.138   6.197   1.979 -0.0233 -0.1394  0.8330
   16MOL   H509 9839   1.193   6.027   1.858 -0.8253 -1.1416 -2.4749
   16MOL   H510 9840   0.976   5.890   1.968 -0.6757 -0.5708  0.2365
   16MOL   H511 9841   1.038   5.863   1.801 -1.3930  1.5616 -2.6421
   16MOL   H512 9842   0.782   5.916   1.729  2.3925 -0.5186 -1.0295
   16MOL   H513 9843   0.758   5.933   1.899  0.8445  1.8789 -0.1814
   16MOL   H514 9844   0.854   5.701   1.728 -0.5199  0.2848 -0.8184
   16MOL   H515 9845   0.851   5.688   1.899  0.8368 -1.2550 -1.5880
   16MOL   H516 9846   0.601   5.755   1.725  2.1362  1.7467  0.0657
   16MOL   H517 9847   0.647   5.599   1.757  0.0995  0.7203 -2.5790
   16MOL   H518 9848   0.650   5.651   2.014  0.1447  0.1492 -0.0685
   16MOL   H519 9849   0.567   5.803   1.971  2.6812  0.1105 -0.0164
   16MOL   H520 9850   0.471   5.529   1.898 -1.0257 -0.6124 -0.5972
   16MOL   H521 9851   0.393   5.682   1.861 -1.3175 -1.3755 -0.2440
   16MOL   H522 9852   0.424   5.704   2.132 -1.2358  0.3799  1.1001
   16MOL   H523 9853   0.279   5.645   2.061 -0.2379 -1.4254 -1.0964
   16MOL   H524 9854   0.495   5.453   2.161 -0.3558 -1.1652  2.9836
   16MOL   H525 9855   0.347   5.410   2.083  1.0358 -1.9444  1.2275
   16MOL   H526 9856   0.336   5.469   2.246  0.3313 -2.0911  0.6914
   16MOL   H527 9857   1.075   6.284   1.961  1.0893  0.5821  0.4394
   16MOL   H528 9858   1.087   6.150   2.063 -0.1233 -1.8145 -0.1197
   16MOL   C529 9859   1.280   6.263   2.014  0.0974  0.4215 -0.9709
   16MOL   O530 9860   1.336   6.164   2.096 -0.1604  0.3829 -0.0521
   16MOL   C531 9861   1.460   6.115   2.044 -0.6059  0.1107  0.4949
   16MOL   C532 9862   1.491   5.977   2.104  0.5274  1.2593  0.1235
   16MOL   C533 9863   1.384   5.875   2.052  0.0538  0.1734  0.0214
   16MOL   C534 9864   1.422   5.730   2.095 -0.4227 -0.0606  0.3448
   16MOL   C535 9865   1.305   5.640   2.093  0.6280  0.6276  0.3572
   16MOL   C536 9866   1.264   5.604   1.950  0.3837  0.6400  0.6139
   16MOL   C537 9867   1.153   5.500   1.940  0.2517 -0.1519  0.0484
   16MOL   C538 9868   1.105   5.508   1.794  0.2079  0.0552 -0.0764
   16MOL   C539 9869   1.273   6.402   2.084  0.1488 -0.1276 -0.3694
   16MOL   H540 9870   1.323   6.284   1.916 -0.4088 -1.3935 -1.6094
   16MOL   H541 9871   1.460   6.119   1.935  2.5051  0.0512  0.4518
   16MOL   H542 9872   1.536   6.193   2.047 -0.8029  0.3801 -0.9865
   16MOL   H543 9873   1.480   5.975   2.212 -1.7249 -0.4127 -0.1226
   16MOL   H544 9874   1.590   5.936   2.080  0.1357 -0.3982  1.2749
   16MOL   H545 9875   1.286   5.900   2.091  0.0955 -0.4304  0.5173
   16MOL   H546 9876   1.373   5.881   1.943 -0.6415 -0.1093  0.0745
   16MOL   H547 9877   1.502   5.685   2.035  0.0549 -1.8526  2.2511
   16MOL   H548 9878   1.463   5.735   2.196 -0.0427  0.4908  0.1650
   16MOL   H549 9879   1.337   5.539   2.121  0.7921  0.6296  0.1749
   16MOL   H550 9880   1.217   5.663   2.153  0.7926  2.0466  0.0782
   16MOL   H551 9881   1.357   5.586   1.895 -1.0002 -1.5842 -1.1218
   16MOL   H552 9882   1.237   5.696   1.898  1.5588  0.8312  0.3194
   16MOL   H553 9883   1.183   5.398   1.961 -2.7831 -1.0102  0.4945
   16MOL   H554 9884   1.067   5.523   2.003  1.2789 -0.1912  1.4801
   16MOL   H555 9885   1.019   5.444   1.776  0.0973 -0.1102  1.0129
   16MOL   H556 9886   1.177   5.486   1.715  0.2279  0.3450 -0.1381
   16MOL   H557 9887   1.067   5.609   1.780 -0.1953 -0.0219  0.4464
   16MOL   H558 9888   1.219   6.474   2.023  0.6783  1.8476  1.4368
   16MOL   H559 9889   1.230   6.398   2.184  0.1076  0.2758 -0.3722
   16MOL   C560 9890   1.417   6.460   2.104 -0.5578 -0.5380 -0.9793
   16MOL   O561 9891   1.403   6.587   2.168 -0.1129 -0.0085 -0.6134
   16MOL   C562 9892   1.420   6.582   2.315  0.1561  0.3208 -0.0418
   16MOL   C563 9893   1.353   6.708   2.377 -0.3088 -0.0655 -0.5149
   16MOL   C564 9894   1.208   6.721   2.333  0.3345 -0.5604 -0.8236
   16MOL   C565 9895   1.107   6.824   2.404  0.0237  0.3159 -0.1458
   16MOL   C566 9896   1.064   6.781   2.540  0.0030 -0.7063  0.0855
   16MOL   C567 9897   0.938   6.683   2.533 -0.5193 -0.6930  0.4791
   16MOL   C568 9898   0.873   6.646   2.670 -0.2203 -0.5567  0.5369
   16MOL   C569 9899   0.807   6.762   2.751 -0.1437  0.5679  0.3304
   16MOL   C570 9900   1.509   6.482   1.982 -0.3115 -0.3456  0.1578
   16MOL   H571 9901   1.467   6.386   2.166  0.8873  1.2672  0.0568
   16MOL   H572 9902   1.527   6.584   2.335 -0.3032  1.1498  2.4450
   16MOL   H573 9903   1.369   6.493   2.353 -0.5816  0.4680 -0.6608
   16MOL   H574 9904   1.409   6.796   2.343  1.6767 -1.4684 -0.9508
   16MOL   H575 9905   1.362   6.702   2.485  0.6241  1.0440 -0.5198
   16MOL   H576 9906   1.211   6.732   2.225  0.3401  0.8492 -0.6910
   16MOL   H577 9907   1.165   6.621   2.334  0.0485 -0.4430  0.5076
   16MOL   H578 9908   1.147   6.925   2.415  1.4163 -0.1922 -0.3716
   16MOL   H579 9909   1.019   6.832   2.340  1.3208 -0.7515 -2.1339
   16MOL   H580 9910   1.149   6.728   2.584 -0.3393 -1.3501 -0.0289
   16MOL   H581 9911   1.047   6.867   2.604  1.4978  0.0576 -0.5344
   16MOL   H582 9912   0.977   6.593   2.484 -2.4033 -1.6035  0.6073
   16MOL   H583 9913   0.857   6.718   2.469 -0.1689 -1.6603 -0.5083
   16MOL   H584 9914   0.793   6.574   2.653 -3.2361  2.0985  2.8122
   16MOL   H585 9915   0.946   6.584   2.721  2.4814  0.4761 -1.9579
   16MOL   H586 9916   0.757   6.834   2.687 -0.8828 -0.7422 -0.5816
   16MOL   H587 9917   0.873   6.828   2.809  0.5258  1.1633 -1.0936
   16MOL   H588 9918   0.738   6.717   2.822 -1.0760  1.2265 -0.1504
   16MOL   H589 9919   1.609   6.518   2.008 -0.3426 -0.4131  0.3688
   16MOL   H590 9920   1.527   6.381   1.946 -0.3801 -0.0472 -0.7136
   16MOL   C591 9921   1.442   6.559   1.865 -0.2610 -0.1977 -0.5234
   16MOL   O592 9922   1.523   6.539   1.748  0.2424  0.0478 -0.1716
   16MOL   C593 9923   1.488   6.427   1.674 -0.2006 -0.6346  0.1641
   16MOL   C594 9924   1.570   6.435   1.550  0.4773 -0.3131  0.0516
   16MOL   C595 9925   1.553   6.320   1.454  0.4515 -0.5910  0.0989
   16MOL   C596 9926   1.614   6.350   1.318 -0.3243  0.3673  0.5688
   16MOL   C597 9927   1.583   6.239   1.219  0.7053  0.2440 -0.4247
   16MOL   C598 9928   1.437   6.236   1.166  0.0567  0.4981  0.6898
   16MOL   C599 9929   1.402   6.123   1.058  0.4421 -0.0849  0.0948
   16MOL   C600 9930   1.256   6.133   1.009  0.0985  1.0595 -0.4135
   16MOL   C601 9931   1.426   6.707   1.885  0.5763  0.9672 -0.2235
   16MOL   H602 9932   1.350   6.511   1.833 -0.5417 -0.7526  1.0606
   16MOL   H603 9933   1.381   6.423   1.653 -0.3238 -0.4974  0.7355
   16MOL   H604 9934   1.528   6.343   1.732  0.5937 -0.2209  0.2254
   16MOL   H605 9935   1.673   6.441   1.584  0.3405 -0.1601  0.4396
   16MOL   H606 9936   1.545   6.525   1.494  0.4794  0.5411  1.4021
   16MOL   H607 9937   1.569   6.223   1.502  1.1189 -1.9649 -2.7313
   16MOL   H608 9938   1.446   6.317   1.432  0.6631  0.3202 -1.1547
   16MOL   H609 9939   1.590   6.445   1.270  0.5314  1.2143  1.7756
   16MOL   H610 9940   1.723   6.354   1.325 -0.0641 -2.0283 -1.2782
   16MOL   H611 9941   1.658   6.247   1.140  1.5993 -0.2609  0.3634
   16MOL   H612 9942   1.602   6.149   1.278  0.5598  0.5771  0.1304
   16MOL   H613 9943   1.412   6.333   1.121 -0.3861  0.8322  1.6489
   16MOL   H614 9944   1.357   6.211   1.236 -0.1993  0.4993  0.4027
   16MOL   H615 9945   1.462   6.128   0.968 -1.2934 -1.0019 -1.1516
   16MOL   H616 9946   1.419   6.025   1.104 -0.3517  0.0121  0.6131
   16MOL   H617 9947   1.234   6.228   0.961 -1.6874  0.7975 -0.1654
   16MOL   H618 9948   1.184   6.120   1.090  2.6966  1.1114  1.9781
   16MOL   H619 9949   1.225   6.064   0.931 -0.7832 -0.7063  1.4254
   16MOL   H620 9950   1.350   6.721   1.962 -1.7702 -1.8437 -1.9290
   16MOL   H621 9951   1.519   6.743   1.928  1.5719 -3.1830  1.4151
   16MOL   H622 9952   1.394   6.751   1.791 -2.2764  2.2707  1.3014
   17MOL     C1 9953   5.001   4.937   2.465  0.6534 -0.2224  0.2372
   17MOL     O2 9954   4.894   4.846   2.441 -0.8107 -0.3738  0.7131
   17MOL     C3 9955   4.932   4.711   2.433  0.0326  0.0629 -0.6363
   17MOL     C4 9956   4.812   4.622   2.425 -0.6909  0.1915  0.0708
   17MOL     C5 9957   4.739   4.614   2.563 -0.1147  0.0828 -0.0474
   17MOL     C6 9958   4.600   4.551   2.548  0.6476 -0.2183 -0.5078
   17MOL     C7 9959   4.557   4.525   2.692  0.2951  0.3997  0.0061
   17MOL     C8 9960   4.430   4.450   2.719  0.1470  0.0466  0.1355
   17MOL     C9 9961   4.420   4.378   2.847 -0.3831  0.4948  0.1051
   17MOL    C10 9962   4.290   4.398   2.912 -0.3919 -0.1706 -0.0740
   17MOL    C11 9963   4.955   5.081   2.468 -0.4128  0.0834  0.0475
   17MOL    H12 9964   5.035   4.914   2.566 -2.4087 -0.4250  1.2616
   17MOL    H13 9965   4.992   4.691   2.522 -1.8816  0.3294  0.7431
   17MOL    H14 9966   4.987   4.691   2.340 -2.0830 -0.9171 -1.7103
   17MOL    H15 9967   4.857   4.525   2.402 -2.8862 -0.5420 -1.2807
   17MOL    H16 9968   4.747   4.658   2.346 -0.3655 -1.3393 -0.9253
   17MOL    H17 9969   4.808   4.568   2.633 -1.6982  0.1991  1.6077
   17MOL    H18 9970   4.722   4.713   2.606 -0.9602 -0.6891  1.4119
   17MOL    H19 9971   4.529   4.622   2.505 -0.5020 -0.0881  1.5708
   17MOL    H20 9972   4.607   4.462   2.485  0.8102  1.5523 -3.0796
   17MOL    H21 9973   4.640   4.472   2.738 -0.2926  1.0769  1.9119
   17MOL    H22 9974   4.555   4.618   2.748 -0.3143  0.3472  0.0746
   17MOL    H23 9975   4.434   4.381   2.635 -0.3313 -2.3561  2.0030
   17MOL    H24 9976   4.349   4.521   2.704 -0.8070 -0.8932  0.7729
   17MOL    H25 9977   4.424   4.270   2.829  0.3525  0.2432  1.6203
   17MOL    H26 9978   4.506   4.404   2.910 -0.9654 -0.2114  1.2096
   17MOL    H27 9979   4.293   4.349   3.010  0.1481 -0.2621 -0.1332
   17MOL    H28 9980   4.207   4.350   2.860 -0.5206 -0.6888  0.5987
   17MOL    H29 9981   4.280   4.506   2.922  0.5305 -0.1002  0.1207
   17MOL    H30 9982   4.919   5.094   2.366 -3.1247  0.3033  1.0126
   17MOL    H31 9983   4.867   5.088   2.531 -1.0180 -0.7265 -0.6882
   17MOL    H32 9984   5.084   4.922   2.396  2.2242  0.3784  1.9584
   17MOL    C33 9985   5.071   5.182   2.500  0.0359 -0.9714 -0.4170
   17MOL    O34 9986   5.101   5.167   2.642  0.5405 -0.7753  0.7458
   17MOL    C35 9987   5.210   5.243   2.686 -0.0360  0.0551  0.7547
   17MOL    C36 9988   5.257   5.162   2.810  0.0804 -0.0450  0.4112
   17MOL    C37 9989   5.175   5.163   2.938 -0.9601 -0.9559 -0.0225
   17MOL    C38 9990   5.235   5.091   3.068 -0.3637  0.1909 -0.0895
   17MOL    C39 9991   5.153   5.087   3.198  0.0767  0.4237 -0.6061
   17MOL    C40 9992   5.189   5.209   3.281 -0.3354 -0.1681 -0.0019
   17MOL    C41 9993   5.113   5.208   3.414 -0.3168  0.2770 -0.2549
   17MOL    C42 9994   5.129   5.346   3.480  0.1862  0.2136  0.4786
   17MOL    C43 9995   5.014   5.325   2.465 -0.0219  0.6464  0.2653
   17MOL    H44 9996   5.159   5.162   2.440  0.9613  1.1585  0.1649
   17MOL    H45 9997   5.195   5.348   2.709 -0.5638  0.2327 -0.3418
   17MOL    H46 9998   5.289   5.253   2.611 -1.3595  2.0291 -0.4350
   17MOL    H47 9999   5.357   5.202   2.828 -0.1333  0.0085  1.4747
   17MOL    H4810000   5.263   5.057   2.780 -2.9085 -0.4707  1.2389
   17MOL    H4910001   5.151   5.265   2.967 -0.2551 -0.8094  0.0532
   17MOL    H5010002   5.086   5.107   2.911 -0.7656 -1.5726  0.5800
   17MOL    H5110003   5.251   4.986   3.041  0.3283 -0.1054  1.4189
   17MOL    H5210004   5.336   5.129   3.082  0.8503 -2.2397 -1.7929
   17MOL    H5310005   5.046   5.082   3.176 -0.0341 -2.1966  0.3688
   17MOL    H5410006   5.176   4.995   3.251  1.3358  0.6470 -0.7546
   17MOL    H5510007   5.159   5.292   3.218  0.9996  1.0952  1.0004
   17MOL    H5610008   5.295   5.223   3.301 -0.2695 -1.4423  0.6363
   17MOL    H5710009   5.009   5.182   3.394 -1.1510 -0.4870  4.4101
   17MOL    H5810010   5.164   5.134   3.476 -0.1683  0.7297  0.1655
   17MOL    H5910011   5.090   5.416   3.406  1.6256  1.2535  0.6956
   17MOL    H6010012   5.235   5.367   3.491  0.5522 -1.7881  1.0070
   17MOL    H6110013   5.076   5.362   3.574  0.8077 -1.0773  1.0571
   17MOL    H6210014   4.925   5.335   2.528 -0.1736  0.2862  0.1151
   17MOL    H6310015   5.091   5.396   2.494  0.6996 -0.3202  0.7494
   17MOL    C6410016   4.980   5.354   2.317  0.4417  0.2187 -0.2437
   17MOL    O6510017   5.105   5.330   2.252 -0.4582 -1.1547 -0.6490
   17MOL    C6610018   5.093   5.301   2.112  0.1467  0.4242 -0.4561
   17MOL    C6710019   5.165   5.163   2.099  0.3304 -0.0385 -0.0523
   17MOL    C6810020   5.314   5.167   2.137 -0.2935 -0.1510 -0.0489
   17MOL    C6910021   5.398   5.040   2.106 -0.3895  0.3327 -0.2523
   17MOL    C7010022   5.356   4.913   2.189 -0.6227  0.1033  0.3308
   17MOL    C7110023   5.460   4.802   2.216  0.5515  0.2466  0.1262
   17MOL    C7210024   5.397   4.673   2.272 -0.3418  0.3792  0.0029
   17MOL    C7310025   5.486   4.543   2.266  0.0216  0.1587 -0.0433
   17MOL    C7410026   4.938   5.509   2.299  0.8304 -0.1651  0.4323
   17MOL    H7510027   4.911   5.276   2.283  1.6217 -2.0844  2.4975
   17MOL    H7610028   5.140   5.376   2.048  0.9640 -0.3286 -0.7609
   17MOL    H7710029   4.993   5.300   2.068  0.1260 -0.7114 -0.4168
   17MOL    H7810030   5.163   5.124   1.997  1.1937  0.0679 -0.1152
   17MOL    H7910031   5.119   5.090   2.166 -2.0825 -0.1849 -1.8205
   17MOL    H8010032   5.359   5.253   2.086  0.4526  1.9163  3.8942
   17MOL    H8110033   5.310   5.186   2.244  2.4762 -0.6151  0.1804
   17MOL    H8210034   5.409   5.014   2.001  1.8100  0.8562 -0.1922
   17MOL    H8310035   5.502   5.073   2.113 -0.4535  0.6087 -0.6091
   17MOL    H8410036   5.320   4.952   2.284 -0.8795  0.8400 -0.0600
   17MOL    H8510037   5.277   4.865   2.131  0.0352 -0.1068 -0.3956
   17MOL    H8610038   5.540   4.849   2.273  0.9690 -1.4023  0.9261
   17MOL    H8710039   5.506   4.779   2.120 -1.3035 -1.0331 -0.4974
   17MOL    H8810040   5.354   4.692   2.370 -1.3854 -0.1828 -0.3338
   17MOL    H8910041   5.299   4.649   2.229 -0.4508  0.0779  0.4095
   17MOL    H9010042   5.571   4.561   2.332 -1.2488 -1.2492  2.0396
   17MOL    H9110043   5.523   4.536   2.164  0.5603  0.7835  0.1054
   17MOL    H9210044   5.440   4.447   2.288  0.2401  0.3054  1.0915
   17MOL    H9310045   5.028   5.570   2.313  1.0927 -0.4458 -0.0432
   17MOL    H9410046   4.915   5.516   2.193 -0.2008  1.3991  0.7461
   17MOL    C9510047   4.817   5.560   2.377 -0.0812 -0.0082 -0.4042
   17MOL    O9610048   4.712   5.531   2.285  0.4960 -0.7044  0.3990
   17MOL    C9710049   4.627   5.430   2.334 -0.5277 -0.3861 -0.2730
   17MOL    C9810050   4.492   5.451   2.272 -0.0586  0.5630  0.3305
   17MOL    C9910051   4.386   5.334   2.294 -0.2970  0.4705  0.1597
   17MOL   C10010052   4.248   5.364   2.230 -0.4317 -0.3818  0.5188
   17MOL   C10110053   4.145   5.248   2.253 -0.6695 -0.2512 -0.1755
   17MOL   C10210054   4.110   5.215   2.402 -0.3048 -0.2462 -0.4110
   17MOL   C10310055   4.057   5.341   2.479 -0.2071 -0.0537 -0.0513
   17MOL   C10410056   3.990   5.298   2.611 -0.3217  0.0058 -0.0912
   17MOL   C10510057   4.805   5.705   2.405 -0.6174  0.3954 -0.0318
   17MOL   H10610058   4.806   5.495   2.463 -1.8376 -0.0510 -0.6286
   17MOL   H10710059   4.610   5.427   2.442  0.0447 -0.8555 -0.1934
   17MOL   H10810060   4.676   5.334   2.318  0.6145 -0.4661  3.1926
   17MOL   H10910061   4.494   5.470   2.165  0.3725  0.5788  0.3438
   17MOL   H11010062   4.460   5.546   2.315  0.3631 -0.0708  2.1123
   17MOL   H11110063   4.423   5.238   2.259 -0.1630  0.9558 -1.0455
   17MOL   H11210064   4.374   5.326   2.402  0.8713  1.5791  0.3822
   17MOL   H11310065   4.208   5.462   2.255  1.0660  0.7475 -1.3759
   17MOL   H11410066   4.258   5.365   2.122 -0.9175  1.3661  0.4681
   17MOL   H11510067   4.061   5.280   2.191  0.5729 -1.5745 -2.6181
   17MOL   H11610068   4.175   5.159   2.200 -2.0689 -0.4235 -0.7021
   17MOL   H11710069   4.199   5.186   2.457  0.1160 -0.6955 -1.3064
   17MOL   H11810070   4.033   5.139   2.394  0.2928 -0.6583 -2.4714
   17MOL   H11910071   4.128   5.421   2.501  0.4349 -0.8102  0.7039
   17MOL   H12010072   3.992   5.394   2.410  0.0484  1.1659  0.6235
   17MOL   H12110073   3.918   5.215   2.603  0.9598 -1.0810 -0.4908
   17MOL   H12210074   3.945   5.383   2.661  1.4669  1.1426 -0.3996
   17MOL   H12310075   4.073   5.260   2.670 -0.4752  0.3007  0.3116
   17MOL   H12410076   4.840   5.751   2.313 -1.3342  0.2039 -0.3967
   17MOL   H12510077   4.705   5.746   2.418 -0.8960 -0.1216 -0.5282
   17MOL   C12610078   4.907   5.755   2.513 -0.3919 -0.1277  0.4314
   17MOL   O12710079   4.883   5.673   2.630  0.2101  1.2118 -0.1625
   17MOL   C12810080   5.002   5.660   2.711  0.2887 -0.2857 -0.5083
   17MOL   C12910081   4.980   5.567   2.828  0.0455  0.1471  0.0751
   17MOL   C13010082   4.894   5.605   2.945  0.1161 -0.2077 -0.5629
   17MOL   C13110083   4.821   5.490   3.016  0.1943  0.0363  0.4882
   17MOL   C13210084   4.735   5.531   3.129 -0.1379  0.2069 -0.3016
   17MOL   C13310085   4.657   5.415   3.190 -0.2741  0.4745 -1.0251
   17MOL   C13410086   4.746   5.304   3.246  0.7241  0.5821 -0.0464
   17MOL   C13510087   4.671   5.169   3.242 -0.3871 -0.4814 -0.3713
   17MOL   C13610088   4.888   5.903   2.545 -0.2212 -0.6824  0.3096
   17MOL   H13710089   5.001   5.742   2.460 -0.7463  1.4319 -0.5863
   17MOL   H13810090   5.035   5.760   2.738  1.0515 -0.4311 -0.9029
   17MOL   H13910091   5.067   5.595   2.653 -2.5827 -1.0760 -2.9535
   17MOL   H14010092   5.077   5.548   2.873 -0.6165 -3.0181  0.2796
   17MOL   H14110093   4.941   5.476   2.782 -4.0311  1.3787  0.8616
   17MOL   H14210094   4.958   5.653   3.019  1.4460 -2.8981  0.1153
   17MOL   H14310095   4.818   5.681   2.926 -0.4462 -0.1487  1.6726
   17MOL   H14410096   4.771   5.436   2.935  0.0747 -0.1968  0.7166
   17MOL   H14510097   4.907   5.426   3.036  0.4138 -0.3512 -1.5332
   17MOL   H14610098   4.790   5.585   3.206 -0.9194 -0.1309  0.5119
   17MOL   H14710099   4.662   5.603   3.091 -0.0403  1.1206  1.1774
   17MOL   H14810100   4.588   5.369   3.119  0.1711 -1.7400 -0.0744
   17MOL   H14910101   4.602   5.452   3.277  1.1378  2.1654 -0.8258
   17MOL   H15010102   4.833   5.291   3.183 -0.0861 -1.3623 -0.7997
   17MOL   H15110103   4.774   5.326   3.349  0.7960  0.1867  0.0205
   17MOL   H15210104   4.666   5.130   3.141  2.5060 -0.1173 -0.6750
   17MOL   H15310105   4.569   5.187   3.277 -0.2244  0.9775 -0.6301
   17MOL   H15410106   4.721   5.094   3.303  1.5016  0.8152 -0.2947
   17MOL   H15510107   4.788   5.915   2.584 -1.5486 -5.3882 -1.3384
   17MOL   H15610108   4.967   5.932   2.615  0.4276 -0.6654 -0.4246
   17MOL   C15710109   4.906   6.001   2.423  0.2032  0.0146  0.0781
   17MOL   O15810110   5.031   5.960   2.370 -0.0468  0.2607  0.6395
   17MOL   C15910111   5.039   5.979   2.229  0.0106  0.1880  0.3730
   17MOL   C16010112   5.149   5.885   2.182  0.2736  0.4282 -0.5957
   17MOL   C16110113   5.297   5.928   2.196  0.1691 -0.5686  0.1711
   17MOL   C16210114   5.406   5.825   2.169  0.3036 -0.0806  0.3093
   17MOL   C16310115   5.414   5.729   2.293 -0.6409  0.0421  0.4603
   17MOL   C16410116   5.511   5.617   2.269 -0.3836  0.0843  0.3054
   17MOL   C16510117   5.487   5.504   2.369 -0.1049 -0.3992 -0.7560
   17MOL   C16610118   5.567   5.371   2.340  0.2291  0.0983 -0.1958
   17MOL   C16710119   4.910   6.144   2.479  0.5149  0.2101  0.5852
   17MOL   H16810120   4.820   5.990   2.357  2.3231  0.1109 -2.7953
   17MOL   H16910121   5.057   6.085   2.216  2.4266 -0.2877 -0.5154
   17MOL   H17010122   4.945   5.956   2.177  0.4796 -2.7216  0.6871
   17MOL   H17110123   5.140   5.868   2.075  2.6632 -1.8741 -0.4761
   17MOL   H17210124   5.140   5.792   2.237 -1.7764  1.5974  1.1383
   17MOL   H17310125   5.301   6.020   2.138 -0.1920  0.1563  1.2789
   17MOL   H17410126   5.322   5.964   2.296 -3.5137  0.3530  0.7998
   17MOL   H17510127   5.403   5.786   2.068 -1.3613  1.6043 -0.3195
   17MOL   H17610128   5.505   5.870   2.156 -0.1673  1.5532  2.1309
   17MOL   H17710129   5.424   5.772   2.393 -0.6684  0.9737  0.0660
   17MOL   H17810130   5.315   5.683   2.295 -0.7555 -0.1777 -4.5062
   17MOL   H17910131   5.610   5.662   2.273  0.1907 -1.0801 -0.7612
   17MOL   H18010132   5.503   5.577   2.168 -0.2498  1.4360 -0.2533
   17MOL   H18110133   5.509   5.536   2.471 -1.4186 -0.1323 -0.5495
   17MOL   H18210134   5.385   5.468   2.356 -0.6604  0.6293  0.6396
   17MOL   H18310135   5.564   5.309   2.430 -1.7627  0.4187 -0.0073
   17MOL   H18410136   5.673   5.386   2.322  0.6365 -1.2935  0.8950
   17MOL   H18510137   5.533   5.315   2.252 -1.3618 -0.8249  0.9739
   17MOL   H18610138   4.839   6.139   2.562  0.6935  2.0588  0.8764
   17MOL   H18710139   5.007   6.168   2.521 -0.4498  2.0224  1.8300
   17MOL   C18810140   4.881   6.273   2.393 -0.1996  0.7634 -0.6796
   17MOL   O18910141   4.893   6.386   2.483  0.5885  0.5544 -0.6141
   17MOL   C19010142   5.024   6.431   2.493 -0.1034 -0.7475 -0.1011
   17MOL   C19110143   5.051   6.514   2.618  0.2209 -0.3805 -1.2262
   17MOL   C19210144   5.061   6.434   2.747  0.0034  0.4488 -0.1951
   17MOL   C19310145   5.100   6.518   2.862  0.2223  0.0311  0.0831
   17MOL   C19410146   5.081   6.464   3.005  0.5522  0.2942 -0.0903
   17MOL   C19510147   5.129   6.568   3.113 -0.3458  0.3379 -0.8531
   17MOL   C19610148   5.012   6.660   3.167  0.3783  0.7422 -0.6047
   17MOL   C19710149   5.047   6.749   3.297 -0.0797 -0.6287 -0.0429
   17MOL   C19810150   4.741   6.283   2.332  0.6119  0.6002  0.0146
   17MOL   H19910151   4.959   6.276   2.318 -1.3455  0.9088 -1.8834
   17MOL   H20010152   5.099   6.354   2.477 -0.2253 -0.8870  0.0041
   17MOL   H20110153   5.051   6.489   2.405 -1.1583  0.9439  0.6696
   17MOL   H20210154   4.973   6.590   2.622  2.0917  1.4879  0.5801
   17MOL   H20310155   5.148   6.563   2.615  0.0575  0.1092  0.6945
   17MOL   H20410156   4.971   6.380   2.779 -0.6870  1.5483 -0.2638
   17MOL   H20510157   5.143   6.363   2.732 -1.0002 -0.3889 -1.8450
   17MOL   H20610158   5.208   6.532   2.862  0.5464 -2.0391  2.2668
   17MOL   H20710159   5.055   6.617   2.858  1.4781  0.6401  0.5803
   17MOL   H20810160   4.974   6.444   3.017  0.0571  2.1450 -1.0837
   17MOL   H20910161   5.137   6.373   3.024  2.5323  1.3845 -0.5620
   17MOL   H21010162   5.218   6.623   3.081 -0.1796  0.2613 -0.5244
   17MOL   H21110163   5.154   6.502   3.196  2.6029 -1.1086 -2.7737
   17MOL   H21210164   4.979   6.713   3.078 -1.6678 -0.1559 -0.4012
   17MOL   H21310165   4.939   6.586   3.200 -1.1810  1.5233 -2.2218
   17MOL   H21410166   5.082   6.848   3.269 -0.7948 -0.2222  0.4867
   17MOL   H21510167   5.115   6.695   3.362  1.3534  2.5013  1.1400
   17MOL   H21610168   4.954   6.770   3.351 -1.1059 -1.1235 -1.5603
   17MOL   H21710169   4.726   6.197   2.267 -0.7641  0.7863  0.0582
   17MOL   H21810170   4.672   6.274   2.416  1.0554  0.8417  0.4029
   17MOL   C21910171   4.719   6.404   2.241  0.0367  0.2003 -0.2787
   17MOL   O22010172   4.575   6.441   2.234 -0.2556 -0.6970  0.2102
   17MOL   C22110173   4.535   6.545   2.317 -0.5828  0.9737 -0.3141
   17MOL   C22210174   4.387   6.562   2.309  0.1119  0.6602  0.0634
   17MOL   C22310175   4.321   6.444   2.381 -0.2044 -0.4581  0.1507
   17MOL   C22410176   4.177   6.417   2.333  0.1731  0.9703  0.0543
   17MOL   C22510177   4.128   6.285   2.405  0.2178  0.0596  0.3904
   17MOL   C22610178   3.992   6.252   2.350 -0.0082 -0.5164 -0.3478
   17MOL   C22710179   3.940   6.118   2.399 -0.2529 -0.6054  0.4313
   17MOL   C22810180   3.817   6.083   2.318  0.0308  0.3186 -0.1359
   17MOL   C22910181   4.766   6.372   2.094 -0.5288  0.1359 -0.3222
   17MOL   H23010182   4.776   6.490   2.279 -1.1570  0.2682  1.3612
   17MOL   H23110183   4.575   6.639   2.278 -0.4120  0.7920 -0.5808
   17MOL   H23210184   4.581   6.534   2.415  0.6332  0.2971 -0.9500
   17MOL   H23310185   4.369   6.576   2.202 -1.2772  0.0634  0.2026
   17MOL   H23410186   4.365   6.646   2.375 -1.8755  0.9377 -0.9171
   17MOL   H23510187   4.384   6.356   2.366  0.4633  0.0603 -0.1058
   17MOL   H23610188   4.314   6.452   2.489  0.1265  3.4305 -0.0563
   17MOL   H23710189   4.111   6.500   2.358 -0.8920 -0.2966  1.5413
   17MOL   H23810190   4.168   6.410   2.225  1.1656 -0.6825  0.0687
   17MOL   H23910191   4.199   6.205   2.384 -0.1737 -0.5569  1.3335
   17MOL   H24010192   4.121   6.290   2.514  1.5514  2.2332  0.4040
   17MOL   H24110193   3.994   6.266   2.242  2.0747 -1.3696 -0.4530
   17MOL   H24210194   3.931   6.329   2.396 -0.2452 -0.9423  0.0620
   17MOL   H24310195   4.013   6.038   2.385  2.5370  1.8514  0.2971
   17MOL   H24410196   3.924   6.099   2.505  1.2401 -2.6139  0.3337
   17MOL   H24510197   3.782   5.980   2.329 -0.0863  0.2943 -0.7358
   17MOL   H24610198   3.824   6.111   2.213 -0.6681 -2.2231 -0.8987
   17MOL   H24710199   3.728   6.138   2.350 -0.4830 -0.2802 -0.5192
   17MOL   H24810200   4.863   6.323   2.086 -0.4166  0.4203 -0.7137
   17MOL   H24910201   4.696   6.304   2.043  0.9613 -1.1639 -0.6821
   17MOL   C25010202   4.775   6.498   2.010  0.3531 -0.3671 -0.5390
   17MOL   O25110203   4.742   6.455   1.872  0.0926  0.1717  0.2235
   17MOL   C25210204   4.630   6.513   1.819  0.3079 -0.1151  0.1305
   17MOL   C25310205   4.496   6.469   1.871 -1.4151 -0.1620 -0.2237
   17MOL   C25410206   4.472   6.319   1.822  0.6495  0.0728 -0.3911
   17MOL   C25510207   4.342   6.264   1.880  0.1366  0.1211  0.2041
   17MOL   C25610208   4.348   6.233   2.031 -0.2541 -0.1247 -0.5262
   17MOL   C25710209   4.427   6.103   2.061  0.2828  0.7368 -0.0082
   17MOL   C25810210   4.426   6.068   2.212  0.5325 -0.0239  0.3981
   17MOL   C25910211   4.509   5.948   2.243 -0.8172  0.3187  0.4974
   17MOL   C26010212   4.912   6.564   2.021 -0.1704 -0.0044  0.2839
   17MOL   H26110213   4.698   6.567   2.043  1.8273  0.9548  0.1622
   17MOL   H26210214   4.631   6.485   1.714 -0.0704 -2.5349  0.7476
   17MOL   H26310215   4.645   6.621   1.824  0.0396 -0.0934  0.4900
   17MOL   H26410216   4.417   6.516   1.812  0.3720  1.3666 -1.4732
   17MOL   H26510217   4.486   6.481   1.979  0.9180  0.5192 -0.0587
   17MOL   H26610218   4.474   6.311   1.714 -1.4105 -1.4900 -0.3408
   17MOL   H26710219   4.554   6.257   1.860 -1.5614 -1.0646  2.7633
   17MOL   H26810220   4.255   6.326   1.854  1.0125  0.9398 -0.8120
   17MOL   H26910221   4.321   6.167   1.836  2.3470 -0.1629 -0.2570
   17MOL   H27010222   4.388   6.315   2.091 -1.3211 -0.9971  1.4090
   17MOL   H27110223   4.244   6.225   2.062  0.2524 -0.1923  1.2018
   17MOL   H27210224   4.525   6.086   2.015  0.6997 -2.5739  1.9375
   17MOL   H27310225   4.363   6.023   2.024 -1.5761  2.3226 -0.2551
   17MOL   H27410226   4.456   6.160   2.261 -0.3996  0.7493 -0.4461
   17MOL   H27510227   4.325   6.048   2.248 -0.0384  1.9377 -0.0469
   17MOL   H27610228   4.616   5.959   2.223 -1.0799  2.5266  0.2774
   17MOL   H27710229   4.484   5.853   2.196  0.6705  0.3869 -0.4603
   17MOL   H27810230   4.504   5.930   2.351 -5.5958  0.8858  0.4605
   17MOL   H27910231   4.931   6.580   2.127  0.0382 -0.1167  0.2627
   17MOL   H28010232   4.980   6.486   1.989 -2.7016 -2.7967  1.5057
   17MOL   C28110233   4.931   6.688   1.935  0.0955  0.3184  1.0710
   17MOL   O28210234   5.044   6.662   1.849 -0.6328 -0.2050 -1.1256
   17MOL   C28310235   5.017   6.573   1.741 -0.0968 -0.3579  0.0115
   17MOL   C28410236   5.103   6.636   1.625  0.2240  0.1174  0.9789
   17MOL   C28510237   5.149   6.527   1.518 -0.1966  0.2414 -0.1186
   17MOL   C28610238   5.216   6.586   1.396  0.4974 -0.5105  0.2068
   17MOL   C28710239   5.361   6.613   1.405 -0.4861  1.2786 -0.4921
   17MOL   C28810240   5.423   6.633   1.263  0.0430 -0.3871 -0.8118
   17MOL   C28910241   5.567   6.679   1.269  0.0240  0.2791 -0.4678
   17MOL   C29010242   5.645   6.683   1.135  0.5201 -0.0446  0.0668
   17MOL   C29110243   4.983   6.799   2.027 -0.8391  0.7001 -0.3144
   17MOL   H29210244   4.843   6.720   1.878  0.0296  0.2740  1.1492
   17MOL   H29310245   4.915   6.581   1.705 -0.1324  2.0808  0.5527
   17MOL   H29410246   5.049   6.470   1.757  0.4794 -0.1445  0.2417
   17MOL   H29510247   5.200   6.676   1.653  0.9380 -0.1998 -0.9764
   17MOL   H29610248   5.060   6.727   1.581  0.7178 -0.7655 -1.3963
   17MOL   H29710249   5.213   6.453   1.565  0.0622  1.2534  1.1651
   17MOL   H29810250   5.059   6.480   1.477 -0.2984  2.1654 -2.1979
   17MOL   H29910251   5.198   6.519   1.312  2.0986  0.0018 -0.5717
   17MOL   H30010252   5.162   6.676   1.366  0.4679 -0.7393 -0.4281
   17MOL   H30110253   5.377   6.703   1.464  2.0697  1.2817 -1.1363
   17MOL   H30210254   5.419   6.532   1.449 -2.9300  0.0769  0.6075
   17MOL   H30310255   5.363   6.704   1.208 -0.8261  0.0842  0.7253
   17MOL   H30410256   5.406   6.541   1.206  0.2459  0.0419 -1.5748
   17MOL   H30510257   5.574   6.775   1.321  0.1254  0.8676 -1.5502
   17MOL   H30610258   5.609   6.594   1.323  0.8209  0.8065 -0.2422
   17MOL   H30710259   5.609   6.756   1.062  2.1765 -0.1384 -0.8796
   17MOL   H30810260   5.655   6.583   1.093  1.0792 -0.1165  0.3714
   17MOL   H30910261   5.746   6.713   1.163  1.1563  0.2638 -2.4211
   17MOL   H31010262   5.068   6.763   2.086 -1.5726 -0.7027 -0.1108
   17MOL   H31110263   5.023   6.874   1.959 -0.9392  0.7414 -0.3268
   17MOL   C31210264   4.877   6.850   2.122  0.1537  0.6401  0.7319
   17MOL   O31310265   4.820   6.947   2.041 -0.4755 -0.1566  0.8576
   17MOL   C31410266   4.690   6.926   1.994 -0.8414 -0.1349 -0.0652
   17MOL   C31510267   4.586   6.943   2.106 -0.4769  0.7449 -0.0561
   17MOL   C31610268   4.442   6.925   2.052 -0.3888  0.5027 -0.3659
   17MOL   C31710269   4.334   6.963   2.157 -0.2315 -0.2370  0.3808
   17MOL   C31810270   4.190   6.965   2.113  0.1847  0.0491  0.4375
   17MOL   C31910271   4.103   7.002   2.233 -0.6327 -0.1903 -0.0416
   17MOL   C32010272   3.951   6.968   2.216 -0.4500  0.0217  0.1543
   17MOL   C32110273   3.857   7.015   2.330 -0.1349  0.2398  0.7187
   17MOL   C32210274   4.944   6.908   2.248 -0.3350  0.1869  0.1181
   17MOL   H32310275   4.802   6.773   2.142  2.1864 -1.2520  1.1969
   17MOL   H32410276   4.678   6.828   1.947  0.0091 -1.0626  1.5962
   17MOL   H32510277   4.675   7.007   1.922 -2.2979  0.7676  1.2135
   17MOL   H32610278   4.607   7.037   2.157 -2.1126  0.6678  0.7771
   17MOL   H32710279   4.591   6.879   2.194  1.3758 -1.3478 -1.6076
   17MOL   H32810280   4.420   6.982   1.962 -0.0803  2.3488  0.6988
   17MOL   H32910281   4.417   6.823   2.024 -1.4505  1.6652 -3.8988
   17MOL   H33010282   4.339   6.901   2.247  2.4694  0.0781  0.4916
   17MOL   H33110283   4.358   7.058   2.205 -1.3748  0.3725 -0.2380
   17MOL   H33210284   4.167   7.040   2.037  0.5954 -0.4184 -0.1513
   17MOL   H33310285   4.162   6.866   2.077  1.0420 -0.4136  1.0429
   17MOL   H33410286   4.113   7.111   2.233 -1.3591 -0.1126 -1.1189
   17MOL   H33510287   4.160   6.977   2.322 -1.4508 -1.7495  0.0627
   17MOL   H33610288   3.908   7.016   2.128  0.8232 -0.2895 -0.6468
   17MOL   H33710289   3.943   6.860   2.203 -2.6048 -0.0911  2.1819
   17MOL   H33810290   3.756   6.995   2.295  0.0486 -0.2641  0.4709
   17MOL   H33910291   3.870   7.122   2.345  1.4697  0.1668 -0.0679
   17MOL   H34010292   3.865   6.951   2.418  2.0456 -0.2331  0.1889
   17MOL   H34110293   5.017   6.842   2.295 -0.9702 -1.0480 -0.5987
   17MOL   H34210294   5.002   6.995   2.219 -0.6667 -0.1179 -1.5053
   17MOL   C34310295   4.843   6.927   2.360  0.3349 -0.5219  0.8912
   17MOL   O34410296   4.894   7.011   2.470 -0.4612  0.2751 -0.2778
   17MOL   C34510297   4.884   7.155   2.446  0.0198 -0.5483  0.6020
   17MOL   C34610298   4.964   7.221   2.559  0.3394  0.0413  0.2757
   17MOL   C34710299   4.948   7.370   2.538 -0.1343 -0.3844 -0.6414
   17MOL   C34810300   5.021   7.455   2.653  0.9517  0.2132 -0.1790
   17MOL   C34910301   4.994   7.608   2.653  0.7969 -0.5617 -0.2590
   17MOL   C35010302   5.023   7.675   2.780 -0.4269 -0.4510  0.0531
   17MOL   C35110303   4.993   0.052   2.770  0.3544  0.5625  0.2850
   17MOL   C35210304   5.051   0.133   2.889 -0.1104  0.6922  0.2111
   17MOL   C35310305   4.798   6.785   2.421  0.3134  0.1426  0.1996
   17MOL   H35410306   4.750   6.975   2.331  0.3349  0.3959  2.3430
   17MOL   H35510307   4.778   7.177   2.454  0.5924  2.4104  0.4814
   17MOL   H35610308   4.916   7.178   2.344  1.8442 -2.8137  0.6264
   17MOL   H35710309   5.068   7.188   2.558  0.1712 -0.5414 -2.3437
   17MOL   H35810310   4.927   7.188   2.655  1.3440  1.4132  1.1546
   17MOL   H35910311   4.995   7.408   2.448 -0.3358  2.5839  0.4693
   17MOL   H36010312   4.842   7.392   2.523 -0.3533 -0.3517  0.8120
   17MOL   H36110313   4.970   7.421   2.743 -1.3808 -1.1597 -1.9563
   17MOL   H36210314   5.127   7.438   2.671  0.5819  0.4030  2.3566
   17MOL   H36310315   5.061   7.650   2.578 -0.9830 -1.0296 -2.1354
   17MOL   H36410316   4.887   7.611   2.635  0.2915 -1.8666  2.3299
   17MOL   H36510317   5.128   7.659   2.803 -0.4739 -0.9467 -0.0748
   17MOL   H36610318   4.968   7.643   2.869 -0.1285  0.2615  0.4955
   17MOL   H36710319   5.030   0.080   2.671 -1.7782 -0.7013 -0.8934
   17MOL   H36810320   4.887   0.070   2.753  0.5144 -1.2532 -3.0614
   17MOL   H36910321   5.008   0.121   2.988 -0.2912  0.4893  0.1086
   17MOL   H37010322   5.051   0.242   2.880  2.2487  0.6056 -1.2764
   17MOL   H37110323   5.156   0.108   2.902 -0.8006 -1.5114  1.7667
   17MOL   H37210324   4.728   6.741   2.351 -0.1334  1.2245 -0.0309
   17MOL   H37310325   4.886   6.727   2.452  0.5702  0.0260 -0.7324
   17MOL   C37410326   4.714   6.800   2.551  0.9779 -0.4951  0.0275
   17MOL   O37510327   4.685   6.668   2.597 -0.0325  0.1368 -0.6006
   17MOL   C37610328   4.693   6.639   2.740 -0.5415  0.0789  0.0025
   17MOL   C37710329   4.674   6.486   2.758 -0.6004 -0.2831 -0.3600
   17MOL   C37810330   4.554   6.426   2.689  0.2768  0.6277  0.7187
   17MOL   C37910331   4.536   6.280   2.718  0.1738  0.3844  0.3404
   17MOL   C38010332   4.405   6.222   2.670 -0.3578 -0.4906 -0.0157
   17MOL   C38110333   4.405   6.073   2.702  0.0745  0.6784  0.3608
   17MOL   C38210334   4.274   6.000   2.660 -0.1333 -0.4422 -0.1342
   17MOL   C38310335   4.147   6.052   2.737 -0.0613 -0.3779  0.6306
   17MOL   C38410336   4.583   6.871   2.514 -0.5022 -0.4024 -0.2941
   17MOL   H38510337   4.760   6.858   2.631 -1.9589  3.2125 -0.7782
   17MOL   H38610338   4.611   6.682   2.798  0.3151  2.4342 -0.4908
   17MOL   H38710339   4.787   6.683   2.772 -0.0194 -0.5291 -0.6826
   17MOL   H38810340   4.669   6.465   2.865  0.9855 -3.0711 -0.7698
   17MOL   H38910341   4.766   6.430   2.740 -0.1733 -0.1538  1.2739
   17MOL   H39010342   4.464   6.477   2.724  0.4456  0.1044  1.9540
   17MOL   H39110343   4.557   6.434   2.581  1.4243  1.4741  0.8071
   17MOL   H39210344   4.619   6.219   2.681  1.0719 -0.7072  3.9442
   17MOL   H39310345   4.531   6.270   2.827 -1.0412 -0.1492  0.2494
   17MOL   H39410346   4.317   6.269   2.713 -0.7496 -0.5883 -0.7103
   17MOL   H39510347   4.400   6.240   2.563 -0.0862  1.8434  0.3247
   17MOL   H39610348   4.418   6.052   2.808  1.2017 -2.9172 -0.4012
   17MOL   H39710349   4.493   6.026   2.657 -1.8597 -1.8279 -0.9481
   17MOL   H39810350   4.263   6.009   2.552 -1.6712 -1.8172 -0.1041
   17MOL   H39910351   4.290   5.895   2.686 -0.1014 -0.1825  0.9081
   17MOL   H40010352   4.160   6.071   2.844  3.2867 -4.4880  1.0656
   17MOL   H40110353   4.066   5.980   2.722  1.2049 -1.0195 -3.5972
   17MOL   H40210354   4.103   6.140   2.691  0.9381 -0.4431 -0.4627
   17MOL   H40310355   4.588   6.945   2.435 -1.5988  0.5625  0.5218
   17MOL   H40410356   4.509   6.803   2.471 -1.7850  0.8996 -0.1412
   17MOL   C40510357   4.511   6.945   2.624  0.4078 -0.7149 -0.0577
   17MOL   O40610358   4.377   6.966   2.600  0.4865  0.1137  0.1240
   17MOL   C40710359   4.292   6.852   2.643  0.2160 -0.1375 -0.2193
   17MOL   C40810360   4.147   6.895   2.633 -0.6328 -0.1105  0.3598
   17MOL   C40910361   4.109   7.001   2.731  0.3271 -0.3084 -0.0983
   17MOL   C41010362   3.959   7.043   2.713  0.4168 -0.4538  0.0706
   17MOL   C41110363   3.938   7.153   2.822 -0.0689 -0.5634  0.2463
   17MOL   C41210364   3.789   7.196   2.841 -0.0657  0.5571 -0.0081
   17MOL   C41310365   3.769   7.318   2.932  0.0606 -0.9309  0.6694
   17MOL   C41410366   3.627   7.324   2.977  0.2180 -0.0213 -0.5992
   17MOL   C41510367   4.572   7.087   2.659 -0.1537 -0.4131 -0.2833
   17MOL   H41610368   4.534   6.880   2.708  2.1272 -0.1036 -0.0481
   17MOL   H41710369   4.318   6.824   2.746  0.5806  1.5984  0.1820
   17MOL   H41810370   4.323   6.766   2.584  0.1749 -0.3178  0.0235
   17MOL   H41910371   4.079   6.812   2.657  0.1795 -1.1005 -0.6900
   17MOL   H42010372   4.140   6.927   2.529 -1.2432  1.3382  0.8361
   17MOL   H42110373   4.133   6.983   2.835  0.6891  1.3014  0.1130
   17MOL   H42210374   4.170   7.090   2.716 -0.3731  0.2175  0.1416
   17MOL   H42310375   3.942   7.089   2.615 -0.4939 -1.1169 -0.0968
   17MOL   H42410376   3.886   6.962   2.720  1.5877 -1.7132 -1.6602
   17MOL   H42510377   3.986   7.129   2.917 -0.1376 -3.1687 -0.3199
   17MOL   H42610378   3.996   7.240   2.793 -1.6626  0.5472  0.3789
   17MOL   H42710379   3.731   7.112   2.879  0.8467  0.7417  1.8403
   17MOL   H42810380   3.747   7.231   2.746 -1.6845  1.2792  0.9532
   17MOL   H42910381   3.830   7.297   3.020  0.9640 -1.4552 -0.0746
   17MOL   H43010382   3.817   7.402   2.881  0.6118 -0.9820  1.0918
   17MOL   H43110383   3.608   7.407   3.044 -1.1174 -1.1751  0.4897
   17MOL   H43210384   3.608   7.242   3.046 -2.6343  1.1482  0.0632
   17MOL   H43310385   3.557   7.326   2.894  0.2069  2.3011 -0.5439
   17MOL   H43410386   4.679   7.075   2.677 -0.0341  0.7069 -0.1972
   17MOL   H43510387   4.559   7.159   2.578 -0.5227 -0.0178  0.1244
   17MOL   C43610388   4.512   7.158   2.784  0.3308 -0.5052  0.2632
   17MOL   O43710389   4.590   7.272   2.811  0.2085 -0.3657 -0.4011
   17MOL   C43810390   4.526   7.399   2.775 -0.2052 -0.6591  0.2169
   17MOL   C43910391   4.617   7.505   2.829 -0.0994  0.2346  0.1784
   17MOL   C44010392   4.578   7.646   2.800  0.5154  0.4106 -0.1058
   17MOL   C44110393   4.572   7.670   2.648 -0.0715 -0.1238 -0.4465
   17MOL   C44210394   4.527   0.032   2.600  0.3250  0.1359  0.9853
   17MOL   C44310395   4.583   0.151   2.678 -0.5244 -0.4301  1.2490
   17MOL   C44410396   4.543   0.287   2.613 -0.0019 -0.0675 -0.0397
   17MOL   C44510397   4.390   0.319   2.611 -0.6630  0.2023 -0.0130
   17MOL   C44610398   4.536   7.067   2.901  0.0409 -0.0861 -0.2308
   17MOL   H44710399   4.406   7.178   2.769  0.1273 -0.7781  1.2832
   17MOL   H44810400   4.507   7.403   2.667  0.6191  2.6949  0.1429
   17MOL   H44910401   4.426   7.403   2.818  0.6709  1.2131  2.1416
   17MOL   H45010402   4.719   7.493   2.793 -0.5440 -1.3364 -0.5751
   17MOL   H45110403   4.622   7.493   2.938  0.9284  1.6705  0.3186
   17MOL   H45210404   4.477   7.662   2.839 -0.0850 -1.3796 -0.8895
   17MOL   H45310405   4.652   7.713   2.844 -0.5836  1.4293  0.2333
   17MOL   H45410406   4.676   7.651   2.621 -0.3645 -2.3023 -0.1490
   17MOL   H45510407   4.522   7.594   2.587  1.4764  0.1681 -2.1254
   17MOL   H45610408   4.570   0.039   2.500 -1.3941  2.1813  0.3411
   17MOL   H45710409   4.419   0.039   2.612  0.0797  2.1578 -1.9070
   17MOL   H45810410   4.691   0.137   2.682 -0.2687  1.5529  2.3789
   17MOL   H45910411   4.545   0.150   2.781  3.7429  2.9986  3.0360
   17MOL   H46010412   4.591   0.370   2.664  0.1362 -0.0165 -0.2536
   17MOL   H46110413   4.575   0.286   2.509 -2.4858  0.8452 -0.8583
   17MOL   H46210414   4.326   0.237   2.577 -0.4303 -0.7853  1.8776
   17MOL   H46310415   4.368   0.413   2.559 -1.6608 -1.1259 -2.0871
   17MOL   H46410416   4.360   0.340   2.713 -1.2302  1.4250 -0.4193
   17MOL   H46510417   4.480   6.974   2.897 -0.3622  0.0891  1.0826
   17MOL   H46610418   4.635   7.025   2.916  0.3027  1.2188  2.0304
   17MOL   C46710419   4.501   7.127   3.038  0.1171 -0.1942  0.1252
   17MOL   O46810420   4.541   7.041   3.140  0.0685  0.5432 -0.1699
   17MOL   C46910421   4.675   7.043   3.171 -0.0187 -0.2793  0.1836
   17MOL   C47010422   4.669   6.930   3.271 -0.2096  0.4296 -0.3610
   17MOL   C47110423   4.637   6.792   3.205 -0.8103 -0.1144 -0.5283
   17MOL   C47210424   4.614   6.686   3.310  0.0316 -0.1531 -0.4286
   17MOL   C47310425   4.646   6.542   3.250 -0.1577 -0.6554  0.5958
   17MOL   C47410426   4.660   6.444   3.366 -0.0675  0.2604 -0.8321
   17MOL   C47510427   4.674   6.306   3.316  0.6650  0.2438 -0.1502
   17MOL   C47610428   4.743   6.223   3.422  0.1979  1.2485 -0.5548
   17MOL   C47710429   4.350   7.158   3.044  0.0445  0.1518 -0.4405
   17MOL   H47810430   4.548   7.226   3.042 -1.8330  0.9007 -2.6005
   17MOL   H47910431   4.682   7.142   3.216 -0.5119  1.0833 -2.6309
   17MOL   H48010432   4.753   7.028   3.097 -1.2312 -1.9647 -0.8056
   17MOL   H48110433   4.589   6.944   3.343 -0.3551  1.7685 -0.7677
   17MOL   H48210434   4.760   6.932   3.331 -1.3295 -3.0068  1.5201
   17MOL   H48310435   4.552   6.812   3.141  0.4879  2.2639 -1.5452
   17MOL   H48410436   4.717   6.764   3.136 -1.5642 -2.0963 -0.6397
   17MOL   H48510437   4.689   6.703   3.388 -0.3639  0.1806 -0.1159
   17MOL   H48610438   4.514   6.695   3.354 -0.1484 -1.0807 -0.6346
   17MOL   H48710439   4.568   6.527   3.176 -0.2299  0.3728  0.4545
   17MOL   H48810440   4.736   6.540   3.189  0.5821 -1.7016  1.7029
   17MOL   H48910441   4.579   6.456   3.438 -0.3347 -2.5137 -0.6316
   17MOL   H49010442   4.753   6.470   3.418 -0.0661 -1.6122  0.1618
   17MOL   H49110443   4.576   6.258   3.306 -0.2462  1.1084  3.7972
   17MOL   H49210444   4.727   6.295   3.221  0.6559 -0.2529 -0.1039
   17MOL   H49310445   4.681   6.213   3.511  0.1195 -1.0976 -0.8587
   17MOL   H49410446   4.846   6.254   3.440  0.6371  0.2820 -1.3427
   17MOL   H49510447   4.750   6.120   3.387  0.8561  1.0245  0.2305
   17MOL   H49610448   4.322   7.220   2.959 -1.9467 -1.2398 -0.8132
   17MOL   H49710449   4.287   7.070   3.034 -1.0471  0.7442  1.0432
   17MOL   C49810450   4.313   7.214   3.188 -0.2114  0.2123 -0.1551
   17MOL   O49910451   4.235   7.116   3.259  0.5400 -0.3462 -0.3117
   17MOL   C50010452   4.253   7.131   3.405 -0.8563 -0.0359 -0.0599
   17MOL   C50110453   4.191   7.006   3.477 -0.3598  0.4931  0.0106
   17MOL   C50210454   4.272   6.873   3.468  0.4600 -0.2989  0.5255
   17MOL   C50310455   4.218   6.762   3.561 -0.1528  0.1510 -0.0003
   17MOL   C50410456   4.072   6.714   3.522 -0.4393  0.8142  1.1247
   17MOL   C50510457   4.077   6.651   3.384  0.2338  0.1397  0.2077
   17MOL   C50610458   3.944   6.589   3.353 -0.0752 -0.0064 -0.0940
   17MOL   C50710459   3.926   6.549   3.207 -0.1559 -0.3154 -0.4567
   17MOL   C50810460   4.222   7.340   3.175 -0.9657 -0.7597  0.2339
   17MOL   H50910461   4.399   7.228   3.254 -0.3070 -1.6417  0.3669
   17MOL   H51010462   4.206   7.221   3.443  0.0581 -0.3212  1.7978
   17MOL   H51110463   4.358   7.144   3.432 -1.1463 -0.5969  1.4003
   17MOL   H51210464   4.090   6.985   3.444  0.0879 -0.7414 -0.6266
   17MOL   H51310465   4.183   7.023   3.584  1.1791  2.6363 -0.1725
   17MOL   H51410466   4.272   6.840   3.364 -1.0062 -0.5056  0.5778
   17MOL   H51510467   4.378   6.887   3.483  0.1171  1.8323  1.0639
   17MOL   H51610468   4.285   6.676   3.567  0.8380  0.9777  0.9420
   17MOL   H51710469   4.222   6.799   3.663 -0.2132 -0.6332  0.2862
   17MOL   H51810470   4.041   6.635   3.591 -3.6996  0.6172 -0.4743
   17MOL   H51910471   3.993   6.789   3.534 -1.3313  0.2703 -1.1513
   17MOL   H52010472   4.155   6.577   3.370  1.7159  1.6041  0.5384
   17MOL   H52110473   4.090   6.739   3.321 -0.9880 -0.7793 -1.3413
   17MOL   H52210474   3.921   6.503   3.417  0.1031  1.3590  1.8448
   17MOL   H52310475   3.866   6.662   3.373 -1.3852 -1.0973 -1.0691
   17MOL   H52410476   3.953   6.628   3.137 -0.7457 -1.3712 -1.9095
   17MOL   H52510477   3.825   6.529   3.170 -0.2965  0.9982 -0.7883
   17MOL   H52610478   3.995   6.465   3.196 -0.9909 -0.9527 -0.8989
   17MOL   H52710479   4.147   7.307   3.103 -0.4735 -0.4446 -0.4200
   17MOL   H52810480   4.171   7.364   3.269 -1.4658 -0.9646  0.0177
   17MOL   C52910481   4.314   7.461   3.136  0.4770  0.3006  0.6382
   17MOL   O53010482   4.425   7.464   3.230 -0.6356 -0.3965 -0.4403
   17MOL   C53110483   4.522   7.566   3.202 -0.7367  0.0868  0.6754
   17MOL   C53210484   4.666   7.515   3.234  0.0356  0.2326  0.6398
   17MOL   C53310485   4.694   7.500   3.384 -0.6765 -0.1765 -0.1408
   17MOL   C53410486   4.842   7.478   3.420 -0.1454  0.0894 -0.5107
   17MOL   C53510487   4.898   7.348   3.347 -0.4684  0.6810  0.1693
   17MOL   C53610488   5.029   7.295   3.406 -0.6385  0.6426 -0.2595
   17MOL   C53710489   5.055   7.159   3.353 -0.0666  0.1439 -0.5454
   17MOL   C53810490   5.195   7.096   3.400  0.2613 -0.1565 -0.0399
   17MOL   C53910491   4.246   7.601   3.129  0.4716 -1.0150 -0.3063
   17MOL   H54010492   4.356   7.430   3.040 -2.0827  0.6400 -0.6193
   17MOL   H54110493   4.527   7.603   3.100 -2.1458 -2.5607 -0.4062
   17MOL   H54210494   4.501   7.652   3.265 -0.8527  0.2231  0.4462
   17MOL   H54310495   4.739   7.591   3.207  0.5030 -0.0810  1.0076
   17MOL   H54410496   4.691   7.423   3.181  0.2684  1.6504 -1.8038
   17MOL   H54510497   4.657   7.586   3.440 -0.6475  0.1460 -0.6141
   17MOL   H54610498   4.645   7.409   3.418 -1.1646 -0.1404 -0.7520
   17MOL   H54710499   4.901   7.569   3.418  0.7640 -0.4271  1.3059
   17MOL   H54810500   4.836   7.461   3.528 -0.2996  0.1702 -0.5072
   17MOL   H54910501   4.817   7.275   3.359 -1.1929  1.2550 -1.0602
   17MOL   H55010502   4.913   7.370   3.241  0.7606 -0.1193  0.1740
   17MOL   H55110503   5.025   7.286   3.515  0.8827  0.6274 -0.1933
   17MOL   H55210504   5.099   7.372   3.375 -1.8543  1.4077 -1.1410
   17MOL   H55310505   4.973   7.101   3.396  0.5920  0.9787  1.9351
   17MOL   H55410506   5.044   7.177   3.246  0.3494 -1.3455 -0.8535
   17MOL   H55510507   5.280   7.154   3.365  0.8641 -0.1131  1.4614
   17MOL   H55610508   5.215   7.002   3.349  1.0266  0.0547 -0.1290
   17MOL   H55710509   5.196   7.082   3.508  1.2322 -0.3993 -0.0752
   17MOL   H55810510   4.210   7.624   3.229 -0.6815 -0.1946 -0.8963
   17MOL   H55910511   4.308   7.684   3.094 -0.7259  0.7569  1.6540
   17MOL   C56010512   4.120   7.615   3.031  0.7990 -0.2293 -0.3098
   17MOL   O56110513   4.011   7.545   3.087  0.1375 -0.8488 -0.1556
   17MOL   C56210514   3.947   7.622   3.191 -0.5282  0.3544 -0.6032
   17MOL   C56310515   3.837   7.531   3.251  0.2021 -0.0372 -0.0294
   17MOL   C56410516   3.891   7.400   3.315  0.4245 -0.6178  0.1040
   17MOL   C56510517   3.781   7.302   3.361 -0.1141  0.3254 -0.2650
   17MOL   C56610518   3.828   7.166   3.419  0.2083  0.2136  0.0771
   17MOL   C56710519   3.718   7.069   3.430  0.1218  0.5518 -0.6625
   17MOL   C56810520   3.755   6.932   3.489 -0.1376  0.1769 -0.3751
   17MOL   C56910521   3.637   6.834   3.493 -0.5950 -1.1085 -0.2641
   17MOL   C57010522   4.150   7.574   2.885  0.0117 -0.6289  0.2488
   17MOL   H57110523   4.103   7.722   3.017 -1.6087 -0.6474 -0.6852
   17MOL   H57210524   3.928   7.725   3.162  1.8581  1.7643  2.5145
   17MOL   H57310525   4.013   7.640   3.276 -1.8792 -1.0707  0.7838
   17MOL   H57410526   3.771   7.507   3.168  0.6509 -1.5060  0.0289
   17MOL   H57510527   3.783   7.583   3.330  2.9994  0.7572  1.4323
   17MOL   H57610528   3.951   7.348   3.241 -2.1101 -2.8051 -0.4889
   17MOL   H57710529   3.953   7.426   3.401  1.9218 -1.5961 -0.6571
   17MOL   H57810530   3.725   7.349   3.442 -2.4880 -1.5064 -0.8018
   17MOL   H57910531   3.713   7.285   3.278  0.0267  1.0147 -0.5210
   17MOL   H58010532   3.905   7.127   3.353 -1.3683 -0.6445 -1.3109
   17MOL   H58110533   3.861   7.187   3.520 -1.9242 -2.0186  1.2842
   17MOL   H58210534   3.667   7.062   3.334 -1.1286  1.2527 -0.0631
   17MOL   H58310535   3.640   7.115   3.490 -2.1796  0.5718 -3.5530
   17MOL   H58410536   3.839   6.892   3.432  0.7816  0.8682  0.4766
   17MOL   H58510537   3.783   6.964   3.589 -0.9844  0.3610 -0.1894
   17MOL   H58610538   3.582   6.849   3.400  2.7461 -2.7304 -2.6147
   17MOL   H58710539   3.569   6.865   3.573 -1.5813 -0.9528 -1.1582
   17MOL   H58810540   3.663   6.730   3.515 -0.9417 -0.6652  2.4428
   17MOL   H58910541   4.250   7.609   2.864  0.5040 -0.4515  2.7403
   17MOL   H59010542   4.152   7.465   2.888 -0.1004 -0.6185  0.9408
   17MOL   C59110543   4.060   7.617   2.770  0.4085 -0.1349  0.1074
   17MOL   O59210544   4.128   7.551   2.660 -0.5415 -0.4105 -0.6019
   17MOL   C59310545   4.042   7.520   2.551 -0.2492  0.4212 -0.2170
   17MOL   C59410546   4.124   7.414   2.470  0.2749  0.1179  0.4077
   17MOL   C59510547   4.258   7.462   2.409 -0.4522  0.3654  0.1322
   17MOL   C59610548   4.344   7.351   2.336 -0.0163 -0.4311 -0.0026
   17MOL   C59710549   4.466   7.420   2.270 -0.6951  0.3834 -0.7036
   17MOL   C59810550   4.558   7.324   2.196  0.2971  0.0343  0.8337
   17MOL   C59910551   4.692   7.392   2.156 -0.6490  0.3079 -0.1935
   17MOL   C60010552   4.794   7.293   2.090  0.4851 -0.4137 -0.7219
   17MOL   C60110553   4.067   7.772   2.748 -0.1300  0.3797 -0.1350
   17MOL   H60210554   3.959   7.594   2.805 -1.4661  2.9922 -2.9131
   17MOL   H60310555   4.003   7.600   2.488  0.8279  1.4353  0.3856
   17MOL   H60410556   3.949   7.475   2.583  1.2142 -0.7970  2.4132
   17MOL   H60510557   4.061   7.390   2.384  3.0524  1.1501 -1.9823
   17MOL   H60610558   4.132   7.321   2.527  1.7232  0.2581  0.4444
   17MOL   H60710559   4.251   7.534   2.328 -0.3126 -0.7213 -0.8459
   17MOL   H60810560   4.312   7.532   2.474  2.6906 -0.4768 -1.4762
   17MOL   H60910561   4.387   7.275   2.402  0.5934  0.4779  0.6742
   17MOL   H61010562   4.290   7.299   2.258 -1.1695 -1.5185  1.4856
   17MOL   H61110563   4.428   7.485   2.191 -0.7075  1.0814 -0.1265
   17MOL   H61210564   4.514   7.485   2.344  0.1540 -1.4929  0.4346
   17MOL   H61310565   4.510   7.282   2.107  0.2956  0.8516  0.4409
   17MOL   H61410566   4.588   7.237   2.255  0.0325 -0.2138  0.6055
   17MOL   H61510567   4.679   7.479   2.092 -1.7463  0.0075 -0.3863
   17MOL   H61610568   4.739   7.428   2.248 -0.3985 -1.5476  0.4285
   17MOL   H61710569   4.762   7.265   1.990 -0.8770 -0.0158 -0.4030
   17MOL   H61810570   4.825   7.213   2.156 -0.2268  2.5391  3.4088
   17MOL   H61910571   4.885   7.347   2.065 -0.4984  1.7336  0.1610
   17MOL   H62010572   3.983   0.026   2.685 -1.0988  0.8386  1.3360
   17MOL   H62110573   4.045   0.058   2.836 -1.1733  0.7756 -0.6466
   17MOL   H62210574   4.156   0.031   2.694 -0.8892  0.9923 -1.0268
   18MOL     C110575   5.588   0.237   7.051 -0.0381  0.3052 -0.1090
   18MOL     O210576   5.610   0.120   7.119  0.2000 -0.0936 -0.6573
   18MOL     C310577   5.598   0.150   7.260  0.2350  0.2477  0.3595
   18MOL     C410578   5.659   0.033   7.346  0.2224 -0.2823  0.2873
   18MOL     C510579   5.600   7.667   7.312 -0.2067  0.6708 -0.0590
   18MOL     C610580   5.620   7.566   7.422  0.7003 -0.1959 -0.1192
   18MOL     C710581   5.579   7.427   7.377  0.5499 -0.4237  0.5463
   18MOL     C810582   5.577   7.328   7.486 -0.7589  0.2760 -0.0893
   18MOL     C910583   5.515   7.200   7.439 -0.2912  0.4872  0.2725
   18MOL    C1010584   5.469   7.101   7.546  0.2442  0.2033  0.3648
   18MOL    C1110585   5.579   0.201   6.911 -0.3086 -0.1653 -0.0874
   18MOL    H1210586   5.500   0.285   7.092  0.2196 -0.0959  0.9272
   18MOL    H1310587   5.495   0.157   7.294  0.1505 -0.0761  0.1715
   18MOL    H1410588   5.652   0.244   7.274 -1.6168  1.4828 -0.6728
   18MOL    H1510589   5.659   0.067   7.450 -2.7033  0.8110 -0.0142
   18MOL    H1610590   5.765   0.024   7.321  0.3147  2.2764 -0.3671
   18MOL    H1710591   5.495   7.669   7.281 -0.7914  1.7682  1.9082
   18MOL    H1810592   5.651   7.644   7.218  0.7869  3.0387 -0.1231
   18MOL    H1910593   5.719   7.543   7.459 -0.1529 -4.3946 -0.2841
   18MOL    H2010594   5.561   7.598   7.508 -0.9925 -0.6494 -1.0879
   18MOL    H2110595   5.476   7.430   7.341  0.9617  1.4894 -0.5360
   18MOL    H2210596   5.633   7.388   7.291 -0.1617  0.6111 -0.3887
   18MOL    H2310597   5.515   7.359   7.570  1.0415  1.1325  0.9526
   18MOL    H2410598   5.679   7.306   7.517  0.0892  3.3018 -0.5505
   18MOL    H2510599   5.424   7.228   7.387  0.4015  0.3265 -1.0569
   18MOL    H2610600   5.584   7.152   7.369  0.4371  2.4807 -0.4142
   18MOL    H2710601   5.549   7.085   7.618  0.4071 -0.1338  0.1098
   18MOL    H2810602   5.430   7.010   7.500  3.6550 -0.2451 -1.7948
   18MOL    H2910603   5.397   7.166   7.596  0.5563  0.3297  0.6517
   18MOL    H3010604   5.660   0.130   6.893  0.7655  0.2253  2.8997
   18MOL    H3110605   5.482   0.153   6.904 -0.3724  0.0235 -0.4935
   18MOL    H3210606   5.673   0.303   7.071 -2.5940  2.9349  2.6519
   18MOL    C3310607   5.586   0.316   6.807 -0.3455 -0.1732 -0.1555
   18MOL    O3410608   5.725   0.357   6.812  0.1023 -0.1633  0.7173
   18MOL    C3510609   5.813   0.289   6.723 -0.6936  0.8765 -0.8350
   18MOL    C3610610   5.940   0.371   6.690  0.1191  0.4056 -0.1521
   18MOL    C3710611   6.033   0.323   6.576 -0.7397 -0.6648  0.5498
   18MOL    C3810612   6.079   0.177   6.580  0.2861 -0.3817 -0.2896
   18MOL    C3910613   6.176   0.137   6.470 -0.2249  0.2471 -0.2633
   18MOL    C4010614   6.213   7.763   6.464 -0.1470 -0.1286 -0.0836
   18MOL    C4110615   6.294   7.730   6.335  0.5943  0.0364 -0.1300
   18MOL    C4210616   6.327   7.583   6.307  0.2897  0.3074 -0.4030
   18MOL    C4310617   5.513   0.442   6.845 -0.0015  0.0417 -0.1525
   18MOL    H4410618   5.558   0.265   6.715 -0.8547 -1.1058  0.4955
   18MOL    H4510619   5.758   0.279   6.629 -1.2136 -0.2248 -0.4238
   18MOL    H4610620   5.841   0.188   6.753 -1.6681  1.2820  1.5163
   18MOL    H4710621   6.004   0.387   6.777 -0.3950  3.6673 -0.3271
   18MOL    H4810622   5.907   0.473   6.676 -0.6895  0.5056  2.2181
   18MOL    H4910623   5.988   0.345   6.479 -0.6055 -2.4628  0.0694
   18MOL    H5010624   6.122   0.386   6.584 -1.1213  0.0063 -0.3745
   18MOL    H5110625   6.132   0.166   6.674  0.8784 -0.0896 -0.5815
   18MOL    H5210626   5.984   0.123   6.579 -0.0573  0.2036  0.5458
   18MOL    H5310627   6.146   0.173   6.371  1.7719  0.7166 -0.7209
   18MOL    H5410628   6.270   0.189   6.490  0.6930 -0.8975 -1.4904
   18MOL    H5510629   6.121   7.705   6.470  0.5436 -1.3851 -1.2013
   18MOL    H5610630   6.279   7.745   6.549 -0.5430  1.1721  0.5069
   18MOL    H5710631   6.252   7.773   6.245  1.0897  2.0416  0.5589
   18MOL    H5810632   6.393   0.001   6.339 -0.4640  2.3290  0.9105
   18MOL    H5910633   6.239   7.519   6.299  1.0115 -0.9741  1.5110
   18MOL    H6010634   6.392   7.537   6.381 -0.4567  0.1097  0.1437
   18MOL    H6110635   6.374   7.588   6.209 -1.2099  0.7267 -1.1276
   18MOL    H6210636   5.415   0.420   6.886  0.4601  0.0694  0.9933
   18MOL    H6310637   5.555   0.487   6.935  2.0847 -3.8671  0.9229
   18MOL    C6410638   5.513   0.559   6.744 -0.3477 -0.2475  0.7287
   18MOL    O6510639   5.461   0.672   6.808  1.1143 -0.4153  0.4396
   18MOL    C6610640   5.492   0.795   6.740  1.3722 -0.3750 -1.3245
   18MOL    C6710641   5.376   0.892   6.776  0.8724  0.5514 -0.0184
   18MOL    C6810642   5.414   1.038   6.751 -0.0450 -0.2489  0.2119
   18MOL    C6910643   5.293   1.127   6.774  0.1578  0.0784  0.0304
   18MOL    C7010644   5.310   1.277   6.809  0.2467  0.0257 -0.0085
   18MOL    C7110645   5.378   1.306   6.947 -0.2396 -0.0046  0.4159
   18MOL    C7210646   5.393   1.456   6.982 -0.5883 -0.0931  0.0499
   18MOL    C7310647   5.468   1.467   7.117  1.1806 -0.1765  0.0345
   18MOL    C7410648   5.443   0.523   6.607 -0.1926  0.0325  0.3180
   18MOL    H7510649   5.616   0.580   6.715 -1.3079 -0.0891 -2.7525
   18MOL    H7610650   5.498   0.778   6.633  1.2168 -0.6771 -1.2853
   18MOL    H7710651   5.584   0.839   6.778 -0.7355  1.4039  2.0245
   18MOL    H7810652   5.344   0.892   6.881  3.7614  1.0085  0.9274
   18MOL    H7910653   5.283   0.866   6.727  0.5490 -0.1489  0.9494
   18MOL    H8010654   5.487   1.069   6.826 -0.3132 -1.2855  0.9097
   18MOL    H8110655   5.464   1.053   6.655 -0.8612  1.5962  0.0502
   18MOL    H8210656   5.217   1.118   6.696 -0.3442 -0.4317  0.5735
   18MOL    H8310657   5.244   1.088   6.863  1.2556  0.7767  0.9578
   18MOL    H8410658   5.352   1.342   6.732  3.3092 -0.5722  1.0914
   18MOL    H8510659   5.206   1.309   6.803  0.2490  0.0634  0.1572
   18MOL    H8610660   5.474   1.254   6.946 -0.1554  0.0684 -3.3735
   18MOL    H8710661   5.346   1.247   7.033 -0.5231 -1.7058 -0.8254
   18MOL    H8810662   5.462   1.498   6.909  1.1070 -0.9204  1.1371
   18MOL    H8910663   5.301   1.513   6.990  0.6205  2.0538 -0.8517
   18MOL    H9010664   5.407   1.448   7.205  2.3658 -1.3869  0.6188
   18MOL    H9110665   5.518   1.562   7.136 -1.0924  0.6827  1.9330
   18MOL    H9210666   5.548   1.393   7.116 -1.4502 -3.1088 -0.0885
   18MOL    H9310667   5.487   0.581   6.526  1.6341 -1.7723 -0.0265
   18MOL    H9410668   5.477   0.425   6.574 -1.5609 -0.7707  1.2461
   18MOL    C9510669   5.291   0.527   6.606  0.0979 -0.0370  0.1223
   18MOL    O9610670   5.259   0.401   6.668 -0.4966 -0.1389  0.0037
   18MOL    C9710671   5.142   0.399   6.735  0.1657  0.5242  0.3401
   18MOL    C9810672   5.132   0.251   6.771  0.2965  0.1346  0.3697
   18MOL    C9910673   5.101   0.154   6.654  0.4809  0.2233 -0.4622
   18MOL   C10010674   4.968   0.188   6.600  0.2239  0.2323  0.1683
   18MOL   C10110675   4.911   0.079   6.511 -0.4751 -0.1556 -0.4344
   18MOL   C10210676   4.784   0.106   6.422  0.3274 -0.4099  0.8054
   18MOL   C10310677   4.827   0.157   6.281 -0.6358  0.1755  0.3492
   18MOL   C10410678   4.706   0.179   6.187  0.4471 -0.2857  0.5482
   18MOL   C10510679   5.225   0.529   6.462 -0.0517 -0.1348  0.3515
   18MOL   H10610680   5.248   0.607   6.667 -1.5425  0.3248 -1.4626
   18MOL   H10710681   5.059   0.428   6.671 -0.9447  0.6776  1.8328
   18MOL   H10810682   5.129   0.463   6.822  0.6116  0.9404  0.1023
   18MOL   H10910683   5.051   0.236   6.843  1.3952 -0.2022  1.5511
   18MOL   H11010684   5.221   0.221   6.826  1.9786  1.1887 -1.7045
   18MOL   H11110685   5.173   0.149   6.573  0.2198  0.3599 -0.7030
   18MOL   H11210686   5.096   0.049   6.684  1.2336  0.3171 -0.0005
   18MOL   H11310687   4.895   0.225   6.672  0.7111  2.1881 -0.3111
   18MOL   H11410688   4.993   0.270   6.533 -1.9682 -0.5251 -1.6566
   18MOL   H11510689   4.993   0.047   6.448 -0.5109 -1.0468 -0.0338
   18MOL   H11610690   4.882   7.770   6.576  1.4823  1.6922  2.9058
   18MOL   H11710691   4.716   0.175   6.472  1.5130  2.2689 -1.1147
   18MOL   H11810692   4.733   0.013   6.396 -1.4968  1.1414 -1.3714
   18MOL   H11910693   4.876   0.253   6.291 -1.3930  0.6221 -0.1812
   18MOL   H12010694   4.898   0.093   6.229  0.5407  0.9633  0.9678
   18MOL   H12110695   4.726   0.252   6.108  0.2614  0.5003  1.2203
   18MOL   H12210696   4.622   0.209   6.250  0.4616 -0.1908  0.5234
   18MOL   H12310697   4.684   0.086   6.135  2.5271 -1.4911  1.7882
   18MOL   H12410698   5.269   0.451   6.399 -1.3599 -1.8651  1.5291
   18MOL   H12510699   5.118   0.509   6.473 -0.0104 -0.8608 -0.4705
   18MOL   C12610700   5.227   0.662   6.397 -0.4424 -0.0397  0.0434
   18MOL   O12710701   5.139   0.743   6.469 -0.0497 -0.5764  0.2473
   18MOL   C12810702   5.146   0.879   6.438 -0.6063  0.3544 -0.1240
   18MOL   C12910703   5.003   0.933   6.422 -0.4327  0.4035  0.7681
   18MOL   C13010704   4.986   1.086   6.400 -0.0076 -0.2148 -0.0138
   18MOL   C13110705   4.839   1.130   6.387 -0.0732  0.4256 -0.1424
   18MOL   C13210706   4.826   1.285   6.356 -0.7701 -0.7286  0.9158
   18MOL   C13310707   4.677   1.348   6.350  0.0011  0.5979  0.1681
   18MOL   C13410708   4.583   1.312   6.240 -0.1484 -0.9625 -0.4726
   18MOL   C13510709   4.475   1.423   6.212  0.0725 -0.3342 -0.0773
   18MOL   C13610710   5.178   0.655   6.252  0.2121  0.1875 -0.1233
   18MOL   H13710711   5.329   0.698   6.410 -0.1189 -0.1958 -1.9310
   18MOL   H13810712   5.207   0.911   6.353  0.3337 -2.8335 -0.7124
   18MOL   H13910713   5.191   0.923   6.527 -0.3121 -2.0756  0.9554
   18MOL   H14010714   4.936   0.900   6.502 -0.8982 -1.4451 -0.3611
   18MOL   H14110715   4.969   0.881   6.333 -0.5234 -3.2425  2.8211
   18MOL   H14210716   5.021   1.138   6.489 -0.2989  0.7610 -0.4526
   18MOL   H14310717   5.038   1.105   6.306 -1.8146 -0.7786 -1.1490
   18MOL   H14410718   4.802   1.083   6.295 -0.3459 -0.4284  0.4019
   18MOL   H14510719   4.788   1.113   6.481  2.0034 -1.5309  0.6768
   18MOL   H14610720   4.883   1.326   6.439  0.0224  1.1694 -0.5412
   18MOL   H14710721   4.872   1.321   6.264 -2.8636  1.3123  0.6005
   18MOL   H14810722   4.673   1.457   6.346  0.6969  0.5493 -3.3615
   18MOL   H14910723   4.634   1.317   6.445 -2.5359  0.2117 -1.0683
   18MOL   H15010724   4.629   1.294   6.143  1.0396 -3.4309  0.4962
   18MOL   H15110725   4.528   1.221   6.262 -1.4616 -0.2747 -0.8999
   18MOL   H15210726   4.427   1.400   6.117 -1.6278 -0.6672  0.8526
   18MOL   H15310727   4.521   1.522   6.213  1.7231 -1.0767  2.3895
   18MOL   H15410728   4.405   1.437   6.294 -2.0755 -0.6295 -1.8164
   18MOL   H15510729   5.096   0.584   6.248  2.9116 -3.0668  0.2055
   18MOL   H15610730   5.130   0.745   6.211 -1.4720  0.4059  2.2651
   18MOL   C15710731   5.302   0.621   6.163 -0.2597  0.1926 -0.1607
   18MOL   O15810732   5.385   0.736   6.156  1.0064 -0.1177 -0.4253
   18MOL   C15910733   5.516   0.708   6.143  0.4809  0.2336 -0.1763
   18MOL   C16010734   5.611   0.834   6.161 -0.0981  0.0435 -0.1785
   18MOL   C16110735   5.752   0.818   6.114  0.0190  0.0312 -0.3058
   18MOL   C16210736   5.829   0.710   6.183  0.4746  0.5909 -0.0451
   18MOL   C16310737   5.851   0.725   6.335  0.1134  0.2221 -0.5869
   18MOL   C16410738   5.924   0.859   6.377 -0.8846  0.5376  0.7382
   18MOL   C16510739   5.932   0.880   6.530  0.5384 -0.3479 -0.0067
   18MOL   C16610740   5.793   0.910   6.599 -0.0129  0.4671 -0.1346
   18MOL   C16710741   5.252   0.568   6.021 -0.4717 -0.2596  0.2233
   18MOL   H16810742   5.355   0.539   6.211  0.8102  0.9441 -0.0459
   18MOL   H16910743   5.536   0.662   6.046 -2.2635  0.6806 -1.0102
   18MOL   H17010744   5.549   0.631   6.212  0.5400  0.1375 -0.3102
   18MOL   H17110745   5.609   0.879   6.261 -0.9619 -0.4235  0.0121
   18MOL   H17210746   5.577   0.910   6.090 -2.7069 -2.0830 -1.2582
   18MOL   H17310747   5.744   0.794   6.008 -1.1803 -2.3626  0.2897
   18MOL   H17410748   5.816   0.906   6.110 -2.3345  1.8308 -0.1010
   18MOL   H17510749   5.798   0.612   6.148 -2.3556  1.2927  0.3288
   18MOL   H17610750   5.924   0.703   6.131  0.3641  1.1243 -0.3218
   18MOL   H17710751   5.751   0.721   6.377 -0.0350  1.7410 -0.7829
   18MOL   H17810752   5.901   0.644   6.388 -1.5057 -0.1199  0.4603
   18MOL   H17910753   5.865   0.940   6.334  2.0261  2.7420  0.7432
   18MOL   H18010754   6.022   0.861   6.331 -0.8592 -0.3806  0.7393
   18MOL   H18110755   5.997   0.807   6.579  0.4308 -2.2885 -2.5951
   18MOL   H18210756   5.991   0.971   6.538  1.4987 -1.0601  1.2141
   18MOL   H18310757   5.820   0.917   6.704 -0.7760  0.2549  0.0760
   18MOL   H18410758   5.734   0.819   6.587  0.8700 -0.1072 -0.2085
   18MOL   H18510759   5.728   0.987   6.558  1.5549  0.7125 -2.2790
   18MOL   H18610760   5.198   0.648   5.971  0.7332  1.9090  2.2519
   18MOL   H18710761   5.346   0.559   5.966 -0.4505  1.1890  0.0214
   18MOL   C18810762   5.178   0.437   6.023 -0.4544  0.1793  0.9161
   18MOL   O18910763   5.258   0.354   6.099 -0.3361  0.5387 -0.0203
   18MOL   C19010764   5.196   0.235   6.153 -0.2306 -0.4117 -0.3534
   18MOL   C19110765   5.293   0.182   6.262 -0.4860 -0.1036  0.1605
   18MOL   C19210766   5.257   0.037   6.292  0.5274  0.6326 -0.3585
   18MOL   C19310767   5.360   7.748   6.384  0.4175 -0.4030  0.1035
   18MOL   C19410768   5.367   7.596   6.379 -0.3894  0.3960 -0.0497
   18MOL   C19510769   5.235   7.531   6.418  0.5858 -0.1806  0.0717
   18MOL   C19610770   5.234   7.376   6.387 -0.4269  0.3492 -0.0371
   18MOL   C19710771   5.362   7.306   6.443  0.0730  0.3488  0.4808
   18MOL   C19810772   5.166   0.369   5.878  0.3128 -0.1077  0.2790
   18MOL   H19910773   5.080   0.443   6.071 -1.0817  2.3196 -0.5370
   18MOL   H20010774   5.100   0.258   6.199 -0.0365  2.3603 -1.2380
   18MOL   H20110775   5.166   0.164   6.077 -1.3488 -0.8212  0.4570
   18MOL   H20210776   5.288   0.250   6.346 -1.2505 -0.6555  0.5642
   18MOL   H20310777   5.397   0.194   6.233 -0.6262 -1.6757 -1.1280
   18MOL   H20410778   5.154   0.027   6.327  0.9287  0.4013  0.8045
   18MOL   H20510779   5.267   7.750   6.203 -0.4759  0.9096 -0.6702
   18MOL   H20610780   5.452   0.017   6.345 -0.8286  2.4642  0.1896
   18MOL   H20710781   5.347   0.014   6.485 -3.1709 -1.4561  0.1606
   18MOL   H20810782   5.392   7.544   6.287 -2.3943  0.4349 -0.6568
   18MOL   H20910783   5.456   7.572   6.436  0.0860 -0.5006 -1.1551
   18MOL   H21010784   5.159   7.577   6.356  0.8412 -0.7887 -0.7105
   18MOL   H21110785   5.198   7.554   6.518 -0.7536 -0.4425 -0.3529
   18MOL   H21210786   5.149   7.321   6.425  0.8303 -0.8198  1.1585
   18MOL   H21310787   5.227   7.364   6.279 -0.5433 -1.0829  0.1213
   18MOL   H21410788   5.368   7.327   6.550  0.9585  2.5797  0.0229
   18MOL   H21510789   5.451   7.345   6.393 -0.6293  1.0531 -0.2480
   18MOL   H21610790   5.372   7.202   6.414 -1.8581 -0.6868  3.3363
   18MOL   H21710791   5.256   0.362   5.818 -1.7086  1.3065 -3.0610
   18MOL   H21810792   5.146   0.262   5.884 -1.4770  0.2536  1.2759
   18MOL   C21910793   5.046   0.428   5.797  0.3046 -0.2949  0.0286
   18MOL   O22010794   5.067   0.562   5.752 -0.0773  0.6337 -0.3248
   18MOL   C22110795   5.132   0.570   5.626 -0.5187 -0.5038  0.0078
   18MOL   C22210796   5.033   0.553   5.504  0.5838 -0.1959  0.0548
   18MOL   C22310797   5.086   0.603   5.373 -0.3157  0.2177 -0.6054
   18MOL   C22410798   4.967   0.593   5.271  0.6317 -0.2442 -0.0971
   18MOL   C22510799   5.017   0.620   5.130 -0.2733 -0.4307  0.1940
   18MOL   C22610800   5.055   0.769   5.111 -0.1082 -0.0315  0.0156
   18MOL   C22710801   5.103   0.810   4.972  0.4945  0.3287 -0.2670
   18MOL   C22810802   5.250   0.764   4.943  0.3714 -0.3931 -0.2611
   18MOL   C22910803   4.912   0.418   5.866  0.4930 -0.0618 -0.0483
   18MOL   H23010804   5.046   0.355   5.717  1.4891 -2.4971  1.9769
   18MOL   H23110805   5.222   0.510   5.615  0.4753  1.0877 -0.7321
   18MOL   H23210806   5.163   0.673   5.612  3.4666 -1.3340  2.1278
   18MOL   H23310807   4.940   0.605   5.525  0.6706  0.0673 -0.2067
   18MOL   H23410808   5.002   0.449   5.492  0.8781 -0.6150  2.6886
   18MOL   H23510809   5.092   0.711   5.385 -3.5246  0.4367 -0.6351
   18MOL   H23610810   5.175   0.558   5.331 -1.6525 -3.0196 -0.1353
   18MOL   H23710811   4.933   0.490   5.273  0.0392 -0.0709 -1.1590
   18MOL   H23810812   4.878   0.643   5.309 -0.1486 -0.1453 -2.0323
   18MOL   H23910813   5.097   0.552   5.100 -0.0301  0.3524 -0.9528
   18MOL   H24010814   4.950   0.584   5.052 -1.1587  2.5379 -0.4763
   18MOL   H24110815   5.127   0.802   5.186 -0.8594  0.0359  0.7068
   18MOL   H24210816   4.965   0.827   5.130 -0.2822 -0.3742  0.2238
   18MOL   H24310817   5.045   0.784   4.883  0.1770  0.2584 -0.0399
   18MOL   H24410818   5.099   0.918   4.955 -0.5115  0.5868  1.5216
   18MOL   H24510819   5.241   0.659   4.918 -0.6718 -0.1320 -1.0400
   18MOL   H24610820   5.326   0.789   5.018  0.4044  0.1380 -0.4665
   18MOL   H24710821   5.285   0.821   4.856 -1.4213  0.2864 -0.5643
   18MOL   H24810822   4.911   0.331   5.931 -0.2463 -1.8858 -2.4345
   18MOL   H24910823   4.903   0.508   5.928  1.7485 -0.3389  0.5631
   18MOL   C25010824   4.795   0.416   5.761 -0.0880 -0.0310 -0.7232
   18MOL   O25110825   4.669   0.460   5.820  0.0881 -0.2272 -0.0372
   18MOL   C25210826   4.635   0.594   5.798  0.2327  0.3078 -0.4288
   18MOL   C25310827   4.524   0.632   5.907  0.7777 -0.3707  0.2035
   18MOL   C25410828   4.500   0.783   5.918  0.0600 -0.5475 -0.1777
   18MOL   C25510829   4.388   0.810   6.018 -0.6019  0.0814  0.2752
   18MOL   C25610830   4.324   0.950   5.994 -1.0423 -0.5203  0.5262
   18MOL   C25710831   4.224   0.989   6.103 -0.1009 -0.2844 -0.0172
   18MOL   C25810832   4.179   1.135   6.105  0.3693  0.6038 -0.1040
   18MOL   C25910833   4.074   1.154   6.217  0.0193  0.4085 -0.0890
   18MOL   C26010834   4.773   0.274   5.692 -0.3296  0.4616 -0.4558
   18MOL   H26110835   4.815   0.492   5.685 -0.3906 -0.3602 -1.1392
   18MOL   H26210836   4.597   0.607   5.697 -0.8041 -0.1028 -0.1034
   18MOL   H26310837   4.728   0.647   5.819 -0.4700  0.7057  1.8375
   18MOL   H26410838   4.556   0.587   6.001  1.9607 -0.3718 -0.1979
   18MOL   H26510839   4.430   0.590   5.869  0.6373 -1.2873  1.5228
   18MOL   H26610840   4.584   0.842   5.955 -0.1144  0.3438 -1.1841
   18MOL   H26710841   4.483   0.826   5.819  1.5747  0.6364  0.0587
   18MOL   H26810842   4.304   0.741   6.018 -0.9955  0.5521 -0.6281
   18MOL   H26910843   4.440   0.795   6.112 -0.2844  1.2827  0.2988
   18MOL   H27010844   4.407   1.022   5.993 -0.4970 -0.9719 -5.1185
   18MOL   H27110845   4.282   0.965   5.895  0.3012 -0.7742 -0.1004
   18MOL   H27210846   4.270   0.970   6.200 -1.6702  2.3347  1.3048
   18MOL   H27310847   4.142   0.918   6.093  0.2910 -0.9693  1.5167
   18MOL   H27410848   4.268   1.193   6.130  0.5590  0.4644 -0.4403
   18MOL   H27510849   4.145   1.176   6.010 -1.2433  2.0252  1.0722
   18MOL   H27610850   3.988   1.088   6.205  1.8896 -2.4221  1.3041
   18MOL   H27710851   4.039   1.256   6.207  2.0733  1.2519  0.9393
   18MOL   H27810852   4.124   1.130   6.312  0.5898 -1.2517 -0.7888
   18MOL   H27910853   4.710   0.292   5.605 -0.1608  0.3591 -0.5996
   18MOL   H28010854   4.868   0.227   5.664  0.0328  0.1706  1.2323
   18MOL   C28110855   4.704   0.168   5.777 -0.1970 -0.4010  0.0177
   18MOL   O28210856   4.799   0.106   5.865 -0.3799 -0.0069  0.5284
   18MOL   C28310857   4.877   7.770   5.819 -0.4807  0.5719  0.4167
   18MOL   C28410858   4.966   7.716   5.937 -0.9998 -0.2641 -0.4034
   18MOL   C28510859   4.880   7.626   6.027  0.7824 -0.2792 -0.0344
   18MOL   C28610860   4.969   7.568   6.144  0.6494  0.8534 -0.1192
   18MOL   C28710861   4.889   7.482   6.247 -0.3476  0.6515 -0.6483
   18MOL   C28810862   4.783   7.388   6.192  0.4716  0.2126 -0.3019
   18MOL   C28910863   4.839   7.274   6.104 -0.0260 -0.3096 -0.1337
   18MOL   C29010864   4.910   7.161   6.183  0.6128 -0.7523 -0.4881
   18MOL   C29110865   4.605   0.077   5.696 -0.6656 -0.4563  0.4755
   18MOL   H29210866   4.638   0.225   5.842 -1.1622  0.8274 -1.9820
   18MOL   H29310867   4.937   0.012   5.730 -1.0889 -0.5893 -0.2108
   18MOL   H29410868   4.808   7.690   5.793  0.7151 -0.6257  0.8991
   18MOL   H29510869   5.037   0.012   5.981 -0.6586 -0.2127 -1.0368
   18MOL   H29610870   5.034   7.644   5.893  0.6455  1.7154 -1.1968
   18MOL   H29710871   4.790   7.681   6.055  1.8939 -0.2166  3.5682
   18MOL   H29810872   4.840   7.549   5.961 -1.2881  2.8485 -2.5706
   18MOL   H29910873   5.051   7.516   6.095  1.4167  0.9409  1.0730
   18MOL   H30010874   5.005   7.652   6.203 -0.6447  2.8699 -2.0979
   18MOL   H30110875   4.961   7.430   6.311  0.1115 -0.3772 -1.9889
   18MOL   H30210876   4.842   7.553   6.316  0.8866 -0.2524  1.1778
   18MOL   H30310877   4.705   7.446   6.142  0.0557  1.6327  1.9120
   18MOL   H30410878   4.739   7.338   6.278  0.7582 -0.8131 -0.7392
   18MOL   H30510879   4.755   7.233   6.049 -0.8552  0.0916  0.8251
   18MOL   H30610880   4.905   7.319   6.030  0.6777  1.2473  1.3722
   18MOL   H30710881   4.938   7.073   6.125  2.5471 -1.4597  1.4583
   18MOL   H30810882   4.859   7.122   6.271  0.7539  0.5423  0.1809
   18MOL   H30910883   5.005   7.204   6.215  0.8264 -0.9049 -0.9177
   18MOL   H31010884   4.545   0.140   5.631  0.0600 -1.2733 -0.9869
   18MOL   H31110885   4.668   0.025   5.625 -1.1881 -0.2066 -0.1745
   18MOL   C31210886   4.522   7.755   5.783  0.2716  0.3483 -0.0290
   18MOL   O31310887   4.469   7.645   5.710  0.4111  0.1458 -0.1930
   18MOL   C31410888   4.481   7.523   5.781  0.5797  0.1259 -0.9281
   18MOL   C31510889   4.361   7.440   5.732  0.3639  0.1398 -0.3186
   18MOL   C31610890   4.366   7.403   5.581  0.4656 -0.0407  0.2148
   18MOL   C31710891   4.250   7.298   5.550 -0.6997 -0.0810 -0.2884
   18MOL   C31810892   4.253   7.262   5.398 -0.3603  0.3078 -0.5709
   18MOL   C31910893   4.163   7.141   5.359 -0.1765  0.1980 -0.7658
   18MOL   C32010894   4.177   7.101   5.209 -0.3139  0.1389 -0.3598
   18MOL   C32110895   4.075   6.993   5.173 -0.3979  0.6228  0.1924
   18MOL   C32210896   4.409   0.045   5.861  0.5129  0.2438 -0.3349
   18MOL   H32310897   4.606   7.719   5.842  1.2169  0.5070 -1.2457
   18MOL   H32410898   4.471   7.541   5.888 -0.8197 -0.0141 -1.0194
   18MOL   H32510899   4.572   7.465   5.779  0.3479 -0.5511  3.2635
   18MOL   H32610900   4.265   7.489   5.749 -0.6114 -1.8904  0.1549
   18MOL   H32710901   4.342   7.356   5.799 -0.0023 -0.1745 -0.8204
   18MOL   H32810902   4.355   7.494   5.523 -1.6328  0.5012  1.4040
   18MOL   H32910903   4.461   7.351   5.568  0.6773  0.2898  0.4270
   18MOL   H33010904   4.265   7.209   5.611 -0.0382  0.1135 -0.1599
   18MOL   H33110905   4.151   7.338   5.573 -0.6250 -1.1276  1.9126
   18MOL   H33210906   4.219   7.351   5.345 -0.6272 -0.7706 -2.2789
   18MOL   H33310907   4.357   7.250   5.366 -0.1367 -0.0248  0.2558
   18MOL   H33410908   4.059   7.153   5.386 -0.3522 -0.1667 -1.2602
   18MOL   H33510909   4.188   7.051   5.415 -1.4854 -0.5858 -1.4311
   18MOL   H33610910   4.167   7.192   5.151  0.8611  0.2191 -0.4588
   18MOL   H33710911   4.272   7.058   5.178 -1.1142 -1.6490 -0.4013
   18MOL   H33810912   4.092   6.905   5.235 -1.9438  0.8112  0.9262
   18MOL   H33910913   4.076   6.970   5.067  2.1456  1.5994 -0.0299
   18MOL   H34010914   3.976   7.037   5.190 -0.4868 -0.0321  1.4332
   18MOL   H34110915   4.336   7.742   5.885 -0.2381  2.0951  3.7310
   18MOL   H34210916   4.452   0.072   5.958  1.4577  0.5035 -0.8226
   18MOL   C34310917   4.336   0.168   5.801 -0.1029  0.3136 -0.2498
   18MOL   O34410918   4.241   0.226   5.894 -0.0500 -0.1888  0.1679
   18MOL   C34510919   4.310   0.313   5.985 -0.0658  0.1065 -0.8428
   18MOL   C34610920   4.211   0.412   6.049 -0.2141 -0.2435  0.3376
   18MOL   C34710921   4.249   0.483   6.180  0.0935  0.5322  0.6239
   18MOL   C34810922   4.144   0.582   6.222 -0.1533  0.0729  0.7148
   18MOL   C34910923   4.171   0.629   6.365  0.3516 -0.4735  0.1745
   18MOL   C35010924   4.050   0.683   6.438  0.3099 -0.8338  0.1271
   18MOL   C35110925   4.030   0.837   6.435 -0.4771  0.9809  0.6163
   18MOL   C35210926   3.924   0.868   6.537  0.1828  0.0121 -0.0569
   18MOL   C35310927   4.257   0.140   5.667  0.1814  0.0781 -0.0260
   18MOL   H35410928   4.421   0.233   5.783  0.1147  0.5634  1.5845
   18MOL   H35510929   4.388   0.372   5.936 -1.0388  0.7239 -1.6667
   18MOL   H35610930   4.352   0.245   6.059 -0.5072 -1.3223 -1.8655
   18MOL   H35710931   4.120   0.359   6.076 -0.2871 -0.4307 -0.2753
   18MOL   H35810932   4.174   0.485   5.978 -1.2244 -2.0744 -1.0451
   18MOL   H35910933   4.267   0.414   6.262  2.1017 -0.4803 -0.6226
   18MOL   H36010934   4.340   0.542   6.170  0.1190  0.3825 -0.0860
   18MOL   H36110935   4.146   0.670   6.159 -1.6584 -0.6065 -0.3330
   18MOL   H36210936   4.048   0.532   6.205 -0.3007  0.2393  1.0478
   18MOL   H36310937   4.210   0.543   6.420 -2.4023 -0.9190  1.5369
   18MOL   H36410938   4.251   0.703   6.376 -3.2674  3.2704  2.7985
   18MOL   H36510939   4.053   0.648   6.541  4.4463  1.3940  0.8527
   18MOL   H36610940   3.962   0.638   6.391 -0.6100  1.3600 -0.2943
   18MOL   H36710941   4.131   0.872   6.457  0.0172 -0.7429  1.1610
   18MOL   H36810942   3.989   0.863   6.338 -2.1380  0.7135  1.2237
   18MOL   H36910943   3.828   0.838   6.496  0.2085 -1.1567  0.7131
   18MOL   H37010944   3.923   0.972   6.569 -1.9686 -0.2555  0.8332
   18MOL   H37110945   3.941   0.815   6.631 -0.5791 -0.1098  0.0101
   18MOL   H37210946   4.296   0.052   5.616 -0.0232  1.9663 -3.6014
   18MOL   H37310947   4.159   0.102   5.697 -0.6997  0.6019 -2.1879
   18MOL   C37410948   4.241   0.258   5.568  0.2148 -0.1394 -1.2239
   18MOL   O37510949   4.370   0.273   5.507  0.5045 -0.3578  0.4563
   18MOL   C37610950   4.371   0.235   5.366  0.3558 -0.0081  0.8949
   18MOL   C37710951   4.376   0.087   5.354  0.2543  0.5302 -0.0838
   18MOL   C37810952   4.406   0.028   5.209  0.6735  0.4164 -0.5258
   18MOL   C37910953   4.415   7.651   5.227  0.3698 -0.1033  0.6656
   18MOL   C38010954   4.483   7.571   5.111 -1.1304  0.1345  0.4857
   18MOL   C38110955   4.467   7.413   5.124  0.1244 -0.3088  0.1225
   18MOL   C38210956   4.575   7.347   5.220 -0.4670 -0.0590  0.0788
   18MOL   C38310957   4.597   7.197   5.204 -0.3797  0.3230 -0.3789
   18MOL   C38410958   4.197   0.384   5.636 -0.1792  0.2883  1.2134
   18MOL   H38510959   4.168   0.226   5.494 -2.2313  0.8138  0.7087
   18MOL   H38610960   4.464   0.284   5.336  0.0694 -0.8353 -1.4262
   18MOL   H38710961   4.293   0.273   5.301  1.1983 -1.1877 -0.8400
   18MOL   H38810962   4.285   0.040   5.392  1.9210 -2.8350 -0.0916
   18MOL   H38910963   4.455   0.059   5.423  2.4439  2.7736 -1.5984
   18MOL   H39010964   4.329   0.054   5.136 -1.5053  2.0689  2.2503
   18MOL   H39110965   4.494   0.078   5.167  2.2779 -0.7390  1.3328
   18MOL   H39210966   4.477   7.624   5.313 -1.3664 -0.1347  1.9255
   18MOL   H39310967   4.317   7.612   5.256  0.5720 -1.6807 -0.6930
   18MOL   H39410968   4.433   7.599   5.018 -0.4679  0.2909  0.1730
   18MOL   H39510969   4.590   7.593   5.112 -0.6985 -1.9138  1.4758
   18MOL   H39610970   4.491   7.368   5.027  1.0379 -0.9014  0.6122
   18MOL   H39710971   4.364   7.381   5.139 -0.4442  1.2544 -0.3466
   18MOL   H39810972   4.668   7.401   5.211 -0.4196 -0.6368 -3.5892
   18MOL   H39910973   4.553   7.363   5.326  1.8036  0.0219  0.5548
   18MOL   H40010974   4.505   7.139   5.202  0.1146 -0.5563  1.1274
   18MOL   H40110975   4.660   7.162   5.286  0.5992 -2.4511 -2.2122
   18MOL   H40210976   4.648   7.191   5.108 -0.8393 -0.4313 -0.5873
   18MOL   H40310977   4.115   0.343   5.695 -0.0487 -1.6546  0.1036
   18MOL   H40410978   4.263   0.434   5.707 -1.1623  3.6233 -0.1304
   18MOL   C40510979   4.138   0.491   5.543 -0.2676  0.1958  0.1175
   18MOL   O40610980   4.144   0.623   5.603 -0.3766  0.0833  0.4503
   18MOL   C40710981   4.259   0.694   5.582  0.3745 -0.3774 -0.7557
   18MOL   C40810982   4.251   0.777   5.455  0.1766 -0.2099  0.0051
   18MOL   C40910983   4.387   0.804   5.383  0.4301 -0.0703  1.1095
   18MOL   C41010984   4.508   0.837   5.470 -0.0523  0.3046 -0.3191
   18MOL   C41110985   4.635   0.843   5.387 -0.7116 -0.0875  0.0771
   18MOL   C41210986   4.748   0.911   5.470 -0.8479 -0.6638  0.4246
   18MOL   C41310987   4.880   0.947   5.400 -0.2108  0.0826  0.0740
   18MOL   C41410988   4.992   0.995   5.499 -0.6356 -0.6255  0.6831
   18MOL   C41510989   3.987   0.457   5.503  0.2065 -0.2724  0.8640
   18MOL   H41610990   4.180   0.486   5.443  0.0949 -2.9740  0.3662
   18MOL   H41710991   4.342   0.624   5.577  1.8432  1.2620  0.0473
   18MOL   H41810992   4.286   0.771   5.655 -0.8403  2.0675 -2.7854
   18MOL   H41910993   4.213   0.875   5.483 -0.0843 -0.1338 -0.6223
   18MOL   H42010994   4.186   0.733   5.380 -0.1364  0.4971 -0.1469
   18MOL   H42110995   4.407   0.713   5.327 -0.8394 -0.3186  1.0406
   18MOL   H42210996   4.365   0.879   5.306 -0.2885 -0.4891  0.9077
   18MOL   H42310997   4.498   0.941   5.501 -0.0048  0.2910 -0.2590
   18MOL   H42410998   4.529   0.776   5.558  0.8201  1.3448  0.1973
   18MOL   H42510999   4.662   0.746   5.346 -1.9730  0.0226 -1.0657
   18MOL   H42611000   4.615   0.901   5.297 -0.1267 -0.3396 -0.2197
   18MOL   H42711001   4.767   0.852   5.559  1.0864  1.5237  1.5136
   18MOL   H42811002   4.723   1.014   5.495 -0.1438 -0.1277 -1.0145
   18MOL   H42911003   4.915   0.856   5.351  1.3515  0.4054  0.5377
   18MOL   H43011004   4.859   1.022   5.324 -1.0318  0.0372  0.2571
   18MOL   H43111005   5.007   0.929   5.584  0.5021  0.1784  1.1260
   18MOL   H43211006   4.978   1.098   5.533  0.8222 -0.4662  0.8559
   18MOL   H43311007   5.079   0.994   5.433  0.4791 -2.6451  2.1378
   18MOL   H43411008   3.981   0.359   5.457 -0.1824 -0.0176  0.3589
   18MOL   H43511009   3.929   0.444   5.594 -1.3723 -0.1868 -0.1121
   18MOL   C43611010   3.911   0.559   5.416 -1.0879  0.3285  0.3851
   18MOL   O43711011   3.770   0.549   5.439  0.5459  0.3453 -0.2774
   18MOL   C43811012   3.693   0.667   5.404  0.2614  0.1682  0.4355
   18MOL   C43911013   3.546   0.637   5.437 -0.5929  0.2546  0.3549
   18MOL   C44011014   3.519   0.630   5.591 -0.7370 -0.3653  0.8064
   18MOL   C44111015   3.366   0.620   5.623  0.4702  0.1026  0.3960
   18MOL   C44211016   3.335   0.602   5.773 -0.2928 -0.3768  0.0456
   18MOL   C44311017   3.389   0.482   5.844 -0.4399 -0.0285  1.2175
   18MOL   C44411018   3.353   0.479   5.988 -0.3905 -0.2101 -0.7654
   18MOL   C44511019   3.364   0.338   6.059  0.5427 -0.3923 -0.1974
   18MOL   C44611020   3.933   0.532   5.259  0.4113  0.5658 -0.5603
   18MOL   H44711021   3.951   0.655   5.448 -1.1756  0.5465 -0.1562
   18MOL   H44811022   3.715   0.749   5.472  1.5403 -1.0815  1.5550
   18MOL   H44911023   3.692   0.703   5.301 -2.9919 -0.0235  0.3481
   18MOL   H45011024   3.497   0.560   5.377  0.4203  0.0303 -0.1949
   18MOL   H45111025   3.489   0.721   5.396  0.3833 -0.0585 -1.7033
   18MOL   H45211026   3.567   0.541   5.631  1.5656 -0.8277 -2.7773
   18MOL   H45311027   3.564   0.711   5.648  0.1080 -0.5545  0.4070
   18MOL   H45411028   3.326   0.710   5.576  0.9545 -0.3511 -0.9111
   18MOL   H45511029   3.338   0.531   5.565  4.2906 -0.6908 -0.3811
   18MOL   H45611030   3.366   0.695   5.819 -1.4305  0.2241 -0.3796
   18MOL   H45711031   3.226   0.599   5.767 -0.3474  0.0136  0.8866
   18MOL   H45811032   3.497   0.474   5.839 -0.5078 -0.0422 -0.3742
   18MOL   H45911033   3.355   0.394   5.790 -1.1072  0.5787  0.6274
   18MOL   H46011034   3.414   0.548   6.046 -0.9004 -2.5043  2.6780
   18MOL   H46111035   3.247   0.503   6.001  0.0841  0.1918  3.0699
   18MOL   H46211036   3.465   0.310   6.089  1.7340  2.2549 -1.5050
   18MOL   H46311037   3.333   0.262   5.988 -0.2437  0.3710 -0.6893
   18MOL   H46411038   3.300   0.340   6.147 -0.3098  0.1624 -0.8189
   18MOL   H46511039   3.892   0.618   5.205 -1.2059 -0.6422 -1.3177
   18MOL   H46611040   4.039   0.544   5.237  0.4817 -0.1577 -0.6367
   18MOL   C46711041   3.863   0.407   5.208  0.4799  0.2167  0.5522
   18MOL   O46811042   3.932   0.280   5.223  0.2455  0.7022 -0.2760
   18MOL   C46911043   3.839   0.177   5.263  0.1369 -0.2681  0.6667
   18MOL   C47011044   3.898   0.043   5.227  0.0799  0.2270 -0.7473
   18MOL   C47111045   3.954   0.022   5.083 -0.9206  0.3078  0.4523
   18MOL   C47211046   3.978   7.646   5.051 -0.1821 -0.0794 -0.8916
   18MOL   C47311047   4.061   7.625   4.922 -0.0646  0.4884 -0.4590
   18MOL   C47411048   4.117   7.482   4.914  0.3713  0.4755  0.0933
   18MOL   C47511049   4.233   7.482   4.817  0.3619  0.4288 -0.1856
   18MOL   C47611050   4.261   7.357   4.733 -0.1023 -0.5924 -0.3042
   18MOL   C47711051   3.830   0.418   5.056  0.0174  0.8922 -0.5185
   18MOL   H47811052   3.763   0.394   5.250  0.1726 -0.0836 -0.2477
   18MOL   H47911053   3.755   0.178   5.194 -0.1747  3.7308  0.9601
   18MOL   H48011054   3.820   0.186   5.370  1.1138 -0.6470  0.8738
   18MOL   H48111055   3.818   7.747   5.251  0.4873  0.0305  0.0692
   18MOL   H48211056   3.974   0.019   5.301  0.2212  1.3276 -0.5348
   18MOL   H48311057   3.880   0.051   5.008  0.4267 -0.4917 -1.2092
   18MOL   H48411058   4.036   0.091   5.068 -0.9168  0.2437  0.1793
   18MOL   H48511059   4.038   7.604   5.132  1.4877  0.5459 -1.7686
   18MOL   H48611060   3.885   7.590   5.057  0.5207 -1.2262 -0.5201
   18MOL   H48711061   3.994   7.648   4.839 -0.3241  1.2568 -0.0408
   18MOL   H48811062   4.139   7.701   4.922 -0.5952  1.0372 -0.7300
   18MOL   H48911063   4.037   7.426   4.864  0.9824 -0.2827 -0.0524
   18MOL   H49011064   4.136   7.422   5.003  0.2794 -0.4643 -0.5129
   18MOL   H49111065   4.238   7.569   4.752  2.3355  0.1875 -0.3902
   18MOL   H49211066   4.327   7.486   4.872  0.8840  1.4433 -1.1395
   18MOL   H49311067   4.363   7.357   4.693  0.3144 -3.1198  0.6828
   18MOL   H49411068   4.175   7.338   4.669 -0.8173  0.5458  0.3023
   18MOL   H49511069   4.268   7.277   4.807 -1.9551  1.5506  2.3038
   18MOL   H49611070   3.912   0.464   5.001 -0.3404  1.5759 -0.4850
   18MOL   H49711071   3.835   0.318   5.012 -0.9025  0.7162 -0.2188
   18MOL   C49811072   3.697   0.485   5.028 -0.5443  0.2644 -0.4652
   18MOL   O49911073   3.587   0.394   4.990  0.3712 -0.0415  0.3096
   18MOL   C50011074   3.510   0.361   5.109 -0.5253 -0.3433 -0.2635
   18MOL   C50111075   3.387   0.275   5.068  0.4715 -0.9592 -0.2255
   18MOL   C50211076   3.295   0.246   5.188 -0.1129 -0.3269 -0.1425
   18MOL   C50311077   3.164   0.184   5.130  0.8375  0.2051 -0.4594
   18MOL   C50411078   3.075   0.118   5.231 -0.3784 -0.3324 -0.0266
   18MOL   C50511079   3.014   0.217   5.331  0.0581 -0.1920  0.4414
   18MOL   C50611080   3.104   0.269   5.443 -0.4934 -0.0764  0.0909
   18MOL   C50711081   3.043   0.334   5.568 -0.1199 -0.8379 -0.6939
   18MOL   C50811082   3.716   0.580   4.910 -0.3278 -0.6020 -0.2668
   18MOL   H50911083   3.667   0.551   5.110 -1.1358 -1.1294  0.4431
   18MOL   H51011084   3.483   0.453   5.161 -1.4234 -1.1403  0.6998
   18MOL   H51111085   3.577   0.315   5.182  3.0876 -0.8348 -3.6755
   18MOL   H51211086   3.427   0.184   5.023  1.2649 -0.8126  0.1793
   18MOL   H51311087   3.336   0.327   4.988  0.3775  1.2420  1.2206
   18MOL   H51411088   3.339   0.177   5.260 -1.0241 -0.4788  0.2774
   18MOL   H51511089   3.284   0.344   5.233 -1.8899  0.0945 -1.4411
   18MOL   H51611090   3.116   0.257   5.064  0.3440 -1.9537 -2.5685
   18MOL   H51711091   3.195   0.107   5.059 -0.5622  0.3897 -1.2913
   18MOL   H51811092   2.998   0.065   5.176 -0.3659  3.2061 -3.6316
   18MOL   H51911093   3.142   0.047   5.280  2.4660  2.2548 -0.0234
   18MOL   H52011094   2.924   0.177   5.377 -1.7528  1.4733 -1.5401
   18MOL   H52111095   2.985   0.305   5.273 -1.5895  0.1375  1.7291
   18MOL   H52211096   3.177   0.195   5.477 -1.6017 -1.7714 -1.1556
   18MOL   H52311097   3.163   0.353   5.408  0.0866 -0.9918 -1.1589
   18MOL   H52411098   3.119   0.368   5.638  0.6052 -3.0292 -0.3661
   18MOL   H52511099   2.977   0.265   5.619  0.9340 -0.1797  1.6128
   18MOL   H52611100   2.997   0.425   5.528 -1.1133 -1.0060  0.0755
   18MOL   H52711101   3.796   0.653   4.924  0.0933 -1.2707  0.8948
   18MOL   H52811102   3.738   0.516   4.825  1.2309  1.6539 -1.6443
   18MOL   C52911103   3.593   0.668   4.878 -0.2886 -0.3832  0.4311
   18MOL   O53011104   3.627   0.739   4.757  0.2717  0.6547 -0.7293
   18MOL   C53111105   3.595   0.689   4.627 -0.1794 -0.3614 -0.4057
   18MOL   C53211106   3.639   0.812   4.548  0.3078 -0.2155 -0.3512
   18MOL   C53311107   3.788   0.839   4.564 -0.1043  0.4772 -0.4740
   18MOL   C53411108   3.854   0.936   4.462 -0.1682  1.3134 -0.1057
   18MOL   C53511109   4.000   0.938   4.507 -0.4288 -0.0852  0.5749
   18MOL   C53611110   4.073   1.063   4.457 -0.1918  0.7200  0.1403
   18MOL   C53711111   4.215   1.050   4.498 -0.5607 -0.7019 -0.4275
   18MOL   C53811112   4.301   1.164   4.453  0.2329 -0.5442 -0.2235
   18MOL   C53911113   3.546   0.775   4.984  0.5220  0.5137  0.0100
   18MOL   H54011114   3.507   0.601   4.869  1.0904 -2.0946 -0.3604
   18MOL   H54111115   3.646   0.597   4.601 -0.3709 -1.1312  1.8800
   18MOL   H54211116   3.487   0.677   4.616 -0.1531 -1.6001  0.6721
   18MOL   H54311117   3.581   0.900   4.578 -1.1773 -0.9341 -1.0835
   18MOL   H54411118   3.627   0.790   4.442  0.7091  2.6019 -1.0296
   18MOL   H54511119   3.804   0.871   4.667 -1.0906  3.0946 -1.0989
   18MOL   H54611120   3.834   0.741   4.553 -0.7090  0.1597 -0.2034
   18MOL   H54711121   3.836   0.903   4.360 -2.3093 -0.3488  0.7419
   18MOL   H54811122   3.800   1.029   4.479 -3.2446 -0.6956  1.8453
   18MOL   H54911123   4.004   0.957   4.614 -2.1765  0.5839  0.5338
   18MOL   H55011124   4.040   0.840   4.482  3.1230  0.8553  2.2630
   18MOL   H55111125   4.022   1.151   4.497 -1.8818 -0.2185  0.1160
   18MOL   H55211126   4.060   1.066   4.349  1.2715 -0.6638 -0.0830
   18MOL   H55311127   4.233   1.017   4.600 -4.0456 -0.4367  0.3246
   18MOL   H55411128   4.249   0.962   4.443  1.2233  0.7823 -1.7769
   18MOL   H55511129   4.296   1.202   4.351  0.9497  0.6456  0.1690
   18MOL   H55611130   4.409   1.152   4.448  0.4311  1.1596 -0.2599
   18MOL   H55711131   4.289   1.250   4.519 -0.0980 -0.8921  0.1686
   18MOL   H55811132   3.441   0.787   4.954 -0.9136 -3.3385  3.0700
   18MOL   H55911133   3.542   0.725   5.080 -0.9932  0.4565 -0.0619
   18MOL   C56011134   3.625   0.904   4.986 -0.5184  0.7686 -0.3732
   18MOL   O56111135   3.749   0.871   5.046  0.1062 -0.6408 -0.8171
   18MOL   C56211136   3.865   0.939   5.008 -0.9596  0.2803  0.1388
   18MOL   C56311137   3.996   0.856   5.036  0.1873 -0.0124  0.1436
   18MOL   C56411138   4.127   0.943   5.018 -0.1064 -0.6823  0.6278
   18MOL   C56511139   4.259   0.860   5.023  0.0214 -0.4060  0.0573
   18MOL   C56611140   4.381   0.956   5.006  0.0247  0.3882  0.2932
   18MOL   C56711141   4.510   0.875   4.993 -0.0532  0.1656  0.0976
   18MOL   C56811142   4.629   0.950   4.940  0.6604 -0.4957  0.1494
   18MOL   C56911143   4.761   0.896   4.984 -0.5551  0.5302 -0.5677
   18MOL   C57011144   3.568   1.006   5.083  0.3147  0.0463 -1.1141
   18MOL   H57111145   3.621   0.939   4.883 -0.3368 -0.6847 -0.8847
   18MOL   H57211146   3.863   1.026   5.074 -1.5572 -0.6680  1.3908
   18MOL   H57311147   3.866   0.976   4.905  2.3128 -0.5631 -0.1979
   18MOL   H57411148   4.009   0.769   4.971 -1.2741 -1.0886  1.2338
   18MOL   H57511149   3.976   0.815   5.135 -1.8828 -0.4501 -0.4136
   18MOL   H57611150   4.130   0.994   4.921  3.4098 -0.3441  0.8661
   18MOL   H57711151   4.133   1.017   5.098  1.1557 -0.3122  0.2013
   18MOL   H57811152   4.277   0.782   5.098 -0.7379 -0.7499 -0.1084
   18MOL   H57911153   4.266   0.810   4.926  1.1630 -1.6280  0.7401
   18MOL   H58011154   4.369   1.017   4.916  2.0789  1.4473  0.7137
   18MOL   H58111155   4.369   1.018   5.095  0.0985  2.1432 -0.8991
   18MOL   H58211156   4.494   0.800   4.915  1.2583 -0.2046  0.1769
   18MOL   H58311157   4.524   0.824   5.088 -1.6153 -0.0663  0.2111
   18MOL   H58411158   4.621   0.942   4.832  0.5029  1.2832  0.0133
   18MOL   H58511159   4.625   1.058   4.955  0.7568 -0.7926  2.6181
   18MOL   H58611160   4.793   0.814   4.920  1.5205 -0.5155  1.7395
   18MOL   H58711161   4.745   0.858   5.085 -2.8951  2.0867 -0.3248
   18MOL   H58811162   4.839   0.972   4.976  1.4060 -0.8983  3.3194
   18MOL   H58911163   3.578   0.957   5.180  3.5706  0.8211 -0.9725
   18MOL   H59011164   3.621   1.101   5.090  2.5328 -1.2300  0.2499
   18MOL   C59111165   3.421   1.031   5.066  0.3404 -0.8601 -0.0077
   18MOL   O59211166   3.390   1.083   4.936 -0.5475 -0.6316 -0.3229
   18MOL   C59311167   3.282   1.013   4.877  0.7059  0.1947 -0.4218
   18MOL   C59411168   3.215   1.105   4.763  0.3691  0.3238 -0.4102
   18MOL   C59511169   3.129   1.219   4.822  0.1843  0.6777 -0.3738
   18MOL   C59611170   3.093   1.323   4.721 -0.4535  0.7910 -0.1074
   18MOL   C59711171   2.990   1.428   4.773 -0.3065 -0.0952  0.2130
   18MOL   C59811172   2.962   1.522   4.661  0.1834  0.4876  0.1607
   18MOL   C59911173   2.845   1.618   4.698 -0.1348  0.0722  0.1261
   18MOL   C60011174   2.712   1.575   4.653  0.5671 -0.1826  0.0943
   18MOL   C60111175   3.377   1.137   5.170  0.0090  0.4002  0.2765
   18MOL   H60211176   3.370   0.941   5.099  2.0358 -1.4857  0.9756
   18MOL   H60311177   3.201   1.001   4.948  1.2408 -0.5073  0.0723
   18MOL   H60411178   3.315   0.916   4.839  1.7772  0.2634  0.2939
   18MOL   H60511179   3.151   1.054   4.691  0.9233 -0.2427 -0.4970
   18MOL   H60611180   3.296   1.143   4.701  1.8503 -1.3106  0.5005
   18MOL   H60711181   3.032   1.192   4.865  0.7704 -1.1750 -0.1482
   18MOL   H60811182   3.182   1.258   4.909  1.6085  0.9761 -1.3673
   18MOL   H60911183   3.181   1.378   4.688  2.4607 -2.9911  1.0325
   18MOL   H61011184   3.047   1.266   4.640 -0.3358  0.4931  0.0357
   18MOL   H61111185   2.897   1.376   4.797 -1.4363  0.5013 -2.6556
   18MOL   H61211186   3.039   1.476   4.857 -0.1300  2.7563 -1.4433
   18MOL   H61311187   2.951   1.469   4.566  1.1926 -0.7354  0.7010
   18MOL   H61411188   3.050   1.583   4.639 -0.8874  1.0467 -2.7969
   18MOL   H61511189   2.835   1.643   4.804 -1.1723  0.9092 -0.1573
   18MOL   H61611190   2.867   1.717   4.658  0.2149 -0.4561 -1.0030
   18MOL   H61711191   2.688   1.472   4.681  2.8912 -1.0165 -0.8257
   18MOL   H61811192   2.704   1.593   4.545  4.7227 -1.7907 -0.5999
   18MOL   H61911193   2.635   1.631   4.706  0.7616 -1.4698  1.7669
   18MOL   H62011194   3.274   1.171   5.160 -0.7636 -1.8872  0.1688
   18MOL   H62111195   3.382   1.084   5.266 -0.4645  1.0987  0.6904
   18MOL   H62211196   3.439   1.226   5.178  0.6027 -0.1766  2.8203
   19MOL     C111197   1.396   0.732   0.679 -0.2244 -0.1568  0.1425
   19MOL     O211198   1.343   0.832   0.765  0.3355 -1.0777  0.5474
   19MOL     C311199   1.394   0.970   0.761  0.0962  0.1791 -0.2075
   19MOL     C411200   1.533   0.969   0.825 -0.7288  0.1464  0.4663
   19MOL     C511201   1.528   0.952   0.981  0.4263 -0.1658  0.7164
   19MOL     C611202   1.666   0.965   1.056  0.4811  0.0834  0.2263
   19MOL     C711203   1.640   0.963   1.208  0.2322 -0.8377 -0.0888
   19MOL     C811204   1.766   0.985   1.298  0.3938  0.3779  0.1140
   19MOL     C911205   1.833   1.123   1.308  0.2896  0.0041 -0.1580
   19MOL    C1011206   1.727   1.235   1.349 -1.0526  0.8254 -0.1651
   19MOL    C1111207   1.342   0.742   0.533 -0.2052 -0.2479  0.1824
   19MOL    H1211208   1.504   0.748   0.674 -0.3919  0.7401 -0.9657
   19MOL    H1311209   1.333   1.041   0.816 -0.1700 -0.8970  0.9250
   19MOL    H1411210   1.406   0.997   0.656  1.2599 -0.9577 -0.3815
   19MOL    H1511211   1.574   1.066   0.798  0.8488 -0.3277  1.1005
   19MOL    H1611212   1.607   0.901   0.782 -1.5110 -1.4259  1.5770
   19MOL    H1711213   1.446   1.004   1.030 -0.3663  0.0917 -0.8325
   19MOL    H1811214   1.489   0.851   0.993 -0.5030 -0.1337 -1.5997
   19MOL    H1911215   1.723   0.881   1.019  0.8068  0.6380 -0.5425
   19MOL    H2011216   1.724   1.054   1.033 -1.2632  0.5435 -2.6619
   19MOL    H2111217   1.578   1.053   1.217  1.6256  0.3966 -2.3309
   19MOL    H2211218   1.581   0.877   1.237  1.3311 -1.1175  1.3592
   19MOL    H2311219   1.843   0.908   1.287 -0.0289  0.0860 -0.9199
   19MOL    H2411220   1.729   0.972   1.400  0.5370  2.0163  0.3895
   19MOL    H2511221   1.911   1.132   1.384 -0.1818  2.4948  0.0593
   19MOL    H2611222   1.880   1.154   1.215  0.0856  0.0314 -0.2516
   19MOL    H2711223   1.662   1.194   1.426  0.6799 -1.5360  0.0697
   19MOL    H2811224   1.666   1.266   1.263 -0.5838  0.8821 -0.4774
   19MOL    H2911225   1.774   1.327   1.384  1.2838 -1.0076  1.6283
   19MOL    H3011226   1.234   0.738   0.525 -0.2098 -0.3670  0.3078
   19MOL    H3111227   1.359   0.839   0.485  3.5031 -0.8051  0.1558
   19MOL    H3211228   1.390   0.633   0.722  0.3137 -0.2019  0.1076
   19MOL    C3311229   1.409   0.631   0.449  0.0420 -0.4706  0.4583
   19MOL    O3411230   1.420   0.682   0.313 -0.5384 -0.2010  0.3403
   19MOL    C3511231   1.532   0.766   0.289  0.1359  0.2482 -0.2346
   19MOL    C3611232   1.552   0.796   0.144 -0.1777 -0.4642 -0.5604
   19MOL    C3711233   1.664   0.898   0.118 -0.8388  0.1644  0.6900
   19MOL    C3811234   1.656   0.966   7.752 -0.4110 -0.5402 -0.2672
   19MOL    C3911235   1.773   1.054   7.710 -0.3704  0.1109 -0.5889
   19MOL    C4011236   1.764   1.092   7.559 -0.1314  0.1666  0.5518
   19MOL    C4111237   1.871   1.197   7.518 -0.0363 -0.5781  0.0466
   19MOL    C4211238   1.831   1.340   7.558  0.3517  0.2872 -0.3033
   19MOL    C4311239   1.312   0.514   0.438  0.0919 -0.3711  0.1668
   19MOL    H4411240   1.504   0.598   0.492  0.1248  0.3824  0.9435
   19MOL    H4511241   1.624   0.720   0.325  0.9283  1.2667 -0.9530
   19MOL    H4611242   1.520   0.860   0.342  0.4981 -0.5225  1.2645
   19MOL    H4711243   1.465   0.843   0.098 -1.3841 -3.5843 -1.6089
   19MOL    H4811244   1.561   0.704   0.087 -2.2640 -2.3551  2.0362
   19MOL    H4911245   1.647   0.979   0.189 -1.0038  0.2415  0.5607
   19MOL    H5011246   1.765   0.864   0.142 -0.9304  0.5929  1.7318
   19MOL    H5111247   1.650   0.883   7.681 -0.3371 -2.2115  1.6369
   19MOL    H5211248   1.568   1.029   7.739 -1.5321 -1.7430  1.2526
   19MOL    H5311249   1.769   1.141   0.001  0.8884 -0.2611  0.0134
   19MOL    H5411250   1.864   0.995   7.725 -1.3428 -0.9894  1.1139
   19MOL    H5511251   1.660   1.121   7.542 -1.4035 -2.6269  3.0506
   19MOL    H5611252   1.780   1.001   7.503  1.0442  0.5488  0.2416
   19MOL    H5711253   1.967   1.177   7.567 -0.1006 -0.2230  0.3144
   19MOL    H5811254   1.876   1.200   7.409  2.5825 -1.4492  0.0876
   19MOL    H5911255   1.837   1.350   7.666  1.2086 -1.7864 -0.1305
   19MOL    H6011256   1.732   1.365   7.520  0.4943 -1.7582 -2.1979
   19MOL    H6111257   1.903   1.412   7.518  1.4723 -0.2571  0.6848
   19MOL    H6211258   1.289   0.477   0.538 -2.9059 -1.4340 -0.8649
   19MOL    H6311259   1.215   0.542   0.397  1.0865  1.5889 -0.8946
   19MOL    C6411260   1.375   0.396   0.350  0.1902  0.0194  0.2176
   19MOL    O6511261   1.276   0.291   0.320  0.2406 -0.0443 -0.0429
   19MOL    C6611262   1.188   0.321   0.210  0.0963 -1.3291  1.1095
   19MOL    C6711263   1.051   0.357   0.265 -0.2200 -0.3241  0.6230
   19MOL    C6811264   0.953   0.395   0.159  0.2596 -0.0580 -0.3984
   19MOL    C6911265   0.816   0.427   0.226  0.3444 -0.2009  0.0966
   19MOL    C7011266   0.717   0.490   0.129  0.0866 -0.0923  0.3615
   19MOL    C7111267   0.585   0.526   0.187  0.1673 -0.0414 -0.2952
   19MOL    C7211268   0.489   0.411   0.227 -0.2621 -0.0111 -0.5273
   19MOL    C7311269   0.352   0.445   0.285 -0.0053 -0.4997 -1.1485
   19MOL    C7411270   1.487   0.322   0.440 -0.4499 -0.3297 -0.1810
   19MOL    H7511271   1.421   0.440   0.262  0.6924  0.4798  0.7051
   19MOL    H7611272   1.175   0.234   0.146  1.4443 -1.0455  0.4342
   19MOL    H7711273   1.234   0.389   0.139 -0.5213 -2.6360 -0.5819
   19MOL    H7811274   1.055   0.446   0.328  2.5722 -0.4326  0.6651
   19MOL    H7911275   1.020   0.270   0.322 -1.6177 -0.2152  0.0458
   19MOL    H8011276   0.984   0.484   0.103 -0.7367  0.1369 -0.6622
   19MOL    H8111277   0.950   0.305   0.098  1.8185 -0.0148 -0.5558
   19MOL    H8211278   0.773   0.344   0.281 -0.3244 -0.3170 -0.5934
   19MOL    H8311279   0.835   0.501   0.304 -1.7624  1.8930 -1.3040
   19MOL    H8411280   0.761   0.577   0.081 -1.8645 -0.2313 -1.7703
   19MOL    H8511281   0.700   0.420   0.047 -1.4201  2.7918 -1.9232
   19MOL    H8611282   0.524   0.582   0.115 -1.8826 -1.0909  0.5993
   19MOL    H8711283   0.616   0.588   0.271 -0.3735 -1.0890  0.6920
   19MOL    H8811284   0.466   0.335   0.153  1.0447 -1.6588  0.7275
   19MOL    H8911285   0.541   0.362   0.309  1.8890  0.8182 -1.3684
   19MOL    H9011286   0.349   0.523   0.362 -0.9002 -1.1942 -0.4601
   19MOL    H9111287   0.296   0.363   0.331  3.0490 -2.1565 -0.2582
   19MOL    H9211288   0.293   0.489   0.205  0.0642  1.4243 -0.1974
   19MOL    H9311289   1.567   0.394   0.459 -0.1123 -0.9096  0.6478
   19MOL    H9411290   1.459   0.298   0.543 -0.7603 -0.8880 -0.3927
   19MOL    C9511291   1.552   0.191   0.377 -0.9341  0.5785  0.3995
   19MOL    O9611292   1.658   0.138   0.464  0.0733 -0.1660  0.0941
   19MOL    C9711293   1.656   7.774   0.491  0.1157 -0.4324  0.7372
   19MOL    C9811294   1.795   7.718   0.531 -0.0252  0.2109 -0.6497
   19MOL    C9911295   1.913   7.735   0.434 -0.7940 -0.1316 -0.0010
   19MOL   C10011296   2.045   7.675   0.489  0.1314 -0.9288 -0.3121
   19MOL   C10111297   2.045   7.525   0.484  0.0821 -0.3708  0.3779
   19MOL   C10211298   2.170   7.459   0.533  0.2985  0.6006 -0.4988
   19MOL   C10311299   2.152   7.309   0.563  0.3078  0.4608 -0.2806
   19MOL   C10411300   2.120   7.226   0.437 -0.2576  0.1911  0.3731
   19MOL   C10511301   1.618   0.207   0.238  0.0921  0.4495  0.0358
   19MOL   H10611302   1.472   0.118   0.367  0.4520 -0.8143 -0.7920
   19MOL   H10711303   1.612   7.717   0.409  1.0145 -1.0629  0.6828
   19MOL   H10811304   1.579   7.752   0.565 -1.9141  1.0007 -0.8863
   19MOL   H10911305   1.797   7.611   0.547  2.3885  0.2730 -0.2349
   19MOL   H11011306   1.817   7.768   0.625  0.3258 -0.9112 -0.1360
   19MOL   H11111307   1.890   7.683   0.341  2.2073  0.2430 -1.0096
   19MOL   H11211308   1.934   0.066   0.414  0.1296 -0.4205 -0.5854
   19MOL   H11311309   2.117   7.702   0.411  0.1193  0.6909  0.2177
   19MOL   H11411310   2.068   7.711   0.590 -1.2191 -3.8038  1.0809
   19MOL   H11511311   1.965   7.478   0.541  0.4571 -0.3193  0.9490
   19MOL   H11611312   2.024   7.487   0.384 -1.0159  1.0039  0.0706
   19MOL   H11711313   2.187   7.499   0.633 -0.5831 -0.3830  0.0529
   19MOL   H11811314   2.258   7.487   0.476  1.6755 -1.1482  0.7144
   19MOL   H11911315   2.249   7.274   0.600 -0.5566 -1.2009  0.4422
   19MOL   H12011316   2.080   7.283   0.641 -0.9662 -1.6274 -2.0930
   19MOL   H12111317   2.210   7.222   0.377 -1.6964 -0.7205 -1.7908
   19MOL   H12211318   2.050   7.267   0.364  0.0114 -0.1928 -0.0967
   19MOL   H12311319   2.092   7.126   0.467  1.7062 -0.8391 -1.1391
   19MOL   H12411320   1.664   0.114   0.206  0.5614  0.8007 -0.3097
   19MOL   H12511321   1.533   0.227   0.172 -1.1504  2.8493  2.2801
   19MOL   C12611322   1.712   0.327   0.206 -0.7957  0.0992 -0.0692
   19MOL   O12711323   1.753   0.331   0.072  0.4412  0.1949  0.0566
   19MOL   C12811324   1.656   0.373   7.758  0.4831 -0.7107  0.1891
   19MOL   C12911325   1.728   0.420   7.632 -0.6804  0.0782 -0.2233
   19MOL   C13011326   1.631   0.518   7.565 -0.6091 -0.0183 -0.0439
   19MOL   C13111327   1.693   0.590   7.440 -0.2130 -0.7883 -0.7966
   19MOL   C13211328   1.616   0.714   7.394 -0.2182  0.3388  0.1854
   19MOL   C13311329   1.660   0.788   7.265 -0.4881 -0.4173  0.1085
   19MOL   C13411330   1.551   0.872   7.197 -0.5417 -0.4275  0.4745
   19MOL   C13511331   1.604   0.956   7.077  0.2894  0.2646 -0.0907
   19MOL   C13611332   1.842   0.313   0.289  0.6514  0.1304  0.0026
   19MOL   H13711333   1.674   0.420   0.247  3.2753  0.7550  2.4783
   19MOL   H13811334   1.596   0.451   0.029 -0.9903 -1.7806  0.1306
   19MOL   H13911335   1.573   0.304   7.742 -0.3199  0.1613  0.5509
   19MOL   H14011336   1.746   0.335   7.566 -1.6176  0.0877 -0.5014
   19MOL   H14111337   1.809   0.484   7.667 -1.4411  0.6724  0.4596
   19MOL   H14211338   1.538   0.468   7.537 -0.7005 -1.1356  2.1822
   19MOL   H14311339   1.602   0.594   7.637 -0.8605 -0.1152 -0.0388
   19MOL   H14411340   1.795   0.619   7.466 -1.8243  3.3673  1.3278
   19MOL   H14511341   1.701   0.523   7.354  0.7542  0.4022 -1.6564
   19MOL   H14611342   1.510   0.701   7.376 -0.1496 -0.4190  0.3276
   19MOL   H14711343   1.620   0.777   7.483 -0.8053 -0.9297  1.1246
   19MOL   H14811344   1.694   0.712   7.195  3.3518  0.6123  0.7482
   19MOL   H14911345   1.735   0.860   7.299  1.1515 -2.2538  0.4969
   19MOL   H15011346   1.471   0.805   7.165 -0.8410 -0.1269  0.5924
   19MOL   H15111347   1.501   0.946   7.259  1.0462  1.4774 -0.4436
   19MOL   H15211348   1.532   1.005   7.010  0.8469 -1.5215 -2.0382
   19MOL   H15311349   1.668   0.889   7.020 -1.8759 -1.6701 -0.2892
   19MOL   H15411350   1.662   1.034   7.127 -2.4431  1.1471  1.8137
   19MOL   H15511351   1.811   0.310   0.393 -0.9412  0.5562 -0.4352
   19MOL   H15611352   1.876   0.211   0.273  1.0544  0.5612 -2.0199
   19MOL   C15711353   1.958   0.414   0.273  1.2939 -0.4402  0.0996
   19MOL   O15811354   2.052   0.401   0.385 -0.1893 -0.2357  0.7089
   19MOL   C15911355   2.157   0.310   0.368  0.4251 -0.3941  0.2875
   19MOL   C16011356   2.223   0.280   0.503 -0.0808  0.1707  1.0595
   19MOL   C16111357   2.294   0.147   0.522  0.0517 -0.0226  0.0235
   19MOL   C16211358   2.445   0.160   0.484  0.3537  0.9577 -0.0443
   19MOL   C16311359   2.521   0.031   0.452 -0.9770  0.3218 -0.5336
   19MOL   C16411360   2.666   0.043   0.396  0.3062 -0.3052 -0.2160
   19MOL   C16511361   2.686   0.083   0.250 -0.0158 -0.7188  0.1451
   19MOL   C16611362   2.610   0.002   0.147  0.0941  0.7490  0.2770
   19MOL   C16711363   1.908   0.561   0.285 -0.3733 -0.8174 -0.8453
   19MOL   H16811364   2.008   0.393   0.179 -0.0244  2.1038 -1.2255
   19MOL   H16911365   2.222   0.336   0.285  0.5591 -0.3839  0.3946
   19MOL   H17011366   2.101   0.220   0.342  1.9854 -1.6375  1.1186
   19MOL   H17111367   2.150   0.295   0.583  0.0765 -1.3021  1.5003
   19MOL   H17211368   2.285   0.364   0.533  0.3724  0.2135  0.0174
   19MOL   H17311369   2.290   0.108   0.623  0.0969 -1.0374 -0.3592
   19MOL   H17411370   2.254   0.070   0.456  1.7177 -0.1065 -0.9240
   19MOL   H17511371   2.445   0.220   0.393 -1.2304 -0.5660 -1.0910
   19MOL   H17611372   2.496   0.217   0.561  2.4282 -0.9466  0.0470
   19MOL   H17711373   2.515   7.750   0.546  2.8336 -0.8375 -0.8856
   19MOL   H17811374   2.461   7.755   0.377 -1.3079 -0.1532  0.0484
   19MOL   H17911375   2.727   7.733   0.429 -0.7520 -1.2423 -0.6232
   19MOL   H18011376   2.721   0.117   0.454  0.1901 -1.8239  1.9140
   19MOL   H18111377   2.661   0.189   0.241 -0.0786 -0.8429 -1.2859
   19MOL   H18211378   2.791   0.077   0.222 -0.2484  2.6261 -1.7497
   19MOL   H18311379   2.615   7.669   0.169 -0.4159  0.6946  0.1324
   19MOL   H18411380   2.642   0.012   0.043 -0.9173 -2.1545 -0.3635
   19MOL   H18511381   2.505   0.022   0.130 -0.1593 -1.2755 -0.7610
   19MOL   H18611382   1.815   0.580   0.230 -0.2034  0.0227 -0.8480
   19MOL   H18711383   1.887   0.589   0.388  1.3171  1.7015 -1.1509
   19MOL   C18811384   2.012   0.656   0.224 -0.4315  0.3320 -0.7177
   19MOL   O18911385   1.992   0.789   0.273 -0.0913 -0.1589 -0.0770
   19MOL   C19011386   2.060   0.811   0.395  0.1673 -0.6955  0.6029
   19MOL   C19111387   2.025   0.957   0.439 -1.3790 -0.0667  0.3779
   19MOL   C19211388   1.877   0.978   0.470 -0.1703 -0.3555  0.1754
   19MOL   C19311389   1.856   1.114   0.550  0.4957 -0.3134 -0.2920
   19MOL   C19411390   1.915   1.130   0.690 -0.6653 -0.2622  0.6983
   19MOL   C19511391   1.853   1.241   0.776  0.2425  0.1046 -0.2313
   19MOL   C19611392   1.901   1.246   0.916 -0.1255  0.3346 -0.7227
   19MOL   C19711393   1.843   1.361   0.992 -0.3791 -0.4182 -0.2882
   19MOL   C19811394   1.998   0.661   0.068 -0.2073  0.1882  0.0544
   19MOL   H19911395   2.113   0.625   0.251 -0.7718  0.1917  0.4000
   19MOL   H20011396   2.044   0.746   0.481  1.4101 -2.5339 -0.5270
   19MOL   H20111397   2.168   0.809   0.379 -0.0516  1.4443 -1.5659
   19MOL   H20211398   2.062   1.026   0.363  1.1296 -0.0507  1.5648
   19MOL   H20311399   2.082   0.984   0.528 -0.7320  0.4945 -0.2060
   19MOL   H20411400   1.807   0.961   0.388 -0.2950 -0.0864  0.2273
   19MOL   H20511401   1.843   0.896   0.534  1.0038 -0.7938  0.2433
   19MOL   H20611402   1.873   1.198   0.483  1.2514 -0.8766 -0.8162
   19MOL   H20711403   1.748   1.121   0.554  0.3226 -1.1535 -2.7372
   19MOL   H20811404   1.906   1.033   0.739 -1.1173  0.3987  1.9539
   19MOL   H20911405   2.021   1.155   0.687 -0.8679  0.6103  0.7188
   19MOL   H21011406   1.744   1.241   0.777  0.2173  1.3914 -1.2970
   19MOL   H21111407   1.873   1.337   0.728  0.3843 -0.6590 -1.7449
   19MOL   H21211408   1.886   1.153   0.971 -1.0689  0.6656 -0.4009
   19MOL   H21311409   2.009   1.257   0.905  0.0200  0.4194  0.6165
   19MOL   H21411410   1.869   1.350   1.097 -1.2260 -1.4112 -0.1674
   19MOL   H21511411   1.735   1.376   0.980 -0.3993 -0.1740  0.1930
   19MOL   H21611412   1.890   1.449   0.950  1.7237 -1.3733  0.0168
   19MOL   H21711413   2.004   0.563   0.021  1.2424  0.5868 -0.6096
   19MOL   H21811414   1.904   0.701   0.030 -0.0194 -0.7391 -1.4150
   19MOL   C21911415   2.114   0.729   7.772  0.4509  0.7765  0.1672
   19MOL   O22011416   2.086   0.731   7.628  0.0719  0.0949 -0.6885
   19MOL   C22111417   2.100   0.856   7.563 -0.2628  0.3980 -0.4135
   19MOL   C22211418   2.040   0.851   7.425  0.4679 -0.0482  0.0438
   19MOL   C22311419   2.095   0.970   7.340  0.5687  0.0956  0.4388
   19MOL   C22411420   1.998   0.990   7.220  0.3890  0.0008  0.6978
   19MOL   C22511421   2.038   1.098   7.122 -0.3283 -0.9715 -0.3406
   19MOL   C22611422   1.949   1.130   7.006  0.6583 -0.2319  0.0664
   19MOL   C22711423   1.950   1.021   6.904  0.0550  0.9332  0.0926
   19MOL   C22811424   1.861   1.048   6.784  0.7570  0.5836 -0.3774
   19MOL   C22911425   2.263   0.679   0.021 -0.1668  0.8582 -0.3300
   19MOL   H23011426   2.103   0.832   0.031  1.0978  0.8292  0.2238
   19MOL   H23111427   2.207   0.877   7.570 -0.2870 -0.3490  3.0732
   19MOL   H23211428   2.044   0.931   7.619  1.3466  1.8160 -0.6675
   19MOL   H23311429   1.932   0.838   7.438  0.4541  0.5532  0.5320
   19MOL   H23411430   2.071   0.767   7.363  1.7793  0.7318 -0.3605
   19MOL   H23511431   2.099   1.066   7.393  1.6504 -0.0881  0.7102
   19MOL   H23611432   2.202   0.952   7.326  1.4191  3.9422  1.2786
   19MOL   H23711433   1.972   0.896   7.173 -2.1129  1.2163 -0.4796
   19MOL   H23811434   1.901   1.011   7.266 -0.2149  1.7834 -1.2603
   19MOL   H23911435   2.060   1.191   7.175 -1.3175 -1.7690  1.5270
   19MOL   H24011436   2.136   1.080   7.079  0.8383  2.1204  0.8326
   19MOL   H24111437   1.982   1.226   6.966  3.2565 -1.1978 -0.1726
   19MOL   H24211438   1.849   1.141   7.048  0.0536 -0.3180 -1.2946
   19MOL   H24311439   2.053   0.998   6.878 -0.0744  1.6067 -1.0603
   19MOL   H24411440   1.908   0.930   6.948  2.6796 -0.0584  0.6445
   19MOL   H24511441   1.896   1.138   6.734  2.0638  0.6862  0.7018
   19MOL   H24611442   1.762   1.078   6.820  1.0851  0.2113  0.8365
   19MOL   H24711443   1.851   0.973   6.705 -1.4222  2.4317 -1.9249
   19MOL   H24811444   2.252   0.590   0.083  1.4742 -1.4708 -3.2240
   19MOL   H24911445   2.286   0.634   7.699  1.7760  1.1448 -0.0030
   19MOL   C25011446   2.360   0.783   0.082 -0.8727  0.0579 -0.2025
   19MOL   O25111447   2.353   0.891   7.761  0.3952  0.1521  0.3419
   19MOL   C25211448   2.361   1.027   0.033 -0.1183 -0.7654  0.6908
   19MOL   C25311449   2.257   1.120   7.740 -1.2229  0.0357 -0.2932
   19MOL   C25411450   2.275   1.266   0.009 -0.0041  0.1098  0.1281
   19MOL   C25511451   2.160   1.349   7.718  0.6540  0.3814  0.3922
   19MOL   C25611452   2.196   1.503   7.731  0.5267  0.4306 -0.5480
   19MOL   C25711453   2.159   1.600   7.615  0.2676  0.3082 -0.9054
   19MOL   C25811454   2.220   1.739   7.647  0.7353 -0.2827 -0.3550
   19MOL   C25911455   2.198   1.838   7.531  0.4789  0.2916  0.2249
   19MOL   C26011456   2.502   0.733   0.106 -0.0222  0.1052 -0.0108
   19MOL   H26111457   2.315   0.812   0.177  1.6054 -0.3701  1.1383
   19MOL   H26211458   2.464   1.059   0.017 -0.3492  0.6523  1.9398
   19MOL   H26311459   2.333   1.036   0.138 -0.9722 -0.2775  0.4297
   19MOL   H26411460   2.156   1.088   7.763 -1.2407  0.1052 -0.2747
   19MOL   H26511461   2.280   1.116   7.634 -0.4330 -2.1289 -0.0632
   19MOL   H26611462   2.271   1.277   0.117  1.6160  0.2055  0.1938
   19MOL   H26711463   2.373   1.303   7.750  0.4873 -1.8334 -0.6461
   19MOL   H26811464   2.166   1.315   7.615 -0.7725 -0.2403  0.4961
   19MOL   H26911465   2.066   1.320   7.766  0.2660 -1.8839 -1.6447
   19MOL   H27011466   2.153   1.547   0.047  1.9411  1.2112 -0.2465
   19MOL   H27111467   2.303   1.515   7.747  0.2065  2.9566 -0.0681
   19MOL   H27211468   2.051   1.597   7.603  0.2831 -0.1280 -0.9495
   19MOL   H27311469   2.201   1.550   7.528  1.6561  0.5397 -0.3812
   19MOL   H27411470   2.162   1.786   7.727 -0.0009 -1.0497 -0.4375
   19MOL   H27511471   2.325   1.737   7.676  0.4382 -1.8156  0.6344
   19MOL   H27611472   2.252   1.933   7.543  0.0058  0.3849  1.6748
   19MOL   H27711473   2.091   1.855   7.525  0.8444  2.3733 -0.9405
   19MOL   H27811474   2.223   1.794   7.435 -0.7127  0.1983 -0.0455
   19MOL   H27911475   2.541   0.696   0.011 -0.7841 -1.7427  0.3603
   19MOL   H28011476   2.563   0.815   0.142  0.0403 -0.0417  0.2234
   19MOL   C28111477   2.520   0.618   0.213 -0.0066 -0.2709 -0.3350
   19MOL   O28211478   2.501   0.682   0.338  0.2194 -0.2969 -0.0067
   19MOL   C28311479   2.439   0.599   0.435  0.1878 -0.1807 -0.3113
   19MOL   C28411480   2.469   0.672   0.567  0.1741 -1.0854 -0.1322
   19MOL   C28511481   2.405   0.818   0.587 -0.1072  0.5636 -0.2619
   19MOL   C28611482   2.429   0.923   0.476  0.4315 -0.4496  0.7732
   19MOL   C28711483   2.379   1.065   0.516  0.2958  0.5565  0.7336
   19MOL   C28811484   2.387   1.167   0.409 -0.4009 -0.2200 -0.4327
   19MOL   C28911485   2.350   1.304   0.457 -0.3446 -0.8588  0.4036
   19MOL   C29011486   2.460   1.376   0.533 -0.2366 -0.2192 -0.1274
   19MOL   C29111487   2.660   0.568   0.229 -0.4718  0.2327 -0.0374
   19MOL   H29211488   2.448   0.537   0.198  0.0828 -0.5123  0.5383
   19MOL   H29311489   2.474   0.497   0.444  2.0105  0.6806  3.0686
   19MOL   H29411490   2.330   0.598   0.425  0.2243 -2.9264 -0.8086
   19MOL   H29511491   2.577   0.680   0.584 -0.1778 -0.9248  2.2945
   19MOL   H29611492   2.430   0.614   0.651  0.5256  0.6469  1.2647
   19MOL   H29711493   2.300   0.788   0.590 -0.5909  2.3226  1.1912
   19MOL   H29811494   2.425   0.862   0.685  1.1305  1.2958 -0.8249
   19MOL   H29911495   2.532   0.926   0.439  0.2197 -2.3396 -0.0580
   19MOL   H30011496   2.377   0.886   0.387 -0.4656 -0.8882  1.4793
   19MOL   H30111497   2.277   1.066   0.552 -0.3281  0.8682 -1.0058
   19MOL   H30211498   2.426   1.109   0.604  1.9463  2.0568 -0.8475
   19MOL   H30311499   2.312   1.137   0.336  0.4259  1.5119 -2.0315
   19MOL   H30411500   2.484   1.178   0.361 -0.2099 -3.5499 -0.9205
   19MOL   H30511501   2.327   1.361   0.368 -0.9525 -2.4195 -0.4542
   19MOL   H30611502   2.253   1.290   0.505 -1.8088 -0.7973 -2.4647
   19MOL   H30711503   2.483   1.325   0.627  0.5186  1.2898  0.5180
   19MOL   H30811504   2.441   1.481   0.552 -1.1316  0.0077 -2.2421
   19MOL   H30911505   2.558   1.384   0.485  0.7807  0.5596  1.9779
   19MOL   H31011506   2.725   0.652   0.253 -0.9861  0.7096 -0.2708
   19MOL   H31111507   2.665   0.501   0.315 -0.2083  0.0190 -0.2193
   19MOL   C31211508   2.723   0.506   0.102 -0.0107  0.7823  0.2458
   19MOL   O31311509   2.635   0.397   0.069  0.0851 -0.5108  0.5765
   19MOL   C31411510   2.631   0.380   7.700 -0.0502  0.8239 -0.3007
   19MOL   C31511511   2.520   0.288   7.664 -0.0464  0.3819  0.5451
   19MOL   C31611512   2.382   0.344   7.683 -0.3351  0.0173 -0.1405
   19MOL   C31711513   2.280   0.234   7.663 -0.1201 -0.3459 -0.4126
   19MOL   C31811514   2.138   0.296   7.667 -0.9298  0.1668 -1.3409
   19MOL   C31911515   2.106   0.400   7.559  0.6183  0.3290  0.1894
   19MOL   C32011516   2.110   0.341   7.416 -0.2994 -0.3360  0.6149
   19MOL   C32111517   2.040   0.211   7.377  0.2257  0.1529 -0.0987
   19MOL   C32211518   2.865   0.457   0.136  0.5535  0.3646 -0.5123
   19MOL   H32311519   2.728   0.593   0.037  0.0468  0.8177  0.2970
   19MOL   H32411520   2.725   0.344   7.657  0.0791  1.9339 -0.9740
   19MOL   H32511521   2.612   0.474   7.648 -0.2253  0.4120 -0.9891
   19MOL   H32611522   2.528   0.193   7.717 -2.3198 -1.2837 -1.9556
   19MOL   H32711523   2.530   0.261   7.558  1.1591 -0.4036  0.8445
   19MOL   H32811524   2.366   0.386   0.008  0.1304  0.0413 -0.0761
   19MOL   H32911525   2.367   0.424   7.611 -0.3962  0.5282  0.4393
   19MOL   H33011526   2.285   0.192   7.562  1.2775  1.1425 -0.9939
   19MOL   H33111527   2.293   0.156   7.738 -1.8708  1.2061  1.5400
   19MOL   H33211528   2.062   0.219   7.680  0.5685 -0.8779  1.6585
   19MOL   H33311529   2.142   0.353   7.759  0.1669 -1.8077 -0.1144
   19MOL   H33411530   2.167   0.490   7.547  0.5109  0.2840 -0.7927
   19MOL   H33511531   2.016   0.457   7.582  1.8954  2.1808  0.7346
   19MOL   H33611532   2.063   0.417   7.354 -0.9881 -0.7959  0.5754
   19MOL   H33711533   2.214   0.325   7.386 -0.3846 -0.2301  0.2643
   19MOL   H33811534   2.084   0.119   7.414 -2.0683 -0.9941 -0.1576
   19MOL   H33911535   2.038   0.196   7.269  1.8196 -1.7577  0.1277
   19MOL   H34011536   1.934   0.214   7.403  1.0071  2.8871  2.9695
   19MOL   H34111537   2.860   0.397   0.227  0.9628  0.9025 -0.1290
   19MOL   H34211538   2.888   0.386   0.056 -0.7703 -0.6551 -0.0109
   19MOL   C34311539   2.985   0.556   0.135  0.3078  0.8935  0.0559
   19MOL   O34411540   2.973   0.663   0.231  0.0079  0.2356 -0.1022
   19MOL   C34511541   2.990   0.628   0.369 -0.1973  0.4973 -0.1717
   19MOL   C34611542   3.138   0.639   0.415 -0.5050 -0.3906  0.0222
   19MOL   C34711543   3.183   0.780   0.437 -0.0788 -0.4937 -0.0578
   19MOL   C34811544   3.143   0.840   0.577 -0.5633  0.5322 -0.1021
   19MOL   C34911545   3.222   0.959   0.608 -0.2221 -0.0260  0.1583
   19MOL   C35011546   3.212   0.996   0.758 -0.4627  0.1649  0.4208
   19MOL   C35111547   3.293   1.130   0.785  0.1484  0.4983 -0.0760
   19MOL   C35211548   3.220   1.255   0.734  0.3517  0.4393 -0.1797
   19MOL   C35311549   3.022   0.632   0.005  0.4791  0.0066 -0.6436
   19MOL   H35411550   3.074   0.503   0.168  0.1412  0.2751 -0.4711
   19MOL   H35511551   2.948   0.528   0.381 -1.8579  1.0911 -0.9009
   19MOL   H35611552   2.945   0.691   0.447  0.0539 -1.3028  1.4674
   19MOL   H35711553   3.202   0.595   0.338 -2.8160 -1.6199 -1.2779
   19MOL   H35811554   3.152   0.575   0.502  0.9248 -0.8368 -0.5124
   19MOL   H35911555   3.292   0.787   0.440 -0.2749  3.1274  1.8222
   19MOL   H36011556   3.155   0.843   0.353  1.5311  0.3380  0.0055
   19MOL   H36111557   3.037   0.864   0.586 -0.5373  0.2734  0.9834
   19MOL   H36211558   3.171   0.762   0.648  0.8576  0.4916 -0.6916
   19MOL   H36311559   3.325   0.937   0.580 -0.5596 -0.6461 -0.5902
   19MOL   H36411560   3.189   1.031   0.534 -0.1744 -1.7119 -1.5261
   19MOL   H36511561   3.265   0.912   0.801  1.5988  0.7942 -0.7776
   19MOL   H36611562   3.109   0.996   0.793 -0.7355  2.2392 -0.2436
   19MOL   H36711563   3.316   1.147   0.890  1.4545  0.7109 -0.3880
   19MOL   H36811564   3.388   1.119   0.733 -0.5653 -2.6374 -0.8499
   19MOL   H36911565   3.197   1.255   0.627 -2.8162  0.1878  0.4393
   19MOL   H37011566   3.277   1.345   0.756  0.7081 -0.0517  0.9218
   19MOL   H37111567   3.128   1.259   0.794  1.1664  0.1183  1.0985
   19MOL   H37211568   2.950   0.713   7.766  0.6234  0.3204  0.4337
   19MOL   H37311569   3.120   0.677   0.019  1.2592 -1.2640 -1.8316
   19MOL   C37411570   3.028   0.539   7.651  0.3148 -0.1236 -0.6512
   19MOL   O37511571   3.132   0.450   7.687 -0.0826  0.5092  0.2864
   19MOL   C37611572   3.150   0.329   7.608 -0.2695  0.0127 -0.1492
   19MOL   C37711573   3.271   0.248   7.670  0.0372  0.4002  1.0293
   19MOL   C37811574   3.220   0.185   0.026  0.0387 -0.3019  0.3008
   19MOL   C37911575   3.325   0.100   0.099 -0.2758 -0.2823  0.0756
   19MOL   C38011576   3.276   7.752   0.176 -0.2417 -1.1139 -0.2912
   19MOL   C38111577   3.395   7.681   0.252 -0.8880  0.3184  0.5897
   19MOL   C38211578   3.357   7.536   0.294 -0.6482  0.6152  0.5266
   19MOL   C38311579   3.257   7.540   0.408 -0.0359  0.5103  0.3028
   19MOL   C38411580   3.060   0.614   7.518  0.0587 -0.1901 -0.0829
   19MOL   H38511581   2.939   0.476   7.650 -2.1299  3.2213 -0.3733
   19MOL   H38611582   3.181   0.358   7.507  1.2618  2.3034  0.9355
   19MOL   H38711583   3.053   0.280   7.605  1.0548 -2.6746 -4.1776
   19MOL   H38811584   3.352   0.316   7.697  0.5484  0.2285 -0.0501
   19MOL   H38911585   3.313   0.180   7.596 -0.9038  0.1659  0.7073
   19MOL   H39011586   3.199   0.269   0.092  3.0952  0.1563  0.7706
   19MOL   H39111587   3.133   0.130   7.765 -0.2086  0.6942 -0.6444
   19MOL   H39211588   3.400   0.065   0.029  1.2879  0.1491  1.4961
   19MOL   H39311589   3.380   0.165   0.168 -0.3026 -0.7844  0.5774
   19MOL   H39411590   3.202   0.003   0.252 -1.3021 -1.1472 -1.3080
   19MOL   H39511591   3.224   7.685   0.107 -3.1350  1.4736 -0.7196
   19MOL   H39611592   3.451   7.736   0.327  1.4586 -0.3518 -0.6145
   19MOL   H39711593   3.473   7.673   0.175 -2.3105 -1.8008 -0.6786
   19MOL   H39811594   3.294   7.489   0.218  0.1105 -0.6552  0.6753
   19MOL   H39911595   3.440   7.470   0.318 -0.6004  0.5982  0.3210
   19MOL   H40011596   3.177   7.612   0.396 -0.1988  0.4133  0.7685
   19MOL   H40111597   3.319   7.562   0.496  2.5708 -1.5108 -0.9427
   19MOL   H40211598   3.223   7.439   0.431  0.1543  0.0105 -1.5584
   19MOL   H40311599   3.130   0.696   7.536 -0.0058 -0.1633  0.0504
   19MOL   H40411600   3.110   0.551   7.445 -0.4296  1.2439 -1.6928
   19MOL   C40511601   2.937   0.675   7.456 -0.0048 -0.8815  0.4509
   19MOL   O40611602   2.947   0.675   7.308 -0.1255 -0.3329 -0.2499
   19MOL   C40711603   2.825   0.673   7.231  0.0389  0.1082  0.0520
   19MOL   C40811604   2.854   0.614   7.095  0.3196  0.3062  0.0871
   19MOL   C40911605   2.728   0.576   7.016 -0.8627 -0.0509 -0.2726
   19MOL   C41011606   2.772   0.517   6.878  0.3092 -0.4902 -0.0597
   19MOL   C41111607   2.665   0.449   6.794  0.1026 -0.4843  0.4360
   19MOL   C41211608   2.574   0.341   6.842  0.1848 -0.1113  0.0399
   19MOL   C41311609   2.634   0.195   6.864  0.2957 -0.4587 -0.1997
   19MOL   C41411610   2.532   0.091   6.920 -1.2868 -0.3532 -0.1729
   19MOL   C41511611   2.922   0.828   7.486  0.5583  0.0241  1.0301
   19MOL   H41611612   2.845   0.627   7.489 -1.9224  0.6261 -2.4161
   19MOL   H41711613   2.773   0.768   7.216  2.5709  1.5937  0.1910
   19MOL   H41811614   2.749   0.609   7.275  0.9257  0.0032  1.4849
   19MOL   H41911615   2.901   0.517   7.110  1.9648  1.2391  1.1263
   19MOL   H42011616   2.925   0.679   7.043 -0.6057  1.8800  0.7442
   19MOL   H42111617   2.675   0.498   7.070 -0.2119 -1.3100 -1.4020
   19MOL   H42211618   2.662   0.661   7.004  0.7379  1.6849  2.6974
   19MOL   H42311619   2.809   0.608   6.831  0.8902 -0.2179  0.8932
   19MOL   H42411620   2.856   0.447   6.882  0.8247  0.2154  2.7674
   19MOL   H42511621   2.598   0.526   6.758  2.2117  2.0642  1.8029
   19MOL   H42611622   2.714   0.410   6.704 -3.2111  1.1509 -2.1948
   19MOL   H42711623   2.506   0.318   6.760 -0.5243 -2.2382  1.1970
   19MOL   H42811624   2.522   0.385   6.927 -2.5929 -0.9157 -1.2070
   19MOL   H42911625   2.652   0.151   6.765  3.8413  1.3361 -0.4397
   19MOL   H43011626   2.728   0.206   6.918  1.6253  2.2540 -2.8962
   19MOL   H43111627   2.461   0.053   6.846 -2.3981  1.5594 -0.1091
   19MOL   H43211628   2.471   0.143   6.994  0.0200  2.2683 -0.8767
   19MOL   H43311629   2.573   7.771   6.957 -0.5064  0.2472  0.5036
   19MOL   H43411630   2.986   0.856   7.570  1.0038  0.9176  0.3969
   19MOL   H43511631   2.945   0.892   7.401  1.4590 -1.2462  0.3180
   19MOL   C43611632   2.783   0.861   7.534  0.2416 -0.4173 -0.7644
   19MOL   O43711633   2.683   0.811   7.442 -0.6816 -0.0880 -0.1382
   19MOL   C43811634   2.565   0.764   7.504  0.5368  0.2186 -0.0975
   19MOL   C43911635   2.443   0.764   7.411  0.3107  0.5056 -0.0299
   19MOL   C44011636   2.444   0.651   7.305  0.1042  0.2644  0.6872
   19MOL   C44111637   2.336   0.665   7.202  0.9983  0.3047 -0.2700
   19MOL   C44211638   2.309   0.551   7.112 -0.2668 -0.1051 -0.0191
   19MOL   C44311639   2.199   0.567   7.010  0.1503 -0.8717 -0.3697
   19MOL   C44411640   2.219   0.666   6.890 -0.0304  0.2730  0.3344
   19MOL   C44511641   2.103   0.666   6.784  0.0962 -0.2744  0.3676
   19MOL   C44611642   2.761   1.016   7.553  0.1136 -1.0468  0.8109
   19MOL   H44711643   2.757   0.808   7.625 -0.3484  1.0856 -0.0548
   19MOL   H44811644   2.584   0.665   7.545 -1.3060  0.5574  1.6491
   19MOL   H44911645   2.527   0.831   7.581  1.8077  0.2346  0.5242
   19MOL   H45011646   2.424   0.861   7.364  0.7561  0.9763  0.7422
   19MOL   H45111647   2.357   0.745   7.475 -0.2129 -3.1445 -1.6977
   19MOL   H45211648   2.537   0.644   7.250 -0.9608 -1.0025 -1.0019
   19MOL   H45311649   2.434   0.561   7.366  1.6398 -0.7980 -0.5890
   19MOL   H45411650   2.242   0.684   7.253  0.6578  0.6488 -1.0206
   19MOL   H45511651   2.352   0.749   7.135  1.6882  0.3498 -0.0528
   19MOL   H45611652   2.408   0.525   7.073 -0.2988 -0.7667  0.3345
   19MOL   H45711653   2.277   0.476   7.184 -1.1507  0.3985  0.1182
   19MOL   H45811654   2.100   0.583   7.054  0.6336 -0.1523  0.4932
   19MOL   H45911655   2.209   0.469   6.963 -0.4744 -0.7118 -0.8334
   19MOL   H46011656   2.260   0.763   6.916  2.0555 -0.2078 -0.9696
   19MOL   H46111657   2.299   0.615   6.835 -0.4865 -2.2731  1.9418
   19MOL   H46211658   2.072   0.567   6.752  1.9322  0.2657 -3.2942
   19MOL   H46311659   2.126   0.717   6.691 -1.4501 -1.3781 -0.6328
   19MOL   H46411660   2.018   0.722   6.824 -0.8824 -0.3140 -1.6004
   19MOL   H46511661   2.771   1.066   7.457 -2.2657 -0.5511  0.7876
   19MOL   H46611662   2.654   1.017   7.575  0.3519  0.5171  2.0575
   19MOL   C46711663   2.825   1.085   7.669 -0.0447  0.1540  0.3905
   19MOL   O46811664   2.772   1.019   0.010 -0.1102  0.2245 -0.2916
   19MOL   C46911665   2.826   1.063   0.129 -0.0656 -0.0681 -0.1109
   19MOL   C47011666   2.812   0.962   0.244 -0.1332 -0.6911 -0.3140
   19MOL   C47111667   2.904   0.992   0.361 -0.6385 -0.5623 -0.1700
   19MOL   C47211668   2.855   1.123   0.433 -0.0685 -0.2253 -0.2020
   19MOL   C47311669   2.931   1.251   0.381 -0.2856 -0.0639  0.0486
   19MOL   C47411670   2.871   1.384   0.444  0.4632 -0.2110  0.1302
   19MOL   C47511671   2.957   1.508   0.412  0.5202  0.1950 -0.2160
   19MOL   C47611672   2.888   1.632   0.465 -0.2103 -0.0700  0.8275
   19MOL   C47711673   2.799   1.238   7.677  0.5665  0.2296  0.2970
   19MOL   H47811674   2.931   1.068   7.650 -0.1609 -0.7979  0.5879
   19MOL   H47911675   2.777   1.159   0.148  1.0879  0.3338  0.8717
   19MOL   H48011676   2.932   1.077   0.110 -0.0267  1.0816  0.8725
   19MOL   H48111677   2.851   0.871   0.199  1.2080 -0.2162 -0.1466
   19MOL   H48211678   2.712   0.944   0.284  0.3189  1.7264  2.0032
   19MOL   H48311679   2.916   0.907   0.428  0.3326  0.5660  1.1330
   19MOL   H48411680   3.002   1.008   0.315 -0.1413 -0.1795  0.9831
   19MOL   H48511681   2.747   1.129   0.429 -0.0244 -0.0885 -1.5727
   19MOL   H48611682   2.885   1.100   0.535  0.4597  0.7409 -0.1371
   19MOL   H48711683   3.034   1.229   0.408 -0.1375 -1.3811 -1.5026
   19MOL   H48811684   2.922   1.261   0.273 -0.3424 -0.3356  0.0272
   19MOL   H48911685   2.880   1.367   0.552  3.2508 -2.2869 -0.3495
   19MOL   H49011686   2.769   1.398   0.410 -0.2004  1.7882  2.8098
   19MOL   H49111687   3.058   1.496   0.450  0.6894 -1.5660 -1.1756
   19MOL   H49211688   2.967   1.508   0.304  0.6760  3.0025 -0.2442
   19MOL   H49311689   2.787   1.635   0.424  0.1175  2.5381  0.0769
   19MOL   H49411690   2.946   1.720   0.436  1.2540 -0.8582  1.3344
   19MOL   H49511691   2.878   1.644   0.573 -1.7157 -0.6496  0.7528
   19MOL   H49611692   2.692   1.260   7.687  0.3780  0.4843 -2.0803
   19MOL   H49711693   2.848   1.278   7.765 -0.1512  0.7304  0.4721
   19MOL   C49811694   2.839   1.301   7.538 -0.5609 -0.3167 -0.1150
   19MOL   O49911695   2.969   1.265   7.507 -0.4069  0.2409 -0.6889
   19MOL   C50011696   3.016   1.291   7.375 -0.3064 -0.2442 -0.3388
   19MOL   C50111697   3.159   1.237   7.360  0.3109  0.4084  0.1754
   19MOL   C50211698   3.202   1.241   7.208 -0.2814 -0.5061 -0.4903
   19MOL   C50311699   3.350   1.222   7.193 -0.7283 -0.1571  0.0121
   19MOL   C50411700   3.402   1.094   7.262  0.0866  0.1110  0.1601
   19MOL   C50511701   3.373   0.963   7.184  0.2841 -0.6055  0.1947
   19MOL   C50611702   3.233   0.904   7.209 -0.0724  0.3669 -0.2722
   19MOL   C50711703   3.232   0.757   7.161 -0.0946  0.8148  0.1825
   19MOL   C50811704   2.826   1.458   7.550  0.6678 -1.2074 -0.4007
   19MOL   H50911705   2.774   1.269   7.456  0.6533  2.4199 -2.2396
   19MOL   H51011706   3.025   1.398   7.356  1.4860  0.5131  4.1942
   19MOL   H51111707   2.954   1.246   7.298 -0.5268 -0.0411 -0.2806
   19MOL   H51211708   3.158   1.135   7.399 -0.4739 -0.5063 -2.1151
   19MOL   H51311709   3.238   1.295   7.408  1.9744 -1.0841 -0.6829
   19MOL   H51411710   3.153   1.182   7.130 -1.0244  0.3006 -0.6358
   19MOL   H51511711   3.182   1.340   7.166  1.1908 -0.2891 -0.7261
   19MOL   H51611712   3.379   1.214   7.089  0.3817  1.0933  0.2064
   19MOL   H51711713   3.395   1.311   7.239 -0.5878 -1.4483  2.4985
   19MOL   H51811714   3.511   1.099   7.261  0.1232  0.1909 -2.9714
   19MOL   H51911715   3.385   1.078   7.368  1.5379 -0.5236  0.3156
   19MOL   H52011716   3.449   0.895   7.222  0.2200 -1.0263 -0.4089
   19MOL   H52111717   3.390   0.975   7.077 -1.3087  1.1409  0.1101
   19MOL   H52211718   3.206   0.903   7.315 -0.7637 -1.9506 -0.4560
   19MOL   H52311719   3.157   0.947   7.144 -0.4718  0.7468  0.4345
   19MOL   H52411720   3.130   0.722   7.150  1.0425 -2.1979 -1.1293
   19MOL   H52511721   3.282   0.691   7.232 -3.2122 -1.3080  0.4904
   19MOL   H52611722   3.280   0.754   7.064 -3.2562 -1.3285 -1.3923
   19MOL   H52711723   2.888   1.483   7.636 -0.2062 -0.8987  0.1470
   19MOL   H52811724   2.867   1.497   7.456 -1.6450  1.1793 -0.4781
   19MOL   C52911725   2.690   1.531   7.561  0.0085 -0.2128 -0.2927
   19MOL   O53011726   2.609   1.488   7.457 -0.3015  0.0079  0.1568
   19MOL   C53111727   2.472   1.482   7.476  0.4351  0.2317  0.4187
   19MOL   C53211728   2.437   1.339   7.457 -0.5842 -0.7078  0.3288
   19MOL   C53311729   2.504   1.268   7.335  0.2994  0.7205  0.1992
   19MOL   C53411730   2.427   1.139   7.299 -0.6182 -0.4759 -0.0350
   19MOL   C53511731   2.468   1.090   7.160 -0.2496  0.1228 -0.1087
   19MOL   C53611732   2.595   1.010   7.150  0.7085 -0.0870  0.1711
   19MOL   C53711733   2.716   1.098   7.115  0.1460  0.8768  0.0971
   19MOL   C53811734   2.839   1.017   7.071  0.5355 -0.0593  1.0095
   19MOL   C53911735   2.705   1.686   7.550 -0.0799  0.5444  0.1648
   19MOL   H54011736   2.658   1.503   7.662  0.7610 -2.4261 -0.6429
   19MOL   H54111737   2.441   1.520   7.573 -2.1956 -1.6546  0.3607
   19MOL   H54211738   2.425   1.542   7.398  1.1308  1.8350  1.2145
   19MOL   H54311739   2.329   1.327   7.462 -0.6601 -0.3326 -0.4193
   19MOL   H54411740   2.466   1.291   7.551 -3.1204  0.7072  1.8776
   19MOL   H54511741   2.494   1.343   7.257  1.8528  1.8650  1.0779
   19MOL   H54611742   2.613   1.259   7.336  0.4237  1.8631 -2.0219
   19MOL   H54711743   2.439   1.068   7.381  0.4511  0.7339  0.8792
   19MOL   H54811744   2.324   1.175   7.303 -0.9642 -1.2593 -1.5651
   19MOL   H54911745   2.386   1.030   7.121  1.7356 -0.5113 -3.4966
   19MOL   H55011746   2.454   1.175   7.094 -0.8237 -0.7008 -1.0601
   19MOL   H55111747   2.576   0.932   7.076 -0.2452  1.4378 -1.2335
   19MOL   H55211748   2.604   0.965   7.248  0.0767  2.7598  1.5997
   19MOL   H55311749   2.696   1.164   7.030 -2.9156  1.2148  1.0278
   19MOL   H55411750   2.748   1.157   7.200  2.7115  1.1232 -0.9704
   19MOL   H55511751   2.900   0.989   7.158 -0.4773  3.2638  2.8665
   19MOL   H55611752   2.898   1.073   6.999  0.0238  0.3616  0.9140
   19MOL   H55711753   2.817   0.924   7.019  1.6285 -0.6188  1.5286
   19MOL   H55811754   2.721   1.704   7.444  0.9931  0.9011  0.3819
   19MOL   H55911755   2.606   1.728   7.571  0.6598  1.9577  0.8919
   19MOL   C56011756   2.813   1.762   7.637 -0.4969 -0.1275  0.4333
   19MOL   O56111757   2.739   1.845   7.727  0.2510  0.3899 -0.6411
   19MOL   C56211758   2.698   1.765   0.071 -0.0702  0.0286  0.4934
   19MOL   C56311759   2.628   1.854   0.170 -0.1738 -0.2002  0.4532
   19MOL   C56411760   2.504   1.911   0.101 -0.0322 -0.1274 -0.2848
   19MOL   C56511761   2.473   2.055   0.173  0.1691 -0.1498  0.5867
   19MOL   C56611762   2.339   2.118   0.151 -0.6972 -0.1758  0.0991
   19MOL   C56711763   2.223   2.020   0.154  0.5307  0.5739  0.3078
   19MOL   C56811764   2.213   1.949   0.285 -0.0193 -0.2894  0.2968
   19MOL   C56911765   2.080   1.865   0.282  0.2162  0.0605 -0.5349
   19MOL   C57011766   2.891   1.864   7.549 -0.1041 -0.1053  0.1226
   19MOL   H57111767   2.888   1.697   7.683 -1.2757  0.0607  1.9965
   19MOL   H57211768   2.791   1.731   0.116 -0.6453 -0.2790  1.4530
   19MOL   H57311769   2.645   1.676   0.037  0.0770 -0.3813  1.3270
   19MOL   H57411770   2.693   1.934   0.206  0.7288  0.1410 -1.8532
   19MOL   H57511771   2.594   1.800   0.258 -1.2164  1.0736  0.8446
   19MOL   H57611772   2.511   1.931   7.768 -3.1404  0.9056 -0.3364
   19MOL   H57711773   2.420   1.843   0.104  0.4077 -0.6599  0.1682
   19MOL   H57811774   2.476   2.040   0.281 -0.7425  3.2428  1.1470
   19MOL   H57911775   2.551   2.126   0.149  1.8190 -2.3584 -0.7003
   19MOL   H58011776   2.318   2.209   0.206 -0.7951  0.4593 -0.9877
   19MOL   H58111777   2.344   2.163   0.052 -0.0227  0.7251  0.5344
   19MOL   H58211778   2.234   1.952   0.069 -0.1399  0.0553  0.6284
   19MOL   H58311779   2.134   2.080   0.136 -0.0610 -0.3250  0.1667
   19MOL   H58411780   2.302   1.887   0.301  0.9934  1.0493 -0.0799
   19MOL   H58511781   2.202   2.021   0.365  0.2569 -0.9342  0.9195
   19MOL   H58611782   2.081   1.796   0.198 -0.1348 -1.2959  0.5632
   19MOL   H58711783   1.985   1.916   0.295  1.7169  2.2520  2.4474
   19MOL   H58811784   2.084   1.809   0.375  0.4941  0.6969 -0.1606
   19MOL   H58911785   2.835   1.942   7.497 -2.3448 -0.4304  1.9674
   19MOL   H59011786   2.947   1.923   7.622  0.2098 -0.0511 -0.1598
   19MOL   C59111787   2.995   1.800   7.459  0.4930 -0.8004  0.1762
   19MOL   O59211788   3.113   1.785   7.550  0.6440 -0.4467  0.2788
   19MOL   C59311789   3.189   1.666   7.533  0.4879  0.6550 -0.3057
   19MOL   C59411790   3.310   1.683   7.624 -0.5069  0.2568 -0.2643
   19MOL   C59511791   3.427   1.774   7.576 -0.2164  0.4376  0.2410
   19MOL   C59611792   3.495   1.697   7.461 -0.2422  0.1351 -0.2224
   19MOL   C59711793   3.607   1.780   7.394 -0.6652  0.1282  0.0230
   19MOL   C59811794   3.715   1.721   7.307 -0.2515  0.4514 -0.0606
   19MOL   C59911795   3.659   1.611   7.220 -0.4228  0.2320 -0.4872
   19MOL   C60011796   3.780   1.531   7.153  0.7218  0.7494 -0.1072
   19MOL   C60111797   3.031   1.874   7.336  0.4821  0.0426 -0.0987
   19MOL   H60211798   2.953   1.703   7.434  1.2644 -1.2475  0.6088
   19MOL   H60311799   3.223   1.661   7.429  0.5773  3.9576 -0.4994
   19MOL   H60411800   3.131   1.575   7.547 -0.5705  1.3975  0.1851
   19MOL   H60511801   3.361   1.587   7.630  1.2280  1.1611 -0.2222
   19MOL   H60611802   3.277   1.704   7.725 -0.1918  1.3375 -0.3805
   19MOL   H60711803   3.399   1.875   7.547  2.0409  0.9702 -0.1358
   19MOL   H60811804   3.496   1.786   7.659  0.9736  0.6457 -0.7752
   19MOL   H60911805   3.542   1.612   7.511 -1.0044  0.2690  0.7277
   19MOL   H61011806   3.424   1.664   7.385 -2.1997  2.8872  0.3373
   19MOL   H61111807   3.561   1.855   7.330  0.9186  0.2405 -1.0078
   19MOL   H61211808   3.665   1.838   7.467  0.1462  0.0090 -0.5169
   19MOL   H61311809   3.790   1.684   7.377 -0.0060  2.8344  0.9709
   19MOL   H61411810   3.755   1.800   7.244  0.8225 -1.9176 -2.4802
   19MOL   H61511811   3.603   1.538   7.278  0.4635 -1.4027 -1.6231
   19MOL   H61611812   3.586   1.654   7.151 -1.4347  0.9417  1.0176
   19MOL   H61711813   3.735   1.435   7.126  1.8353  0.2584 -0.2460
   19MOL   H61811814   3.860   1.501   7.220 -0.0003 -4.9048 -1.5170
   19MOL   H61911815   3.816   1.557   7.053  0.5117 -1.1945 -0.7105
   19MOL   H62011816   3.096   1.822   7.266 -0.2139 -2.9187  1.4101
   19MOL   H62111817   2.951   1.915   7.274  0.7868  1.4978  0.4347
   19MOL   H62211818   3.086   1.958   7.379  0.4575  0.0169 -0.0167
   20MOL     C111819   1.974   4.555   3.628  0.2519 -0.1265 -0.2549
   20MOL     O211820   1.882   4.482   3.717 -0.5630 -0.5938  0.2985
   20MOL     C311821   1.747   4.511   3.704 -0.4032  0.5639 -0.3981
   20MOL     C411822   1.668   4.415   3.798 -0.0706 -0.3473 -0.1737
   20MOL     C511823   1.520   4.435   3.786 -0.6426 -0.3298 -0.3195
   20MOL     C611824   1.475   4.575   3.834  0.1434  0.4237 -0.9782
   20MOL     C711825   1.328   4.604   3.789 -0.1861  0.5368  0.1127
   20MOL     C811826   1.267   4.724   3.867  0.5102 -0.4780  0.4589
   20MOL     C911827   1.146   4.787   3.800  0.8262 -0.2442  0.7038
   20MOL    C1011828   1.194   4.864   3.670  0.3016 -0.0074  0.1712
   20MOL    C1111829   2.114   4.498   3.660  1.0129  0.0573 -0.4643
   20MOL    H1211830   1.949   4.540   3.523 -1.0353 -1.3561  0.2036
   20MOL    H1311831   1.719   4.487   3.602  0.6926  2.5151 -1.1716
   20MOL    H1411832   1.715   4.613   3.724 -0.1218  0.7808 -1.0634
   20MOL    H1511833   1.692   4.419   3.904 -1.3734 -3.3729  0.2706
   20MOL    H1611834   1.680   4.309   3.774  1.1528 -0.2900  0.1291
   20MOL    H1711835   1.503   4.439   3.678  0.5593  2.3006 -0.4531
   20MOL    H1811836   1.460   4.354   3.826 -0.1566 -0.1455  0.8122
   20MOL    H1911837   1.478   4.563   3.943 -1.2554  1.0182 -0.8592
   20MOL    H2011838   1.540   4.658   3.805 -1.4616  1.5987 -1.3215
   20MOL    H2111839   1.332   4.616   3.681 -1.2196 -2.2323 -0.2668
   20MOL    H2211840   1.271   4.512   3.801  1.5260 -0.6554 -0.6352
   20MOL    H2311841   1.350   4.791   3.889  1.2151 -0.8531 -1.0063
   20MOL    H2411842   1.243   4.689   3.968  1.5718 -1.5202  0.3660
   20MOL    H2511843   1.074   4.712   3.766  0.4524  1.3052 -2.0952
   20MOL    H2611844   1.099   4.854   3.871 -1.2135 -1.3124  0.4090
   20MOL    H2711845   1.102   4.915   3.639  1.2957  1.4072 -0.5503
   20MOL    H2811846   1.225   4.807   3.583 -0.9086 -0.4667  0.0346
   20MOL    H2911847   1.267   4.940   3.698  0.9892 -0.7802  0.4828
   20MOL    H3011848   2.148   4.507   3.763  0.2984  0.5790 -0.2685
   20MOL    H3111849   2.112   4.391   3.643  2.4305  0.1181 -1.1693
   20MOL    H3211850   1.973   4.660   3.655 -1.1901  0.0110 -0.8064
   20MOL    C3311851   2.230   4.554   3.568  0.4214  0.0458  0.7203
   20MOL    O3411852   2.258   4.698   3.580  0.0412  0.5622  0.2960
   20MOL    C3511853   2.348   4.730   3.689  0.3820  0.6144 -0.2156
   20MOL    C3611854   2.315   4.870   3.743  0.3244 -0.3908  0.3765
   20MOL    C3711855   2.389   4.897   3.872 -0.0908 -0.1994 -0.4454
   20MOL    C3811856   2.363   5.038   3.933  0.2254  0.3351  1.1087
   20MOL    C3911857   2.429   5.048   4.074  0.0961 -0.1342  0.4296
   20MOL    C4011858   2.415   5.185   4.153 -0.4623 -0.0753  0.1539
   20MOL    C4111859   2.512   5.296   4.104 -0.6685  1.0277 -0.0932
   20MOL    C4211860   2.667   5.254   4.107  0.2889  0.1533 -0.4884
   20MOL    C4311861   2.206   4.537   3.418 -0.2336  0.7675  0.1514
   20MOL    H4411862   2.327   4.512   3.596  1.0774  2.8945  2.9965
   20MOL    H4511863   2.452   4.722   3.661  0.4166 -1.1790  0.3447
   20MOL    H4611864   2.329   4.658   3.769  1.1174  1.1724  0.4708
   20MOL    H4711865   2.208   4.886   3.757  0.2963 -0.5357  0.3304
   20MOL    H4811866   2.357   4.942   3.673 -1.2092  0.0362 -0.1273
   20MOL    H4911867   2.370   4.822   3.949 -1.0125  1.5154  1.0361
   20MOL    H5011868   2.495   4.887   3.851 -0.1483 -1.5052 -0.2041
   20MOL    H5111869   2.397   5.117   3.866  1.3078 -2.7163 -2.0845
   20MOL    H5211870   2.254   5.036   3.939  0.1715 -2.3484  0.1672
   20MOL    H5311871   2.385   4.972   4.139  2.2943 -0.7097  1.2893
   20MOL    H5411872   2.535   5.028   4.060 -0.0612 -0.0501 -0.9612
   20MOL    H5511873   2.436   5.163   4.257  0.3118  0.7037  0.1641
   20MOL    H5611874   2.312   5.220   4.142 -0.3270  0.0590 -0.7905
   20MOL    H5711875   2.484   5.314   4.000 -0.7041 -1.3996 -0.5502
   20MOL    H5811876   2.502   5.390   4.158 -2.6298 -0.1682  1.6996
   20MOL    H5911877   2.689   5.206   4.202  1.1470 -0.3434 -0.9274
   20MOL    H6011878   2.730   5.344   4.100 -1.4471  1.4151 -0.2307
   20MOL    H6111879   2.691   5.201   4.015 -0.2905  2.7464 -2.2013
   20MOL    H6211880   2.117   4.596   3.396 -0.4999  0.6627  0.9122
   20MOL    H6311881   2.289   4.584   3.366 -1.1536  0.9003 -1.2056
   20MOL    C6411882   2.202   4.392   3.366 -0.3937 -0.1354  0.4711
   20MOL    O6511883   2.332   4.333   3.380 -0.1439 -0.0914 -0.4126
   20MOL    C6611884   2.348   4.241   3.489  0.4088  0.0949  0.7390
   20MOL    C6711885   2.500   4.241   3.534 -0.1493 -0.1333 -0.4010
   20MOL    C6811886   2.532   4.346   3.635  0.2677  0.5877  0.1363
   20MOL    C6911887   2.675   4.335   3.696 -0.3037 -1.2307 -0.2177
   20MOL    C7011888   2.787   4.300   3.599 -1.2035 -0.2714 -0.5513
   20MOL    C7111889   2.919   4.293   3.678  1.1397  0.4041 -0.2309
   20MOL    C7211890   3.040   4.259   3.591  0.3173 -0.1455 -0.0977
   20MOL    C7311891   3.172   4.285   3.656  0.0079  0.6412 -0.2299
   20MOL    C7411892   2.178   4.382   3.214  0.2803 -0.3254 -0.0685
   20MOL    H7511893   2.136   4.318   3.410  0.2615 -0.4101  1.0019
   20MOL    H7611894   2.323   4.141   3.452  0.3992  0.7462 -1.0432
   20MOL    H7711895   2.283   4.255   3.575 -1.7498  0.0686 -0.8449
   20MOL    H7811896   2.564   4.247   3.446 -1.6419 -0.2101 -1.5088
   20MOL    H7911897   2.523   4.144   3.579  0.7362  0.2073 -0.1184
   20MOL    H8011898   2.522   4.445   3.590 -0.2078  0.5577  0.1726
   20MOL    H8111899   2.455   4.337   3.711  0.3893 -0.0874  0.1845
   20MOL    H8211900   2.695   4.438   3.727 -0.9278 -0.7856 -1.2468
   20MOL    H8311901   2.668   4.269   3.782 -1.0181  0.3923  1.0051
   20MOL    H8411902   2.780   4.204   3.548  0.1579 -0.0842 -1.1202
   20MOL    H8511903   2.795   4.373   3.520 -2.5691  0.2010 -0.2665
   20MOL    H8611904   2.909   4.220   3.758 -0.3972  0.4089 -0.4025
   20MOL    H8711905   2.941   4.383   3.735 -1.0297  1.2376 -0.6447
   20MOL    H8811906   3.032   4.153   3.567  3.1555 -0.3427 -0.3567
   20MOL    H8911907   3.027   4.310   3.496  1.1412 -1.4052 -0.9131
   20MOL    H9011908   3.172   4.250   3.759  0.6330  2.1710  0.3081
   20MOL    H9111909   3.187   4.393   3.664 -2.0826  0.9699 -0.4360
   20MOL    H9211910   3.254   4.229   3.610 -1.7052 -0.9125 -1.4776
   20MOL    H9311911   2.233   4.462   3.166 -1.6684  0.2859 -1.3575
   20MOL    H9411912   2.222   4.286   3.184  0.8847 -0.0221 -0.1586
   20MOL    C9511913   2.039   4.397   3.163  0.7676 -0.4800  0.3627
   20MOL    O9611914   1.952   4.286   3.200 -0.1526  0.2963 -0.3466
   20MOL    C9711915   1.823   4.327   3.241  0.2668 -0.1041 -0.3909
   20MOL    C9811916   1.742   4.218   3.311 -0.4282 -0.0870  0.5156
   20MOL    C9911917   1.795   4.179   3.455  0.2217  0.0373  0.7591
   20MOL   C10011918   1.723   4.052   3.515 -0.4166  0.0982  0.3928
   20MOL   C10111919   1.593   4.076   3.589 -0.3492  0.0241  0.1060
   20MOL   C10211920   1.511   3.945   3.607 -0.1630 -0.3122  0.0841
   20MOL   C10311921   1.443   3.892   3.477 -0.2021  0.6781  0.3492
   20MOL   C10411922   1.350   3.984   3.399 -0.1768 -0.7278  0.1218
   20MOL   C10511923   2.049   4.416   3.000  0.1522 -0.2178 -0.1496
   20MOL   H10611924   1.994   4.488   3.203 -0.1028 -1.3411  1.4045
   20MOL   H10711925   1.769   4.357   3.152  0.2807 -0.1595 -0.4182
   20MOL   H10811926   1.831   4.406   3.316  1.5081 -0.6113  0.0340
   20MOL   H10911927   1.741   4.137   3.238  3.5213  0.7151 -0.5558
   20MOL   H11011928   1.636   4.244   3.314 -0.7834 -1.5419  1.2963
   20MOL   H11111929   1.901   4.165   3.433  0.5613  1.4805  1.4276
   20MOL   H11211930   1.804   4.265   3.521  1.5380 -0.1488  0.8292
   20MOL   H11311931   1.694   3.983   3.435 -1.3854 -0.5667  1.3105
   20MOL   H11411932   1.803   4.009   3.576  0.4737  0.7359 -0.3181
   20MOL   H11511933   1.629   4.121   3.682  0.5583  1.5135 -0.9457
   20MOL   H11611934   1.532   4.158   3.552 -3.0787 -1.7168  0.5921
   20MOL   H11711935   1.433   3.966   3.681 -0.5487  0.6658 -0.5919
   20MOL   H11811936   1.571   3.873   3.663  0.9727 -0.2945 -1.1167
   20MOL   H11911937   1.520   3.849   3.414 -1.4555 -1.0674 -0.0352
   20MOL   H12011938   1.376   3.816   3.518  0.0856  0.0097 -0.4069
   20MOL   H12111939   1.282   3.920   3.344 -1.3814 -0.7666  1.6198
   20MOL   H12211940   1.401   4.055   3.334  3.3842 -3.3826 -0.1214
   20MOL   H12311941   1.289   4.036   3.473  3.1572  0.5718  2.1185
   20MOL   H12411942   1.942   4.424   2.982 -0.1414  2.1727  2.3939
   20MOL   H12511943   2.100   4.510   2.980  1.7056 -1.1214 -0.5087
   20MOL   C12611944   2.113   4.307   2.916 -0.1872 -0.1008  0.0369
   20MOL   O12711945   2.251   4.305   2.932 -0.2473 -0.2401  0.8500
   20MOL   C12811946   2.321   4.194   2.876  0.3931  0.0996  0.1216
   20MOL   C12911947   2.475   4.195   2.896  0.4542  0.0644 -0.0864
   20MOL   C13011948   2.524   4.158   3.044 -0.0713  0.2237  0.0249
   20MOL   C13111949   2.671   4.186   3.071 -0.6955  0.3887  0.0606
   20MOL   C13211950   2.718   4.131   3.214 -1.0023  0.6229  0.6477
   20MOL   C13311951   2.866   4.170   3.254  0.7389  0.7026  0.5418
   20MOL   C13411952   2.971   4.079   3.183 -0.4284 -0.3030  0.2239
   20MOL   C13511953   3.118   4.116   3.194 -0.0028  0.0358 -0.1216
   20MOL   C13611954   2.069   4.319   2.765  0.1329 -0.1832 -0.5365
   20MOL   H13711955   2.078   4.208   2.947 -1.7764  0.6888  0.8021
   20MOL   H13811956   2.309   4.183   2.768  0.0128  0.5105  0.1225
   20MOL   H13911957   2.281   4.099   2.913  2.8914 -1.5435 -1.2598
   20MOL   H14011958   2.535   4.283   2.871  0.4143  0.3732  0.8935
   20MOL   H14111959   2.516   4.118   2.830  1.4490  0.4848  0.0214
   20MOL   H14211960   2.466   4.217   3.115  0.5654 -0.8537  1.4660
   20MOL   H14311961   2.503   4.057   3.076 -1.7985  0.1322 -1.3302
   20MOL   H14411962   2.725   4.154   2.981  0.5938  2.1191  0.1967
   20MOL   H14511963   2.678   4.293   3.088  1.3705  0.0825  1.3974
   20MOL   H14611964   2.649   4.165   3.292 -0.1197  2.0325  0.8278
   20MOL   H14711965   2.705   4.023   3.221  3.3351 -0.0602 -0.4759
   20MOL   H14811966   2.878   4.148   3.360 -1.2818 -2.6526  0.1691
   20MOL   H14911967   2.880   4.276   3.234 -0.6350  0.7000 -0.5365
   20MOL   H15011968   2.954   3.978   3.220 -1.5672 -0.3195 -0.3166
   20MOL   H15111969   2.943   4.070   3.079 -0.2471  0.7277  0.0781
   20MOL   H15211970   3.144   4.126   3.300 -0.3304 -4.3862  0.4640
   20MOL   H15311971   3.157   4.209   3.152  2.1621 -1.1959 -0.9154
   20MOL   H15411972   3.174   4.036   3.146  1.2367  0.4966  0.5364
   20MOL   H15511973   2.118   4.242   2.705 -0.5085 -0.7808 -0.2925
   20MOL   H15611974   1.962   4.298   2.760  0.0591  0.4444 -1.8596
   20MOL   C15711975   2.097   4.457   2.693  0.9935  0.4945 -0.3088
   20MOL   O15811976   2.045   4.440   2.563 -0.2267  0.4047  0.1582
   20MOL   C15911977   1.907   4.480   2.540  0.1416  0.6063  0.0874
   20MOL   C16011978   1.849   4.440   2.404  0.7862 -0.7445 -0.5583
   20MOL   C16111979   1.728   4.524   2.360  0.2012  0.1625 -0.3916
   20MOL   C16211980   1.647   4.462   2.244  0.8076 -1.1163 -0.5168
   20MOL   C16311981   1.726   4.451   2.120  0.5127  0.0302 -0.3099
   20MOL   C16411982   1.784   4.580   2.045  0.1962  0.0559 -0.7393
   20MOL   C16511983   1.697   4.704   2.051  0.5386  0.4636  0.2551
   20MOL   C16611984   1.751   4.810   1.958 -0.1525  0.4574  0.1287
   20MOL   C16711985   2.247   4.488   2.675  0.1329  0.0506 -0.9623
   20MOL   H16811986   2.049   4.546   2.735 -0.3479 -0.1383 -0.4836
   20MOL   H16911987   1.895   4.585   2.565 -0.8082  0.1787  1.5641
   20MOL   H17011988   1.841   4.449   2.622 -0.6494 -2.4738 -1.6195
   20MOL   H17111989   1.816   4.336   2.401 -0.3654 -0.4010 -0.1926
   20MOL   H17211990   1.929   4.440   2.330  0.6672 -0.4392 -0.6869
   20MOL   H17311991   1.672   4.529   2.453 -0.1024  1.6189 -0.6437
   20MOL   H17411992   1.760   4.621   2.322  1.6703  1.0415  2.8996
   20MOL   H17511993   1.623   4.362   2.279 -2.2971  0.6176  2.7310
   20MOL   H17611994   1.552   4.512   2.225  0.6813 -0.9784  0.4533
   20MOL   H17711995   1.803   4.375   2.128  0.3834 -0.3701 -2.5117
   20MOL   H17811996   1.652   4.409   2.051 -1.4342  0.9906  1.1414
   20MOL   H17911997   1.798   4.547   1.942  0.0132 -1.1246 -0.3922
   20MOL   H18011998   1.882   4.605   2.087 -0.2919  1.7136 -0.5473
   20MOL   H18111999   1.594   4.690   2.017  0.4488  3.0506 -0.6130
   20MOL   H18212000   1.683   4.747   2.150  0.9043 -1.9683  1.4195
   20MOL   H18312001   1.850   4.843   1.988  1.9216 -3.8672 -1.5784
   20MOL   H18412002   1.686   4.897   1.966  0.3624  1.0905 -2.0730
   20MOL   H18512003   1.742   4.774   1.855 -0.1965  1.5416 -0.2634
   20MOL   H18612004   2.301   4.483   2.770  1.5284  3.8893 -1.4444
   20MOL   H18712005   2.289   4.409   2.612 -2.1113 -0.6625 -1.5922
   20MOL   C18812006   2.282   4.619   2.607 -0.6814  1.0699  0.1284
   20MOL   O18912007   2.235   4.728   2.694  0.0313 -0.3471 -0.3917
   20MOL   C19012008   2.287   4.740   2.824 -0.3722 -0.3663  0.2485
   20MOL   C19112009   2.437   4.769   2.832 -0.6121  1.0082 -0.3567
   20MOL   C19212010   2.483   4.797   2.981  0.2609 -1.0483 -0.8926
   20MOL   C19312011   2.629   4.845   2.994  0.8433 -0.0213 -0.3927
   20MOL   C19412012   2.663   4.879   3.145 -0.5891 -0.9113  0.4988
   20MOL   C19512013   2.685   4.751   3.234 -0.1875 -0.4491  0.2838
   20MOL   C19612014   2.663   4.771   3.381 -1.1279  0.3229  0.3617
   20MOL   C19712015   2.710   4.667   3.480 -0.3261  0.6178 -0.3693
   20MOL   C19812016   2.228   4.645   2.463  0.5459 -0.1032  0.2590
   20MOL   H19912017   2.391   4.620   2.614 -0.7394  2.3491  1.1779
   20MOL   H20012018   2.238   4.824   2.872  0.3520  0.8611 -1.1322
   20MOL   H20112019   2.263   4.647   2.876 -2.5528 -0.9656 -1.7720
   20MOL   H20212020   2.461   4.852   2.766 -0.2317  2.1308  1.1578
   20MOL   H20312021   2.497   4.684   2.798 -1.4403 -0.0968  0.8752
   20MOL   H20412022   2.418   4.879   3.013  2.0654  0.0254  0.0897
   20MOL   H20512023   2.468   4.705   3.038 -0.5091  0.5612  1.6274
   20MOL   H20612024   2.705   4.775   2.959  2.9066  1.9983 -0.1260
   20MOL   H20712025   2.636   4.938   2.938 -1.0251  1.9171  2.4934
   20MOL   H20812026   2.748   4.947   3.145 -0.0920 -1.5312 -0.2588
   20MOL   H20912027   2.574   4.931   3.181 -0.8545 -1.5184  0.7141
   20MOL   H21012028   2.784   4.710   3.213  0.3453  0.8369  0.2147
   20MOL   H21112029   2.608   4.680   3.208 -1.0104  0.5305 -0.0011
   20MOL   H21212030   2.715   4.864   3.405 -1.9246  0.8732 -0.0323
   20MOL   H21312031   2.556   4.787   3.398 -1.8843 -2.3718 -1.4695
   20MOL   H21412032   2.814   4.635   3.477 -0.9663 -1.7466  1.3029
   20MOL   H21512033   2.650   4.583   3.446 -1.4056  1.0363  0.4487
   20MOL   H21612034   2.684   4.686   3.585  0.7003  1.7047 -0.3073
   20MOL   H21712035   2.267   4.573   2.392 -0.3770 -1.1437  0.7955
   20MOL   H21812036   2.120   4.648   2.448  0.8568  2.0809 -1.9074
   20MOL   C21912037   2.274   4.780   2.408  0.6256  0.0857 -0.3985
   20MOL   O22012038   2.203   4.813   2.291 -0.4725  0.5440 -0.2507
   20MOL   C22112039   2.078   4.870   2.299  0.3874  0.4934 -0.5154
   20MOL   C22212040   2.091   5.018   2.328  0.5243  0.0116  0.3001
   20MOL   C22312041   1.967   5.100   2.289  0.6988 -0.7788 -0.3474
   20MOL   C22412042   1.987   5.252   2.287 -0.3630  0.4305  0.1283
   20MOL   C22512043   1.870   5.327   2.226 -0.4808 -0.5984  0.1495
   20MOL   C22612044   1.888   5.477   2.248  0.1645 -0.2705 -0.7699
   20MOL   C22712045   1.771   5.562   2.204  0.5536 -0.1025  0.2564
   20MOL   C22812046   1.791   5.713   2.203 -0.5184  0.0199 -0.0657
   20MOL   C22912047   2.420   4.789   2.371 -0.2551  1.0043  0.3883
   20MOL   H23012048   2.236   4.853   2.480  3.8209  0.9369  0.4789
   20MOL   H23112049   2.011   4.814   2.364  1.8305 -0.1633  0.4195
   20MOL   H23212050   2.034   4.861   2.200  1.0650  2.7575 -1.0623
   20MOL   H23312051   2.158   5.057   2.251 -0.7769 -1.7063 -1.7831
   20MOL   H23412052   2.123   5.040   2.430  1.6999 -0.7919  0.1248
   20MOL   H23512053   1.923   5.073   2.193 -0.2915  0.3577 -0.2195
   20MOL   H23612054   1.896   5.076   2.368  0.2046 -2.1681 -1.1910
   20MOL   H23712055   2.023   5.278   2.387 -2.9432  2.0821  0.6905
   20MOL   H23812056   2.077   5.265   2.227  1.1347 -2.5335  1.6781
   20MOL   H23912057   1.867   5.323   2.117  0.4182  0.4448  0.0803
   20MOL   H24012058   1.781   5.293   2.280 -1.3250  0.0502 -0.8083
   20MOL   H24112059   1.979   5.504   2.195 -0.2012 -0.1926 -1.3550
   20MOL   H24212060   1.907   5.501   2.353  0.1098  1.5074 -1.1465
   20MOL   H24312061   1.732   5.523   2.110  0.7280  2.2993 -0.8311
   20MOL   H24412062   1.687   5.547   2.273  0.2317  0.4987 -0.0090
   20MOL   H24512063   1.702   5.759   2.159  0.3214  1.0804 -0.6867
   20MOL   H24612064   1.875   5.726   2.135 -0.6138 -2.2392 -0.6452
   20MOL   H24712065   1.818   5.756   2.300 -1.3036  1.3000 -0.4010
   20MOL   H24812066   2.493   4.731   2.427  0.4616  0.1622 -1.3713
   20MOL   H24912067   2.415   4.735   2.276 -0.7409  1.2548  0.2691
   20MOL   C25012068   2.457   4.937   2.358 -0.7572  0.2411 -0.6789
   20MOL   O25112069   2.587   4.935   2.289  0.4767  0.8922  0.2625
   20MOL   C25212070   2.581   4.921   2.151  0.4175 -0.5122 -0.0203
   20MOL   C25312071   2.717   4.872   2.107  0.3744 -0.3648 -0.2473
   20MOL   C25412072   2.716   4.806   1.971  0.1791  0.1618  0.3497
   20MOL   C25512073   2.719   4.886   1.845 -0.6511  0.2036 -0.5621
   20MOL   C25612074   2.756   4.801   1.723 -1.0685 -0.2256 -0.4055
   20MOL   C25712075   2.723   4.861   1.585  0.5740  0.2701  1.4969
   20MOL   C25812076   2.756   4.781   1.455 -0.1411  0.1297  0.5147
   20MOL   C25912077   2.697   4.848   1.329  0.5437  0.0394  0.3484
   20MOL   C26012078   2.475   5.014   2.487 -0.3390 -0.0589 -0.3865
   20MOL   H26112079   2.385   4.988   2.295 -1.9209  0.6214  0.9238
   20MOL   H26212080   2.556   5.018   2.106 -2.0258 -1.2688 -0.3310
   20MOL   H26312081   2.503   4.855   2.114 -0.2910  0.2558  0.0864
   20MOL   H26412082   2.765   4.798   2.170  0.9913  0.6644  0.5080
   20MOL   H26512083   2.787   4.956   2.100  1.2307 -1.2081 -2.4696
   20MOL   H26612084   2.807   4.746   1.959  1.1481  1.8093 -0.7478
   20MOL   H26712085   2.625   4.746   1.967 -0.6148  1.4551 -1.5185
   20MOL   H26812086   2.617   4.915   1.822  0.1337  1.9151 -1.9606
   20MOL   H26912087   2.782   4.974   1.858 -0.9946  0.2969  0.5113
   20MOL   H27012088   2.864   4.788   1.730 -1.3457 -2.2882  0.3701
   20MOL   H27112089   2.701   4.707   1.726 -1.7459  0.2131  1.2697
   20MOL   H27212090   2.787   4.948   1.565  1.5489 -0.9010 -0.6134
   20MOL   H27312091   2.622   4.901   1.582 -0.0828 -1.5067 -1.3875
   20MOL   H27412092   2.865   4.780   1.460 -0.1160  1.4374  0.3545
   20MOL   H27512093   2.712   4.683   1.470 -0.7162  0.2370 -0.4622
   20MOL   H27612094   2.724   4.952   1.315 -0.5098  0.2469 -0.1586
   20MOL   H27712095   2.589   4.838   1.343  0.5701 -0.9792 -0.0796
   20MOL   H27812096   2.728   4.789   1.243 -0.2659  0.9169 -0.5564
   20MOL   H27912097   2.374   5.027   2.525 -0.3497  1.7644 -0.9925
   20MOL   H28012098   2.533   4.950   2.553 -3.6147 -3.1703 -0.3897
   20MOL   C28112099   2.528   5.160   2.477  0.2840 -0.0144 -0.4581
   20MOL   O28212100   2.568   5.203   2.610 -0.0221  0.0272  0.0167
   20MOL   C28312101   2.675   5.298   2.623  0.3911 -0.8917 -0.0181
   20MOL   C28412102   2.730   5.288   2.765 -0.1214 -0.1905 -1.0055
   20MOL   C28512103   2.806   5.148   2.783 -0.3864  0.6652 -0.2628
   20MOL   C28612104   2.879   5.127   2.924 -0.7079 -0.8761 -0.2829
   20MOL   C28712105   3.001   5.216   2.945 -0.2121  0.6474 -0.2837
   20MOL   C28812106   3.081   5.174   3.069 -0.5517  0.3878  0.1606
   20MOL   C28912107   3.200   5.263   3.110 -0.2877  0.1990  0.6157
   20MOL   C29012108   3.319   5.239   3.022 -0.3669 -0.3050 -0.3497
   20MOL   C29112109   2.422   5.254   2.413 -0.2852  0.7409  0.1065
   20MOL   H29212110   2.619   5.150   2.417 -0.5728 -2.6668 -1.3772
   20MOL   H29312111   2.643   5.399   2.599  0.9914 -0.3137  1.5639
   20MOL   H29412112   2.749   5.250   2.558  0.2765 -0.6672 -0.3135
   20MOL   H29512113   2.645   5.299   2.832  1.1020  2.2061  0.2500
   20MOL   H29612114   2.796   5.373   2.783  2.1607 -1.6067 -2.3816
   20MOL   H29712115   2.736   5.065   2.770  0.5455 -0.2098  0.2510
   20MOL   H29812116   2.879   5.134   2.704 -0.0808  0.2651  0.0879
   20MOL   H29912117   2.806   5.155   3.000 -1.0414 -1.2639 -0.4609
   20MOL   H30012118   2.910   5.024   2.942 -0.5663 -0.5616  1.3167
   20MOL   H30112119   3.072   5.203   2.864  0.8076  1.6771  0.4259
   20MOL   H30212120   2.975   5.321   2.954 -1.3576  0.1978  2.0575
   20MOL   H30312121   3.108   5.070   3.050 -2.4247 -0.1708  0.4689
   20MOL   H30412122   3.003   5.165   3.144 -2.7818 -1.0090 -2.2570
   20MOL   H30512123   3.179   5.370   3.102 -1.6286 -0.1873 -1.4753
   20MOL   H30612124   3.209   5.245   3.217  1.9022  0.3321  0.4676
   20MOL   H30712125   3.301   5.249   2.915 -0.0743  2.2422 -0.2129
   20MOL   H30812126   3.376   5.151   3.051 -1.0696 -0.6684 -0.0714
   20MOL   H30912127   3.388   5.322   3.040 -1.7068  0.6515  0.5465
   20MOL   H31012128   2.376   5.202   2.329 -1.5256 -1.4480  2.0735
   20MOL   H31112129   2.353   5.256   2.497  0.7905 -0.5932  1.0558
   20MOL   C31212130   2.468   5.382   2.357  0.6934  1.0096 -0.8344
   20MOL   O31312131   2.384   5.485   2.411 -0.5399  1.3089 -0.4072
   20MOL   C31412132   2.446   5.612   2.427  0.0040 -0.1580 -0.1398
   20MOL   C31512133   2.337   5.679   2.515  0.1583 -0.0499  0.0798
   20MOL   C31612134   2.364   5.826   2.547 -0.5464  0.1892  0.2763
   20MOL   C31712135   2.260   5.883   2.647 -0.6212  0.4278  0.3962
   20MOL   C31812136   2.281   6.031   2.670 -0.9754  0.6098 -0.1392
   20MOL   C31912137   2.189   6.092   2.772 -0.3607 -0.0813  0.3918
   20MOL   C32012138   2.211   6.245   2.783  0.2593 -0.6990  0.1004
   20MOL   C32112139   2.105   6.297   2.895  0.3909 -0.4432  0.7292
   20MOL   C32212140   2.456   5.398   2.204  0.4353 -0.4885  0.0922
   20MOL   H32312141   2.569   5.403   2.391  1.3365 -0.8637 -1.5108
   20MOL   H32412142   2.461   5.673   2.337 -0.0337  0.1383  0.0552
   20MOL   H32512143   2.542   5.601   2.476 -0.4468 -1.1571  0.5258
   20MOL   H32612144   2.325   5.623   2.608  0.5287 -0.1794  0.0511
   20MOL   H32712145   2.248   5.684   2.453  0.4525 -0.3185 -0.3677
   20MOL   H32812146   2.462   5.841   2.593 -0.4725 -0.2615  0.2691
   20MOL   H32912147   2.350   5.886   2.457  1.2105  0.5970  0.2657
   20MOL   H33012148   2.167   5.851   2.602 -1.5208  1.1413  1.7214
   20MOL   H33112149   2.267   5.830   2.742  1.8242 -0.7832 -0.3985
   20MOL   H33212150   2.384   6.045   2.702 -0.7509 -2.6764  0.7754
   20MOL   H33312151   2.276   6.082   2.574  1.3011 -1.0092 -1.1601
   20MOL   H33412152   2.214   6.046   2.868 -0.3699 -1.1491 -0.1097
   20MOL   H33512153   2.083   6.080   2.747 -0.3850 -1.4871  1.0959
   20MOL   H33612154   2.312   6.266   2.818  0.2881 -2.7630  1.2946
   20MOL   H33712155   2.195   6.285   2.682 -1.9607 -2.0541 -0.1189
   20MOL   H33812156   2.133   6.388   2.947  0.3459 -0.1712  0.2848
   20MOL   H33912157   2.089   6.226   2.976 -0.6494  0.1776  1.0742
   20MOL   H34012158   2.011   6.317   2.842  0.2461  4.2725  2.5711
   20MOL   H34112159   2.355   5.367   2.176 -0.4641  3.3463 -1.1348
   20MOL   H34212160   2.448   5.505   2.191 -0.5850 -0.8226 -2.1907
   20MOL   C34312161   2.560   5.336   2.116 -0.0273 -0.3424  0.5235
   20MOL   O34412162   2.692   5.373   2.170  0.5554  0.2670  0.0218
   20MOL   C34512163   2.807   5.310   2.124  0.9615  0.6793 -0.0349
   20MOL   C34612164   2.923   5.360   2.208  0.1740 -0.1078  0.5359
   20MOL   C34712165   2.899   5.364   2.365  0.3924  0.4296 -0.1503
   20MOL   C34812166   3.021   5.427   2.437  0.1314  0.4691  0.1746
   20MOL   C34912167   3.000   5.445   2.587 -1.4500  0.1640  0.5996
   20MOL   C35012168   3.092   5.547   2.639 -0.1282 -0.2552 -0.2468
   20MOL   C35112169   3.092   5.569   2.796 -0.3130  0.3135  0.4687
   20MOL   C35212170   3.195   5.666   2.851 -0.1583  0.6237 -0.6226
   20MOL   C35312171   2.536   5.377   1.965  0.5540 -0.7943  0.5938
   20MOL   H35412172   2.550   5.228   2.119 -1.5287 -0.1891  1.8802
   20MOL   H35512173   2.829   5.331   2.019  0.0784 -1.5323 -0.6969
   20MOL   H35612174   2.808   5.201   2.131 -0.3586  0.5875 -1.0682
   20MOL   H35712175   2.957   5.460   2.183  0.2114 -0.5425 -1.2205
   20MOL   H35812176   3.012   5.310   2.172 -0.9920 -1.6260 -0.2838
   20MOL   H35912177   2.808   5.416   2.395 -0.7810 -1.4973 -0.2659
   20MOL   H36012178   2.885   5.263   2.403 -0.0095 -0.0123 -1.4276
   20MOL   H36112179   3.109   5.366   2.416 -1.4103 -1.5555 -0.5200
   20MOL   H36212180   3.038   5.527   2.397  0.3099 -0.1839 -1.4179
   20MOL   H36312181   2.895   5.468   2.606 -1.9326 -1.4521 -0.0446
   20MOL   H36412182   3.031   5.356   2.643 -1.3103 -1.5295 -2.0853
   20MOL   H36512183   3.076   5.637   2.581 -0.2197 -0.0722  0.0591
   20MOL   H36612184   3.195   5.521   2.611 -0.1892  0.2202 -0.9166
   20MOL   H36712185   2.990   5.599   2.822 -0.0745 -0.5914  2.4959
   20MOL   H36812186   3.107   5.471   2.841 -3.6039 -0.3470  0.3158
   20MOL   H36912187   3.187   5.764   2.805 -1.2861  0.6053 -0.4712
   20MOL   H37012188   3.296   5.626   2.856 -0.3950  0.1430  0.6099
   20MOL   H37112189   3.159   5.675   2.954 -0.5235 -0.0988 -0.6833
   20MOL   H37212190   2.464   5.459   1.962  0.0962 -1.2318 -0.3755
   20MOL   H37312191   2.618   5.431   1.917  0.6534 -0.2550  1.3621
   20MOL   C37412192   2.483   5.256   1.879 -0.2639 -0.4341 -0.4320
   20MOL   O37512193   2.493   5.301   1.744  0.5615  0.0210  0.3662
   20MOL   C37612194   2.604   5.248   1.667  0.2037 -1.0402 -0.0870
   20MOL   C37712195   2.580   5.278   1.515  1.4412  0.3810  0.6996
   20MOL   C37812196   2.454   5.199   1.462  0.2313  0.2615 -0.1227
   20MOL   C37912197   2.407   5.210   1.314  0.2113 -0.4995  0.5333
   20MOL   C38012198   2.514   5.161   1.215 -0.2465  0.0889  0.2497
   20MOL   C38112199   2.475   5.155   1.064 -0.4560  0.8143 -0.2869
   20MOL   C38212200   2.438   5.292   1.005  0.2459  0.1337 -0.7481
   20MOL   C38312201   2.437   5.295   0.853 -0.3287  0.2158  0.4147
   20MOL   C38412202   2.343   5.225   1.921 -0.5388  0.1268  0.0078
   20MOL   H38512203   2.557   5.177   1.889  0.8165  0.4114 -1.6315
   20MOL   H38612204   2.615   5.140   1.680 -1.5907 -1.4695 -1.8694
   20MOL   H38712205   2.695   5.297   1.701  0.4851 -1.3155 -0.4419
   20MOL   H38812206   2.669   5.255   1.456  0.7037 -0.5347 -0.0827
   20MOL   H38912207   2.555   5.381   1.489 -0.3587 -0.5567 -1.4777
   20MOL   H39012208   2.479   5.094   1.479 -0.1045  0.6158  2.8255
   20MOL   H39112209   2.371   5.218   1.531  0.5539 -1.1254  0.6623
   20MOL   H39212210   2.310   5.164   1.294 -0.3601  0.6898  0.5144
   20MOL   H39312211   2.379   5.314   1.300 -0.7728 -0.8782 -0.4170
   20MOL   H39412212   2.600   5.228   1.220  1.8672 -2.2795 -2.9020
   20MOL   H39512213   2.538   5.060   1.250 -3.3678 -0.5585  0.6452
   20MOL   H39612214   2.396   5.081   1.054 -0.0206  0.1499  1.1142
   20MOL   H39712215   2.563   5.116   1.012  0.3681  2.1958  0.0418
   20MOL   H39812216   2.349   5.336   1.051  1.0215  0.8840  0.0493
   20MOL   H39912217   2.518   5.361   1.031  1.0729 -1.2827  0.5756
   20MOL   H40012218   2.500   5.215   0.815 -2.8954  0.0493 -3.8169
   20MOL   H40112219   2.459   5.397   0.820 -1.6919  0.9047  1.5836
   20MOL   H40212220   2.335   5.279   0.818 -0.6906  1.5979  0.7900
   20MOL   H40312221   2.326   5.194   2.024  2.2814 -0.1175  0.4254
   20MOL   H40412222   2.277   5.309   1.899 -0.2672  0.3894  0.2014
   20MOL   C40512223   2.288   5.106   1.832  0.1399 -0.8346  1.2852
   20MOL   O40612224   2.150   5.116   1.802 -0.2596  0.2489  0.2292
   20MOL   C40712225   2.104   5.225   1.731 -0.5320 -0.3830 -0.7516
   20MOL   C40812226   1.957   5.214   1.698  0.8479  0.1847 -0.4507
   20MOL   C40912227   1.902   5.310   1.596  0.1154 -0.3106 -0.2665
   20MOL   C41012228   1.767   5.267   1.543  0.6990  0.3965 -0.1712
   20MOL   C41112229   1.713   5.376   1.451  0.0880  0.3354  0.5457
   20MOL   C41212230   1.565   5.370   1.413  0.0036  0.4771 -0.0096
   20MOL   C41312231   1.466   5.358   1.533  0.3597  0.2994 -0.2628
   20MOL   C41412232   1.491   5.467   1.643 -0.7035 -0.2556 -0.5765
   20MOL   C41512233   2.308   4.966   1.894 -0.0317  0.5152 -0.5657
   20MOL   H41612234   2.347   5.110   1.741  1.8702 -1.4658  2.3556
   20MOL   H41712235   2.155   5.235   1.636  0.1898  0.9160 -0.2351
   20MOL   H41812236   2.112   5.322   1.779  0.3880 -2.0124  2.5955
   20MOL   H41912237   1.917   5.220   1.799  1.1040  1.1924 -0.4027
   20MOL   H42012238   1.934   5.116   1.657 -0.4134  0.8217 -1.3077
   20MOL   H42112239   1.887   5.408   1.643 -1.2229 -0.5640 -0.1650
   20MOL   H42212240   1.974   5.327   1.515 -1.0287 -1.0394 -1.4450
   20MOL   H42312241   1.771   5.177   1.482  3.4967  1.2510 -1.3363
   20MOL   H42412242   1.695   5.248   1.623 -0.3308  1.2496 -0.8842
   20MOL   H42512243   1.742   5.475   1.485 -1.3514  1.0832 -0.3777
   20MOL   H42612244   1.755   5.366   1.350 -0.5418 -0.9372  0.4016
   20MOL   H42712245   1.539   5.286   1.349 -0.4974  0.9106 -0.3738
   20MOL   H42812246   1.544   5.466   1.366 -0.6068 -0.5917 -1.9611
   20MOL   H42912247   1.363   5.368   1.500 -0.0671 -0.4073  0.8196
   20MOL   H43012248   1.468   5.269   1.595 -1.1368  1.1204  1.0067
   20MOL   H43112249   1.575   5.437   1.705 -0.0976  0.7546 -0.8756
   20MOL   H43212250   1.405   5.480   1.708 -0.7614  0.6022 -0.8133
   20MOL   H43312251   1.504   5.568   1.604  2.1194 -0.0371  0.7892
   20MOL   H43412252   2.411   4.957   1.928 -0.3305 -2.3463 -0.2304
   20MOL   H43512253   2.247   4.958   1.984  2.3757 -0.2125  1.0436
   20MOL   C43612254   2.278   4.845   1.809 -0.0592 -0.3105 -0.0484
   20MOL   O43712255   2.320   4.732   1.873 -0.3749 -0.3546  0.1921
   20MOL   C43812256   2.218   4.652   1.937 -1.0259  0.3431  0.2089
   20MOL   C43912257   2.307   4.561   2.027  0.4482  0.1439 -0.9372
   20MOL   C44012258   2.222   4.465   2.112  0.1772 -0.2889 -0.0694
   20MOL   C44112259   2.307   4.356   2.179  0.4814 -0.0878 -0.6206
   20MOL   C44212260   2.221   4.273   2.288  0.0165  0.5919  0.4220
   20MOL   C44312261   2.314   4.165   2.342  0.2610  0.2404 -0.4513
   20MOL   C44412262   2.267   4.092   2.463 -0.1081 -0.2281 -0.1267
   20MOL   C44512263   2.290   3.936   2.466  0.3035  0.0513 -0.5277
   20MOL   C44612264   2.355   4.840   1.674  0.3532  0.2666 -0.4602
   20MOL   H44712265   2.175   4.860   1.779 -0.1390 -2.5937 -0.9930
   20MOL   H44812266   2.160   4.724   1.994 -3.8881 -0.1791 -1.9484
   20MOL   H44912267   2.156   4.593   1.870  0.7455  1.3591 -2.3775
   20MOL   H45012268   2.379   4.612   2.092 -1.3175  0.9129  0.4579
   20MOL   H45112269   2.371   4.511   1.955  0.0205 -0.3724 -0.9572
   20MOL   H45212270   2.170   4.516   2.193  0.0374 -0.2339 -0.1923
   20MOL   H45312271   2.140   4.423   2.054  0.4468  0.5453 -1.0702
   20MOL   H45412272   2.351   4.290   2.103 -0.2083 -0.5979 -0.5761
   20MOL   H45512273   2.396   4.395   2.229  0.7613 -1.3441 -0.1239
   20MOL   H45612274   2.209   4.346   2.369 -1.7220 -0.2595  0.9489
   20MOL   H45712275   2.130   4.224   2.256 -0.1578  0.3920  1.2131
   20MOL   H45812276   2.409   4.213   2.366  0.6135 -0.5340 -0.2559
   20MOL   H45912277   2.339   4.094   2.263  0.8201  0.0784 -0.1337
   20MOL   H46012278   2.312   4.133   2.553  0.8119  0.2165 -0.7812
   20MOL   H46112279   2.159   4.101   2.468  0.0636  0.9743  2.1424
   20MOL   H46212280   2.248   3.897   2.374  0.3971 -0.3888 -0.3859
   20MOL   H46312281   2.234   3.897   2.551 -1.7769  2.3559 -0.8107
   20MOL   H46412282   2.395   3.909   2.480  0.4875  1.2352  0.4609
   20MOL   H46512283   2.393   4.939   1.647  0.3390  0.2941 -0.3814
   20MOL   H46612284   2.445   4.781   1.688 -0.5429 -0.4080  2.9763
   20MOL   C46712285   2.275   4.790   1.554 -0.1152  1.1304 -0.2350
   20MOL   O46812286   2.365   4.726   1.458  0.0645 -0.1572 -0.7235
   20MOL   C46912287   2.376   4.585   1.466  0.6752 -0.8948  0.4801
   20MOL   C47012288   2.461   4.557   1.349  0.1217  0.0398  0.3873
   20MOL   C47112289   2.473   4.401   1.307  0.2727  0.0873  0.5951
   20MOL   C47212290   2.353   4.356   1.220 -0.0983 -0.1051  0.3272
   20MOL   C47312291   2.373   4.220   1.155  0.0305  0.3407  0.5791
   20MOL   C47412292   2.256   4.177   1.074  0.2521  0.1758 -0.1499
   20MOL   C47512293   2.287   4.034   1.015 -0.7374 -0.5137  0.4314
   20MOL   C47612294   2.366   4.032   0.883  0.2983 -0.8692  0.5248
   20MOL   C47712295   2.197   4.902   1.482 -0.3851  0.0709  0.0760
   20MOL   H47812296   2.208   4.715   1.596 -1.0452  1.2434 -1.4959
   20MOL   H47912297   2.280   4.541   1.438 -0.6754  2.3008 -0.1164
   20MOL   H48012298   2.421   4.548   1.558 -0.1576  1.4344  1.8735
   20MOL   H48112299   2.561   4.598   1.367  0.0203  0.6475 -0.4114
   20MOL   H48212300   2.427   4.613   1.262  4.1904  1.2248 -0.5839
   20MOL   H48312301   2.557   4.401   1.238  0.4150  0.3755  0.7699
   20MOL   H48412302   2.498   4.330   1.387 -0.3751  0.6638  1.3185
   20MOL   H48512303   2.267   4.355   1.286 -0.7706  2.6306 -0.4535
   20MOL   H48612304   2.323   4.429   1.145  0.0637  0.1629  0.5253
   20MOL   H48712305   2.471   4.208   1.110 -0.8891  0.6298 -1.5631
   20MOL   H48812306   2.374   4.145   1.235 -1.9598 -1.7613 -1.2888
   20MOL   H48912307   2.237   4.236   0.984  0.5633  1.4379  0.5871
   20MOL   H49012308   2.168   4.181   1.139  0.2039  0.7311 -0.2471
   20MOL   H49112309   2.328   3.971   1.093  1.0828  0.1846  0.0522
   20MOL   H49212310   2.194   3.982   0.992 -1.1868 -0.8308  2.9216
   20MOL   H49312311   2.315   4.093   0.808  3.3951 -1.1021 -1.8359
   20MOL   H49412312   2.374   3.927   0.857 -0.9340 -0.4277 -1.7089
   20MOL   H49512313   2.470   4.059   0.904  0.0194  0.7395 -0.1032
   20MOL   H49612314   2.164   4.970   1.560 -1.2604 -0.1619 -0.0790
   20MOL   H49712315   2.258   4.970   1.423 -0.5940 -1.4564 -1.9668
   20MOL   C49812316   2.071   4.859   1.410  0.2398  0.0655  0.5910
   20MOL   O49912317   2.029   4.951   1.315  1.2577  0.0188  0.3252
   20MOL   C50012318   2.100   4.948   1.191  0.0049 -0.2150  0.2901
   20MOL   C50112319   2.079   5.080   1.105  0.3455  0.0055 -0.7905
   20MOL   C50212320   1.944   5.067   1.034 -0.1623 -0.7404  0.3035
   20MOL   C50312321   1.903   5.192   0.953  0.1942  0.0294  0.4503
   20MOL   C50412322   1.995   5.229   0.825 -0.3283  0.6780 -0.1894
   20MOL   C50512323   1.950   5.352   0.743  0.4591  0.3565  0.4545
   20MOL   C50612324   1.962   5.482   0.816  0.1796 -0.2146 -0.6257
   20MOL   C50712325   1.923   5.605   0.735  0.0747 -0.9584  0.3610
   20MOL   C50812326   1.949   4.839   1.502  0.3946  0.2912  0.3782
   20MOL   H50912327   2.090   4.763   1.361 -0.4262 -0.2166  0.8676
   20MOL   H51012328   2.080   4.858   1.133 -0.7890  0.4153 -0.4079
   20MOL   H51112329   2.205   4.937   1.217 -0.4517  1.1877  2.8530
   20MOL   H51212330   2.160   5.095   1.034 -1.3639  2.2354 -2.3165
   20MOL   H51312331   2.086   5.162   1.176  1.0232 -1.9022  1.4156
   20MOL   H51412332   1.956   4.985   0.962  1.5388 -3.4935  3.5755
   20MOL   H51512333   1.867   5.041   1.106 -0.7482 -0.1328 -0.0939
   20MOL   H51612334   1.800   5.180   0.921  0.4411 -3.7690  0.8188
   20MOL   H51712335   1.897   5.274   1.025  0.7176  0.1089  0.4077
   20MOL   H51812336   2.102   5.241   0.842 -0.1257 -1.8502  0.4542
   20MOL   H51912337   1.990   5.152   0.748  1.6957 -0.9692  1.2534
   20MOL   H52012338   1.844   5.345   0.719  0.8856 -1.1109 -1.0863
   20MOL   H52112339   2.008   5.343   0.651  2.9674  0.4691  1.9823
   20MOL   H52212340   1.892   5.475   0.899 -1.2444 -1.7476 -1.9136
   20MOL   H52312341   2.066   5.492   0.848 -0.6296  1.5522  1.5466
   20MOL   H52412342   1.995   5.638   0.660  2.1659 -1.6961  2.0075
   20MOL   H52512343   1.902   5.689   0.801 -0.4364 -1.9979  1.5323
   20MOL   H52612344   1.823   5.586   0.695  0.2059 -1.2490  0.1740
   20MOL   H52712345   1.980   4.852   1.606 -0.5952 -2.8629  1.1292
   20MOL   H52812346   1.872   4.914   1.482 -1.4016 -1.4599  0.4576
   20MOL   C52912347   1.881   4.698   1.503 -0.4994 -0.4416 -0.1963
   20MOL   O53012348   1.962   4.594   1.565  0.0299  0.1606 -0.0072
   20MOL   C53112349   1.901   4.472   1.582  0.3937  0.3989  0.0786
   20MOL   C53212350   1.957   4.400   1.709  0.4972  0.2246  0.3505
   20MOL   C53312351   2.099   4.336   1.679  0.3099  0.1301 -0.4576
   20MOL   C53412352   2.152   4.253   1.794 -0.5139  0.4710  0.0215
   20MOL   C53512353   2.305   4.214   1.778 -0.1621  0.3942 -0.0438
   20MOL   C53612354   2.353   4.108   1.877  0.0483 -0.0889 -0.2952
   20MOL   C53712355   2.504   4.085   1.870  0.1165  0.4768 -0.6716
   20MOL   C53812356   2.567   4.035   2.002  0.7177 -0.1508  0.2500
   20MOL   C53912357   1.835   4.660   1.359 -0.2828  0.2788 -0.9206
   20MOL   H54012358   1.788   4.708   1.558  0.0123  0.2298  0.5588
   20MOL   H54112359   1.795   4.485   1.603  0.2267 -0.1634 -0.4258
   20MOL   H54212360   1.912   4.405   1.497  1.0016  0.5724  0.0130
   20MOL   H54312361   1.877   4.337   1.750 -2.6166  3.1839 -0.8559
   20MOL   H54412362   1.964   4.467   1.795  1.2459  0.1511  0.3488
   20MOL   H54512363   2.093   4.267   1.594  1.6086 -0.3291 -0.1799
   20MOL   H54612364   2.159   4.419   1.640  0.2216 -0.5180 -2.0155
   20MOL   H54712365   2.138   4.295   1.893  1.0369  0.0314  0.4358
   20MOL   H54812366   2.096   4.159   1.797  0.9686 -0.7031 -4.9973
   20MOL   H54912367   2.331   4.180   1.678 -0.3044  0.3286 -0.0597
   20MOL   H55012368   2.370   4.296   1.808  2.4038 -2.7795  3.6058
   20MOL   H55112369   2.303   4.016   1.849  0.4427  0.0035 -1.3272
   20MOL   H55212370   2.326   4.147   1.976 -1.7538  0.2504 -0.9122
   20MOL   H55312371   2.532   4.020   1.787 -0.3007 -1.4525  0.6520
   20MOL   H55412372   2.551   4.180   1.844 -2.3019  1.2997 -2.1691
   20MOL   H55512373   2.523   3.937   2.024  0.7822 -0.0217  0.9589
   20MOL   H55612374   2.562   4.102   2.088  0.6451  1.5858 -1.0996
   20MOL   H55712375   2.667   4.003   1.975  0.2801 -0.8430 -0.5887
   20MOL   H55812376   1.925   4.626   1.307  2.2646  1.8136  2.2941
   20MOL   H55912377   1.774   4.570   1.359  0.3857 -0.2037  0.9704
   20MOL   C56012378   1.758   4.771   1.283 -0.2674 -0.4691 -0.2411
   20MOL   O56112379   1.633   4.814   1.350  0.3339 -0.0621  0.0451
   20MOL   C56212380   1.586   4.945   1.309  0.4267 -0.2738 -0.5799
   20MOL   C56312381   1.457   4.976   1.379  0.4774 -0.1904  0.2202
   20MOL   C56412382   1.476   4.991   1.529 -0.1035 -0.0031  0.3256
   20MOL   C56512383   1.346   5.006   1.595 -0.0142 -0.1437  0.3818
   20MOL   C56612384   1.359   5.039   1.747 -0.0983  0.3252  0.0321
   20MOL   C56712385   1.232   5.004   1.819 -0.5771  0.3844  0.1700
   20MOL   C56812386   1.127   5.115   1.818 -0.3382 -0.0281  0.3274
   20MOL   C56912387   1.003   5.072   1.896  0.2289 -0.4235  0.1072
   20MOL   C57012388   1.729   4.744   1.133 -0.2869 -0.3336 -0.2193
   20MOL   H57112389   1.823   4.858   1.276 -0.1166 -0.4344  1.4014
   20MOL   H57212390   1.572   4.951   1.201 -0.8140 -1.7662 -0.5262
   20MOL   H57312391   1.660   5.017   1.343  0.2432 -0.4267  0.1593
   20MOL   H57412392   1.395   4.890   1.352  1.1569 -0.4512 -0.5166
   20MOL   H57512393   1.413   5.072   1.349 -2.0607 -1.4098 -0.0824
   20MOL   H57612394   1.515   4.895   1.560 -0.0270 -0.9403 -2.5406
   20MOL   H57712395   1.549   5.068   1.556  0.4732  0.3552 -2.1087
   20MOL   H57812396   1.283   5.089   1.563  0.2570 -0.6039 -1.4089
   20MOL   H57912397   1.292   4.912   1.587 -1.2739  0.3711  2.6579
   20MOL   H58012398   1.441   4.972   1.773 -0.0625  1.0226  1.7614
   20MOL   H58112399   1.392   5.141   1.765  2.1473 -0.2169 -0.8428
   20MOL   H58212400   1.259   5.007   1.925  1.2637 -1.4571 -0.2074
   20MOL   H58312401   1.198   4.906   1.783 -0.0283  0.9151 -1.8323
   20MOL   H58412402   1.162   5.210   1.858 -3.1948  0.4466  1.7451
   20MOL   H58512403   1.089   5.134   1.717 -0.7688 -1.0979  0.2832
   20MOL   H58612404   0.950   4.983   1.863 -1.8882  0.1933  1.6949
   20MOL   H58712405   0.928   5.152   1.892 -0.5176 -1.1619 -0.9692
   20MOL   H58812406   1.025   5.069   2.003  1.2704  0.1398 -0.0899
   20MOL   H58912407   1.723   4.842   1.084 -0.1273  0.4391  1.2645
   20MOL   H59012408   1.820   4.703   1.089 -0.0694 -1.9599  1.6990
   20MOL   C59112409   1.607   4.662   1.082  0.1436 -0.5499 -0.4045
   20MOL   O59212410   1.634   4.531   1.134 -0.2909  0.1818 -0.0786
   20MOL   C59312411   1.543   4.423   1.114  0.0133 -0.0496  0.3884
   20MOL   C59412412   1.589   4.312   1.209  0.3173  0.2692 -0.8686
   20MOL   C59512413   1.734   4.260   1.194  0.3007 -0.7132 -0.5391
   20MOL   C59612414   1.775   4.159   1.301 -0.1341  0.6380  0.5140
   20MOL   C59712415   1.911   4.103   1.273 -0.8173  0.8542 -0.0883
   20MOL   C59812416   1.984   4.037   1.398  0.6281  0.2067 -0.6843
   20MOL   C59912417   2.130   4.014   1.374  0.3066  0.0513  0.3871
   20MOL   C60012418   2.200   3.977   1.510  0.1483  0.0648  0.3591
   20MOL   C60112419   1.588   4.664   0.929 -0.5257  0.5795  1.0636
   20MOL   H60212420   1.523   4.709   1.133 -0.1056 -1.0063 -0.3889
   20MOL   H60312421   1.544   4.399   1.007  2.2680 -1.8119  0.7620
   20MOL   H60412422   1.445   4.463   1.140 -1.2447 -1.5890 -1.7677
   20MOL   H60512423   1.531   4.220   1.195  2.3373 -1.3472  1.0748
   20MOL   H60612424   1.574   4.351   1.310 -1.1160 -1.6212 -0.3061
   20MOL   H60712425   1.731   4.209   1.097  0.0551  0.6498 -1.2558
   20MOL   H60812426   1.811   4.337   1.185 -0.9982  0.7942  0.9812
   20MOL   H60912427   1.779   4.199   1.401 -0.1854  1.2830  0.2569
   20MOL   H61012428   1.709   4.073   1.311 -0.1535  0.4600 -0.9997
   20MOL   H61112429   1.917   4.047   1.179  1.9073 -0.5497  0.8935
   20MOL   H61212430   1.981   4.183   1.249 -0.3990  0.6025  0.2862
   20MOL   H61312431   1.938   3.947   1.438 -0.6403  0.9001 -0.5634
   20MOL   H61412432   1.969   4.113   1.475 -1.4851 -2.1997  1.3539
   20MOL   H61512433   2.141   3.931   1.304  0.1790 -0.5291  1.0446
   20MOL   H61612434   2.168   4.105   1.328  1.5377  0.2603  1.7873
   20MOL   H61712435   2.308   3.986   1.499 -0.0421  0.8691 -1.0238
   20MOL   H61812436   2.177   3.876   1.543  1.5666  0.3207  2.2175
   20MOL   H61912437   2.177   4.039   1.597  0.4234  0.9188 -0.1606
   20MOL   H62012438   1.558   4.765   0.901 -2.7176 -0.1331  0.7086
   20MOL   H62112439   1.677   4.622   0.882  0.4644  3.7502 -0.0306
   20MOL   H62212440   1.496   4.612   0.902  1.1698 -2.1209  0.2469
   21MOL     C112441   7.711   1.066   2.017  0.3057 -0.2739  0.4693
   21MOL     O212442   7.687   1.141   1.894 -0.1610 -0.3622 -0.3667
   21MOL     C312443   7.630   1.267   1.915  0.2193  0.5147  0.3958
   21MOL     C412444   7.589   1.311   1.770  0.2444  0.4941 -0.4664
   21MOL     C512445   7.502   1.433   1.765  0.3350 -0.1731  0.0967
   21MOL     C612446   7.396   1.426   1.652 -0.3904 -0.0134  0.2265
   21MOL     C712447   7.338   1.567   1.613 -0.3939  0.1486  0.1795
   21MOL     C812448   7.430   1.656   1.521 -0.5530  0.3520 -0.1103
   21MOL     C912449   7.352   1.779   1.464 -0.5343 -0.3313  0.1429
   21MOL    C1012450   7.282   1.761   1.333 -0.3557  0.3117 -0.3667
   21MOL    C1112451   7.712   0.919   1.977  0.0189 -0.2355  0.1206
   21MOL    H1212452   0.030   1.103   2.059  0.0296  2.5307 -1.2515
   21MOL    H1312453   7.713   1.317   1.964 -0.3103  0.5756  1.2294
   21MOL    H1412454   7.546   1.241   1.979  1.2597  1.2223  2.0861
   21MOL    H1512455   7.529   1.232   1.723 -1.7553  0.1991  2.4222
   21MOL    H1612456   7.675   1.322   1.704  1.8828 -0.3825  1.4813
   21MOL    H1712457   7.448   1.437   1.860  0.9210 -3.1216  0.6001
   21MOL    H1812458   7.559   1.525   1.763 -2.0139  1.3040 -2.3356
   21MOL    H1912459   7.441   1.375   1.566  2.4058 -1.0555  2.2233
   21MOL    H2012460   7.310   1.364   1.680 -0.6471 -0.1585 -0.8654
   21MOL    H2112461   7.247   1.554   1.554  0.0214 -0.1821 -0.3854
   21MOL    H2212462   7.306   1.620   1.703  0.5979  1.3162 -0.1466
   21MOL    H2312463   7.480   1.598   1.443  0.1797  0.4983  0.2467
   21MOL    H2412464   7.514   1.701   1.574  0.2942 -0.8604 -0.3927
   21MOL    H2512465   7.287   1.835   1.532 -1.4505 -1.5823  0.3041
   21MOL    H2612466   7.429   1.850   1.433 -0.3921 -0.9536 -0.9271
   21MOL    H2712467   7.204   1.686   1.342 -0.7411  0.5679 -1.4450
   21MOL    H2812468   7.357   1.728   1.261 -0.6535 -0.4220 -0.3430
   21MOL    H2912469   7.239   1.854   1.295 -0.2659  0.8781  0.9186
   21MOL    H3012470   7.623   0.899   1.917 -1.4243  0.9291  1.8387
   21MOL    H3112471   0.024   0.897   1.914  1.6376  3.0131  1.0883
   21MOL    H3212472   7.636   1.086   2.094 -1.8358 -1.7042 -1.1723
   21MOL    C3312473   7.708   0.818   2.096 -0.4630 -0.2207  0.2589
   21MOL    O3412474   0.037   0.846   2.187  0.1901  0.5458  0.7735
   21MOL    C3512475   7.773   0.818   2.314 -0.0379 -0.8817 -0.3901
   21MOL    C3612476   0.130   0.827   2.387  0.8017 -0.3138 -0.3048
   21MOL    C3712477   0.111   0.780   2.540  0.1098  0.5041  0.6622
   21MOL    C3812478   0.227   0.813   2.635  0.4139 -0.2121  0.8722
   21MOL    C3912479   0.263   0.966   2.644 -0.2247  1.0432  0.3321
   21MOL    C4012480   0.359   0.990   2.759 -1.2634  0.0499  0.6551
   21MOL    C4112481   0.390   1.137   2.782  0.3480 -0.3980 -0.1247
   21MOL    C4212482   0.399   1.170   2.938 -0.0005 -0.2368  0.3650
   21MOL    C4312483   7.708   0.661   2.056 -0.0212 -0.6102  0.0390
   21MOL    H4412484   7.609   0.845   2.134 -1.0422 -0.3565 -1.1055
   21MOL    H4512485   7.735   0.716   2.322  0.2720 -0.8661  1.4449
   21MOL    H4612486   7.706   0.899   2.342 -0.3240 -1.3515  0.2992
   21MOL    H4712487   0.166   0.928   2.369 -2.7468  1.0925  0.0842
   21MOL    H4812488   0.195   0.756   2.335 -0.6124 -1.7420 -0.1541
   21MOL    H4912489   0.018   0.813   2.585 -2.3245 -3.5027 -1.1079
   21MOL    H5012490   0.088   0.674   2.528  0.5739  0.3958  0.6971
   21MOL    H5112491   0.213   0.772   2.735 -1.1803 -1.2054  0.2632
   21MOL    H5212492   0.316   0.761   2.600  0.4032 -0.5622  1.3632
   21MOL    H5312493   0.281   1.024   2.554 -2.1026 -1.4074 -1.6901
   21MOL    H5412494   0.175   1.020   2.680  0.7682  0.5790  3.6749
   21MOL    H5512495   0.447   0.933   2.728 -1.3980  0.3748 -0.3594
   21MOL    H5612496   0.314   0.948   2.849 -2.3370 -2.0824 -0.8236
   21MOL    H5712497   0.486   1.166   2.740  0.3497 -0.2022  0.0137
   21MOL    H5812498   0.304   1.196   2.748  0.2818 -0.3891  0.0567
   21MOL    H5912499   0.301   1.149   2.981 -1.3729 -1.4873 -3.1782
   21MOL    H6012500   0.413   1.277   2.954 -0.6399 -0.0125 -0.5569
   21MOL    H6112501   0.476   1.106   2.980  1.3932 -0.8479 -2.9353
   21MOL    H6212502   0.010   0.644   1.980  2.4387 -0.8050  2.4647
   21MOL    H6312503   7.735   0.596   2.139  2.2163 -2.5336 -2.1348
   21MOL    C6412504   7.574   0.604   2.005 -0.6058 -0.0222  0.3621
   21MOL    O6512505   7.486   0.602   2.120  0.0158  0.6531  0.2637
   21MOL    C6612506   7.351   0.631   2.082  0.5308  0.8063  0.1657
   21MOL    C6712507   7.264   0.622   2.212 -0.0801  0.1987  0.0471
   21MOL    C6812508   7.300   0.739   2.309 -0.7999 -0.2656 -0.5101
   21MOL    C6912509   7.204   0.756   2.427  0.6013 -0.0927  0.7268
   21MOL    C7012510   7.243   0.867   2.519 -0.6286  0.6030  0.1588
   21MOL    C7112511   7.156   0.888   2.643  0.2371  0.7992  0.0155
   21MOL    C7212512   7.213   1.004   2.732  0.4658 -0.1774 -1.1159
   21MOL    C7312513   7.108   1.051   2.835 -0.2908 -0.1386  0.1058
   21MOL    C7412514   7.583   0.467   1.927 -0.2310  0.2441 -0.5837
   21MOL    H7512515   7.541   0.675   1.928  3.4307  0.2354 -1.2560
   21MOL    H7612516   7.311   0.569   2.002 -1.8403 -0.1766  2.0538
   21MOL    H7712517   7.355   0.735   2.050 -0.2115  1.1879  1.2757
   21MOL    H7812518   7.283   0.528   2.263  1.1138 -0.1319 -0.9624
   21MOL    H7912519   7.157   0.615   2.197  0.2051  0.1170 -2.2328
   21MOL    H8012520   7.400   0.722   2.350 -0.5906  1.4153 -0.3054
   21MOL    H8112521   7.309   0.833   2.255 -3.5292  0.6512  0.5234
   21MOL    H8212522   7.108   0.777   2.379  1.7652 -2.2966 -2.7212
   21MOL    H8312523   7.205   0.668   2.491 -0.1182 -1.5431 -1.2205
   21MOL    H8412524   7.351   0.862   2.530 -0.4678 -0.5583 -1.7116
   21MOL    H8512525   7.239   0.966   2.472 -0.6366 -0.2651 -1.7422
   21MOL    H8612526   7.153   0.795   2.699 -0.2100  0.6636 -0.2257
   21MOL    H8712527   7.052   0.913   2.620  0.3501  1.0270 -0.2462
   21MOL    H8812528   7.297   0.971   2.793  1.3030  1.4003 -1.3793
   21MOL    H8912529   7.249   1.092   2.677  2.5649 -0.1206  0.3123
   21MOL    H9012530   7.073   0.958   2.880 -1.0892  0.2710  0.3388
   21MOL    H9112531   7.029   1.093   2.773  0.1886 -0.0721 -0.4672
   21MOL    H9212532   7.152   1.122   2.905  0.6539  0.8279 -1.4424
   21MOL    H9312533   7.606   0.387   1.997  0.2463  1.2648  0.4512
   21MOL    H9412534   7.482   0.433   1.902 -0.1341  0.1804 -0.8876
   21MOL    C9512535   7.665   0.461   1.799 -0.1456  0.0459 -0.0517
   21MOL    O9612536   7.604   0.537   1.701  0.0841  0.6547 -0.0458
   21MOL    C9712537   7.693   0.587   1.609  0.0187 -0.6181  0.3240
   21MOL    C9812538   7.679   0.740   1.615 -0.0267  0.0695 -0.1006
   21MOL    C9912539   0.005   0.815   1.535 -0.3820  0.0102  0.2837
   21MOL   C10012540   0.052   0.952   1.584 -0.5061  0.3041  0.2190
   21MOL   C10112541   0.153   1.019   1.488 -0.2314 -0.3318  1.0175
   21MOL   C10212542   0.116   1.168   1.464  0.2062  0.0720 -0.2767
   21MOL   C10312543   0.237   1.247   1.410 -0.5968  0.0917  0.5758
   21MOL   C10412544   0.197   1.388   1.353  0.6686 -0.9343  0.2023
   21MOL   C10512545   7.682   0.315   1.745 -0.1233  0.3985 -0.0765
   21MOL   H10612546   7.765   0.494   1.829 -0.2765 -0.3734  0.8687
   21MOL   H10712547   7.649   0.557   1.514  1.3763 -1.5852 -0.0111
   21MOL   H10812548   0.020   0.547   1.604 -0.4780 -1.6679 -2.0464
   21MOL   H10912549   7.682   0.779   1.717 -0.4858 -0.9951  0.3249
   21MOL   H11012550   7.580   0.765   1.578 -1.1474 -1.4607  1.7825
   21MOL   H11112551   0.094   0.753   1.521 -1.2152 -0.8135 -1.5412
   21MOL   H11212552   7.740   0.828   1.434 -1.6324 -0.0590  0.7621
   21MOL   H11312553   7.738   1.014   1.599 -0.4332  0.5479 -0.3515
   21MOL   H11412554   0.102   0.935   1.679 -3.2607 -0.1614  1.6337
   21MOL   H11512555   0.249   1.021   1.539 -0.2606 -0.3059  1.0714
   21MOL   H11612556   0.174   0.971   1.393  0.1501  2.5034 -0.4100
   21MOL   H11712557   0.094   1.220   1.557 -0.9766  0.1200 -0.5802
   21MOL   H11812558   0.030   1.189   1.400  0.7583 -0.8858 -1.3412
   21MOL   H11912559   0.323   1.258   1.476  0.1728 -0.6615 -0.2978
   21MOL   H12012560   0.280   1.192   1.326 -2.9538  0.4588 -0.9335
   21MOL   H12112561   0.275   1.453   1.314  1.0074 -0.2175  2.0334
   21MOL   H12212562   0.132   1.438   1.425  0.1413 -2.3940  0.7753
   21MOL   H12312563   0.122   1.371   1.277  2.2450 -1.1004 -1.3511
   21MOL   H12412564   7.580   0.277   1.751 -1.3080  3.0544 -2.2975
   21MOL   H12512565   7.716   0.316   1.641  2.2323  1.9441  0.6775
   21MOL   C12612566   0.001   0.217   1.819  0.7862 -0.2470 -0.9338
   21MOL   O12712567   0.132   0.264   1.819 -1.0999 -0.3063  0.1257
   21MOL   C12812568   0.210   0.215   1.934 -0.0317  0.2689 -0.0225
   21MOL   C12912569   0.357   0.242   1.908  0.0787  0.2307  0.0574
   21MOL   C13012570   0.400   0.158   1.789 -0.0869  0.0367  0.5439
   21MOL   C13112571   0.554   0.156   1.770 -0.9235  0.6880  0.4825
   21MOL   C13212572   0.599   0.041   1.674  0.4446 -0.5251  0.0264
   21MOL   C13312573   0.745   0.067   1.643  0.1823  0.4883 -0.2625
   21MOL   C13412574   0.808   7.745   1.536  0.2777 -0.2141  0.0440
   21MOL   C13512575   0.951   0.015   1.497  0.7549 -0.4133 -0.5333
   21MOL   C13612576   0.005   0.077   1.753  0.1346 -0.7438  0.1281
   21MOL   H13712577   7.737   0.206   1.920 -0.8545 -1.3574 -1.6609
   21MOL   H13812578   0.189   0.110   1.955  1.1274 -0.1699 -1.0375
   21MOL   H13912579   0.187   0.280   2.018  0.8128 -0.7190  0.9861
   21MOL   H14012580   0.410   0.214   1.999 -1.5531 -1.4366  0.5411
   21MOL   H14112581   0.379   0.348   1.901  1.5309  0.0460  1.4648
   21MOL   H14212582   0.365   0.055   1.790 -0.1570  0.0266 -1.0307
   21MOL   H14312583   0.350   0.189   1.697 -0.3328 -0.3458  0.5491
   21MOL   H14412584   0.578   0.252   1.726 -0.9722  0.1260 -0.8089
   21MOL   H14512585   0.604   0.152   1.867  1.6008  0.1377 -0.8043
   21MOL   H14612586   0.573   7.719   1.718 -0.1830  0.2852  1.4643
   21MOL   H14712587   0.531   0.054   1.589  0.3753 -0.5629  0.0757
   21MOL   H14812588   0.806   0.074   1.733  0.4855  0.1534 -0.4377
   21MOL   H14912589   0.746   0.164   1.592 -1.9092  0.1323 -1.0040
   21MOL   H15012590   0.798   7.642   1.571  0.0214 -0.4875 -0.8293
   21MOL   H15112591   0.745   7.740   1.448  1.0213 -1.0177 -0.4511
   21MOL   H15212592   0.965   0.121   1.474 -0.5586 -0.0891  0.0797
   21MOL   H15312593   0.996   7.754   1.404 -0.0758  1.6665 -1.7651
   21MOL   H15412594   1.030   7.765   1.567  0.2157 -0.5599  0.0301
   21MOL   H15512595   0.024   0.092   1.647 -0.2308 -0.0810  0.1571
   21MOL   H15612596   0.095   0.020   1.778  1.7778  2.5874  2.2085
   21MOL   C15712597   7.666   7.745   1.789  0.3746 -0.3708 -1.0018
   21MOL   O15812598   7.543   0.026   1.742  0.1749 -0.7078  0.1800
   21MOL   C15912599   7.522   7.766   1.603  0.4886  0.0198  0.3467
   21MOL   C16012600   7.391   0.059   1.561  0.4546  0.4647  0.3585
   21MOL   C16112601   7.324   0.002   1.433  0.9453  0.7754 -0.2098
   21MOL   C16212602   7.186   0.062   1.397 -0.0514 -0.6054 -0.1249
   21MOL   C16312603   7.101   7.749   1.311 -0.0743  0.0275 -0.3490
   21MOL   C16412604   6.975   0.033   1.256  0.4099  0.5807 -0.2996
   21MOL   C16512605   6.856   0.048   1.355 -0.3735 -0.0874  0.0983
   21MOL   C16612606   6.718   0.078   1.282  0.0627  0.4267 -0.2482
   21MOL   C16712607   7.642   7.711   1.940 -0.5945 -0.0142  0.8748
   21MOL   H16812608   7.696   7.649   1.748  1.2578 -0.7290  0.4473
   21MOL   H16912609   7.516   7.657   1.609  1.4548 -0.0842 -0.3997
   21MOL   H17012610   7.611   0.013   1.544 -0.2741  4.3060  0.5731
   21MOL   H17112611   7.417   0.164   1.556 -2.4972  1.3177  1.5895
   21MOL   H17212612   7.319   0.060   1.643 -3.2254 -0.5434 -2.6740
   21MOL   H17312613   7.383   0.039   1.349  0.0168 -0.3805 -1.3908
   21MOL   H17412614   7.331   7.667   1.434 -1.5059  0.5706 -1.4894
   21MOL   H17512615   7.128   0.080   1.488  1.7310  1.4149  0.6694
   21MOL   H17612616   7.204   0.162   1.358 -0.8509  0.1498  1.3688
   21MOL   H17712617   7.147   7.712   1.220 -1.4210 -2.1463 -0.1988
   21MOL   H17812618   7.084   7.657   1.369 -1.3386  1.7936  2.2150
   21MOL   H17912619   6.946   7.740   1.176 -0.5467  0.0619  0.4606
   21MOL   H18012620   6.990   0.130   1.209  0.6452  1.2894  1.1953
   21MOL   H18112621   6.859   7.725   1.404 -1.9825 -0.0631  0.2750
   21MOL   H18212622   6.880   0.113   1.439  0.1601 -1.7275  1.2493
   21MOL   H18312623   6.711   0.026   1.187  0.9501  0.9525 -0.6066
   21MOL   H18412624   6.693   0.184   1.273  0.6041  0.6100  0.3716
   21MOL   H18512625   6.644   0.030   1.345  0.4625 -2.6475 -2.0204
   21MOL   H18612626   7.656   0.025   2.003 -3.2335  0.2275  1.1876
   21MOL   H18712627   7.534   7.697   1.946 -0.6350 -0.1682 -0.1995
   21MOL   C18812628   7.719   7.592   2.005 -0.4682  0.2347 -0.2802
   21MOL   O18912629   7.657   7.573   2.130  0.2406  0.0519 -0.4323
   21MOL   C19012630   7.542   7.486   2.113 -0.0141 -0.3456 -0.1939
   21MOL   C19112631   7.467   7.479   2.243 -0.1076 -0.6032 -0.0623
   21MOL   C19212632   7.344   7.390   2.238  0.0865  0.3259  0.2206
   21MOL   C19312633   7.254   7.403   2.363 -0.7608 -0.2611 -0.6332
   21MOL   C19412634   7.120   7.334   2.349 -0.2611 -0.3015 -0.3791
   21MOL   C19512635   7.014   7.380   2.451 -0.0599  0.1310  0.6050
   21MOL   C19612636   7.052   7.367   2.597 -0.6488 -0.0113 -0.8283
   21MOL   C19712637   6.928   7.385   2.688 -0.1885  0.2778  0.2044
   21MOL   C19812638   0.080   7.634   2.046 -0.4707  0.7602 -0.0412
   21MOL   H19912639   7.728   7.501   1.946  0.8760  1.7573 -2.4827
   21MOL   H20012640   7.480   7.513   2.027 -0.1639 -0.3311 -0.0798
   21MOL   H20112641   7.579   7.385   2.093 -2.4783 -1.2498 -0.3668
   21MOL   H20212642   7.433   7.581   2.264 -1.8059 -1.1693  0.0766
   21MOL   H20312643   7.528   7.447   2.327 -1.4878 -0.2608  1.1035
   21MOL   H20412644   7.284   7.419   2.152 -0.4636 -1.0976  0.1017
   21MOL   H20512645   7.375   7.288   2.218  0.4020  0.7584 -1.5698
   21MOL   H20612646   7.300   7.383   2.460 -0.0484  1.6713 -0.5552
   21MOL   H20712647   7.236   7.511   2.365  3.4279  0.5492  0.4074
   21MOL   H20812648   7.084   7.352   2.247  0.1797  2.6969 -0.0423
   21MOL   H20912649   7.136   7.227   2.365  2.2029 -0.2266 -1.9638
   21MOL   H21012650   6.920   7.331   2.426  0.1681  0.5973 -1.2182
   21MOL   H21112651   6.983   7.484   2.445  0.6428  0.2847 -0.5880
   21MOL   H21212652   7.094   7.269   2.620  0.9330  1.0277  0.9081
   21MOL   H21312653   7.136   7.436   2.611 -1.6074  1.3125 -1.4934
   21MOL   H21412654   6.935   7.319   2.775 -1.7635 -0.4664 -0.2033
   21MOL   H21512655   6.836   7.359   2.634  1.3893 -1.0044 -1.9330
   21MOL   H21612656   6.925   7.484   2.733  1.8970 -0.3678  1.8589
   21MOL   H21712657   0.138   7.634   1.954  0.0100  0.7683  0.2587
   21MOL   H21812658   0.088   7.741   2.064 -2.2383  0.7607  0.8577
   21MOL   C21912659   0.159   7.555   2.157  1.2106  0.2702  0.5501
   21MOL   O22012660   0.272   7.632   2.174 -0.7242  0.6728  0.5999
   21MOL   C22112661   0.263   7.725   2.277  0.0435  0.0804 -0.4610
   21MOL   C22212662   0.339   0.082   2.244 -0.2404  0.4814  0.5706
   21MOL   C22312663   0.360   0.180   2.358 -0.3381  0.2897  0.3311
   21MOL   C22412664   0.241   0.263   2.401  0.6718 -0.3928 -0.0016
   21MOL   C22512665   0.264   0.364   2.509  0.7013 -0.1254 -0.8796
   21MOL   C22612666   0.273   0.297   2.647  0.1560 -0.5712 -0.4563
   21MOL   C22712667   0.255   0.402   2.761 -0.7455  0.0710  0.1372
   21MOL   C22812668   0.251   0.338   2.898  0.7052 -0.2987 -0.9435
   21MOL   C22912669   0.202   7.420   2.110 -0.3287  0.7663  0.0468
   21MOL   H23012670   0.095   7.541   2.245  0.3842  0.3772 -0.0333
   21MOL   H23112671   0.319   7.688   2.363  0.8647 -0.4788 -1.2229
   21MOL   H23212672   0.163   7.752   2.311 -0.2180 -1.9387  0.4558
   21MOL   H23312673   0.275   0.125   2.168 -2.6875 -3.3287  0.3325
   21MOL   H23412674   0.427   0.056   2.186 -1.9266  1.5879 -2.6163
   21MOL   H23512675   0.389   0.123   2.446  1.2646  2.6490  1.3648
   21MOL   H23612676   0.443   0.248   2.338 -1.3975  1.0112 -1.7339
   21MOL   H23712677   0.202   0.310   2.310  0.9284  2.3389  1.2476
   21MOL   H23812678   0.161   0.197   2.432  0.1219 -0.4149 -1.4321
   21MOL   H23912679   0.361   0.412   2.492  0.8633  0.3769  1.2916
   21MOL   H24012680   0.208   0.457   2.500  1.4194  0.5237  1.1731
   21MOL   H24112681   0.366   0.242   2.659  0.2924 -0.4712 -1.0535
   21MOL   H24212682   0.194   0.222   2.653 -0.6310  0.2729 -0.0721
   21MOL   H24312683   0.326   0.483   2.745 -1.2300  0.5230  0.2700
   21MOL   H24412684   0.154   0.434   2.736 -0.4796  1.0614  0.3203
   21MOL   H24512685   0.254   0.417   2.972 -1.4096  0.1607 -1.3235
   21MOL   H24612686   0.323   0.259   2.919  1.6191  0.7815  0.0032
   21MOL   H24712687   0.156   0.289   2.921 -0.2654  1.9426 -0.0022
   21MOL   H24812688   0.114   7.355   2.110 -0.4142  0.8596 -1.8194
   21MOL   H24912689   0.212   7.433   2.002  0.6760  0.2698  0.0810
   21MOL   C25012690   0.326   7.348   2.176 -0.5527 -0.1398  1.0474
   21MOL   O25112691   0.426   7.326   2.072 -0.1408  0.0583 -0.2197
   21MOL   C25212692   0.503   7.443   2.048  0.7961  0.0624 -0.1261
   21MOL   C25312693   0.608   7.418   1.939  0.9769  0.2979  0.4240
   21MOL   C25412694   0.539   7.386   1.807 -0.2624  0.2231 -0.3946
   21MOL   C25512695   0.635   7.369   1.683 -0.5407  0.2969  0.0607
   21MOL   C25612696   0.564   7.315   1.556 -0.1410 -0.0701 -0.0273
   21MOL   C25712697   0.474   7.406   1.480  0.1865 -0.2624 -0.1361
   21MOL   C25812698   0.438   7.351   1.337  0.3517 -0.5954  0.8234
   21MOL   C25912699   0.343   7.230   1.351 -0.0312  0.4605 -0.4243
   21MOL   C26012700   0.301   7.210   2.228  0.5167 -0.2562 -0.5108
   21MOL   H26112701   0.375   7.403   2.257  1.1803 -2.3081  1.5100
   21MOL   H26212702   0.561   7.477   2.134  2.6842 -0.0756 -1.3121
   21MOL   H26312703   0.439   7.528   2.023  0.3749  0.1004  1.0753
   21MOL   H26412704   0.674   7.338   1.972  0.3303  0.2098  1.5334
   21MOL   H26512705   0.667   7.509   1.936  0.5492  0.5618  0.1170
   21MOL   H26612706   0.482   7.295   1.825  0.9557 -0.5117 -0.2097
   21MOL   H26712707   0.474   7.471   1.786  0.5971  0.4969 -2.0029
   21MOL   H26812708   0.674   7.465   1.649 -1.5824  0.8630  0.4733
   21MOL   H26912709   0.724   7.310   1.708 -0.2667  0.2359 -1.0324
   21MOL   H27012710   0.642   7.279   1.488  1.5013  1.1527  1.1567
   21MOL   H27112711   0.508   7.226   1.585 -1.8178  0.8008 -0.5107
   21MOL   H27212712   0.525   7.502   1.472  1.5716 -1.0402 -0.7395
   21MOL   H27312713   0.377   7.417   1.530  0.5713  2.5974  0.0415
   21MOL   H27412714   0.381   7.426   1.282  1.0425 -1.8881 -1.6919
   21MOL   H27512715   0.526   7.330   1.276  1.3873  1.1244  1.6928
   21MOL   H27612716   0.281   7.207   1.264  0.6073  0.4204 -0.8677
   21MOL   H27712717   0.272   7.248   1.432  0.5483  1.8565 -0.2182
   21MOL   H27812718   0.395   7.139   1.382  3.4841  1.7572 -2.3022
   21MOL   H27912719   0.217   7.170   2.171 -0.8223  3.0516 -1.0063
   21MOL   H28012720   0.382   7.145   2.195  1.3641 -0.0469  1.1063
   21MOL   C28112721   0.274   7.207   2.377  0.6417  0.1299 -0.0446
   21MOL   O28212722   0.403   7.225   2.435 -0.0545  0.2653 -0.5839
   21MOL   C28312723   0.414   7.269   2.569 -0.4355  0.0508 -0.1197
   21MOL   C28412724   0.555   7.257   2.625 -0.1646 -0.0153 -0.5909
   21MOL   C28512725   0.565   7.316   2.771 -0.2353  0.0725  0.0862
   21MOL   C28612726   0.704   7.300   2.837  0.2299 -0.1715  0.4377
   21MOL   C28712727   0.808   7.411   2.801 -0.3896 -0.3480 -0.0524
   21MOL   C28812728   0.877   7.395   2.662 -0.0747  0.2656  0.0272
   21MOL   C28912729   0.995   7.494   2.631 -0.1018  0.1640 -0.0227
   21MOL   C29012730   1.071   7.458   2.504 -0.2962 -0.4595 -0.1805
   21MOL   C29112731   0.223   7.070   2.419  0.2174  0.6881 -0.3191
   21MOL   H29212732   0.207   7.291   2.399 -0.6255 -0.8660 -0.0132
   21MOL   H29312733   0.343   7.212   2.630 -0.4170  2.2119  2.0292
   21MOL   H29412734   0.379   7.372   2.568  0.7686  0.5252  2.7287
   21MOL   H29512735   0.617   7.318   2.559  2.3967 -0.0356  1.7218
   21MOL   H29612736   0.604   7.160   2.619 -0.0868  0.0261 -0.6276
   21MOL   H29712737   0.542   7.422   2.758 -1.2852 -0.1621  0.0175
   21MOL   H29812738   0.497   7.263   2.837  0.6288 -0.6214  0.4199
   21MOL   H29912739   0.678   7.315   2.941  2.1603  0.1620  0.8916
   21MOL   H30012740   0.737   7.199   2.813 -1.2348 -0.1252 -1.9332
   21MOL   H30112741   0.757   7.507   2.816  0.8611  0.0024  2.2372
   21MOL   H30212742   0.884   7.388   2.876 -0.2557 -0.7793 -0.3196
   21MOL   H30312743   0.813   7.414   2.576  0.7757 -0.9832 -0.9038
   21MOL   H30412744   0.909   7.291   2.658 -1.3199 -0.0681 -2.1738
   21MOL   H30512745   0.959   7.597   2.626  0.5800  0.3922 -0.1671
   21MOL   H30612746   1.065   7.503   2.715 -1.4329 -0.7591  1.2200
   21MOL   H30712747   1.117   7.360   2.516  0.2865 -0.5647 -2.9178
   21MOL   H30812748   1.141   7.530   2.460  0.4594 -0.7513  0.5245
   21MOL   H30912749   0.992   7.439   2.432  1.2050 -2.7000 -1.2946
   21MOL   H31012750   0.294   6.998   2.379 -0.5459  0.6484 -1.6281
   21MOL   H31112751   0.260   7.056   2.521  1.6695 -1.0944 -1.0602
   21MOL   C31212752   0.077   7.023   2.406 -0.2192  0.2407  0.5607
   21MOL   O31312753   7.765   7.110   2.476  0.1052 -0.2537  0.3180
   21MOL   C31412754   7.640   7.119   2.411  0.6758  0.1109 -0.1434
   21MOL   C31512755   7.547   7.205   2.489 -0.3126 -0.3952  0.5913
   21MOL   C31612756   7.518   7.139   2.630 -0.0671  0.8605 -0.1935
   21MOL   C31712757   7.394   7.202   2.703 -0.7270  0.4514 -0.4903
   21MOL   C31812758   7.379   7.148   2.849  0.4416 -0.1845  0.1181
   21MOL   C31912759   7.259   7.195   2.928 -0.1737 -0.1699 -0.1919
   21MOL   C32012760   7.290   7.314   3.022  0.6577  0.2260  0.2699
   21MOL   C32112761   7.158   7.354   3.105 -0.1382  1.1576  0.3163
   21MOL   C32212762   0.049   6.878   2.442  0.3370 -0.6764  0.2237
   21MOL   H32312763   0.058   7.032   2.299 -1.5756 -0.2466  0.7476
   21MOL   H32412764   7.587   7.026   2.388 -1.7605  1.7074 -1.1261
   21MOL   H32512765   7.665   7.166   2.316  0.1722  2.1968  0.7437
   21MOL   H32612766   7.448   7.215   2.444 -0.0964 -0.5051  0.0882
   21MOL   H32712767   7.586   7.305   2.501  0.4558 -0.8866  2.3822
   21MOL   H32812768   7.505   7.032   2.612 -1.9173  1.1071 -0.4502
   21MOL   H32912769   7.605   7.153   2.693  1.2111 -2.1020 -1.1927
   21MOL   H33012770   7.403   7.310   2.713  1.1916  0.1379  1.4495
   21MOL   H33112771   7.307   7.182   2.640 -0.3763  3.1326 -1.8827
   21MOL   H33212772   7.369   7.040   2.833 -0.3864 -0.2764  1.1945
   21MOL   H33312773   7.474   7.161   2.900  0.6399 -0.9796 -0.0301
   21MOL   H33412774   7.225   7.108   2.983  1.1447 -1.5651 -1.5296
   21MOL   H33512775   7.171   7.223   2.870  1.7471  3.0520 -1.6757
   21MOL   H33612776   7.363   7.286   3.099  0.5475  2.5944  1.2720
   21MOL   H33712777   7.333   7.400   2.971 -0.1602  0.7584  0.4630
   21MOL   H33812778   7.161   7.447   3.161 -0.2695  0.9607  0.6532
   21MOL   H33912779   7.139   7.278   3.181  0.2306 -1.2120 -1.8857
   21MOL   H34012780   7.070   7.361   3.041 -1.0591 -1.2077  1.2735
   21MOL   H34112781   7.728   6.841   2.405  1.4120 -2.3276 -0.9633
   21MOL   H34212782   0.126   6.817   2.396 -0.3042 -3.3444  2.5658
   21MOL   C34312783   0.048   6.840   2.596  0.3055 -0.2703  0.1454
   21MOL   O34412784   0.179   6.804   2.639 -0.0582  0.3133  0.0631
   21MOL   C34512785   0.222   6.900   2.732 -0.1149 -0.1171 -0.3852
   21MOL   C34612786   0.364   6.887   2.762  0.4668  0.1543  0.0602
   21MOL   C34712787   0.394   6.975   2.886  0.2385 -0.0529  0.3176
   21MOL   C34812788   0.546   6.976   2.902 -0.4458  0.6790 -0.0963
   21MOL   C34912789   0.584   7.031   3.042 -0.0014  0.4061  0.0500
   21MOL   C35012790   0.729   7.011   3.078  0.5228  0.4464  0.6864
   21MOL   C35112791   0.751   7.028   3.226 -0.8696  0.4061  0.2638
   21MOL   C35212792   0.726   7.174   3.274 -0.1051  0.3155 -0.3939
   21MOL   C35312793   7.741   6.715   2.637 -0.2565 -0.2302  0.4829
   21MOL   H35412794   7.773   6.915   2.657 -0.3219 -1.9700  1.7580
   21MOL   H35512795   0.169   6.886   2.826  0.9528 -0.2448  0.1973
   21MOL   H35612796   0.209   7.005   2.704 -0.9678  0.5361  2.3138
   21MOL   H35712797   0.425   6.919   2.678  0.9196 -0.4280  0.1666
   21MOL   H35812798   0.393   6.784   2.783  0.6057  0.5301  1.7486
   21MOL   H35912799   0.357   7.076   2.869  0.3593 -0.2027 -0.9544
   21MOL   H36012800   0.354   6.944   2.982  1.4126  1.0468  1.1870
   21MOL   H36112801   0.587   6.879   2.875 -1.7194  0.7409 -2.3206
   21MOL   H36212802   0.595   7.030   2.822 -1.8643  2.4492  0.2004
   21MOL   H36312803   0.561   7.138   3.051  0.0208  0.3720  0.5446
   21MOL   H36412804   0.517   6.974   3.106  0.0641  2.3898  1.9484
   21MOL   H36512805   0.801   7.076   3.028 -1.1560  2.9718  1.4265
   21MOL   H36612806   0.750   6.908   3.050  0.1747  0.2432  1.1555
   21MOL   H36712807   0.699   6.968   3.302  2.4125 -3.5403 -0.4118
   21MOL   H36812808   0.855   7.008   3.250 -0.7863 -2.9600 -2.5392
   21MOL   H36912809   0.619   7.194   3.282 -0.3764 -1.1183 -0.2877
   21MOL   H37012810   0.755   7.255   3.208 -1.3872  1.9102  0.9685
   21MOL   H37112811   0.769   7.191   3.373  1.3512 -1.8160 -0.6274
   21MOL   H37212812   7.638   6.731   2.608  0.5172  0.7636 -1.8343
   21MOL   H37312813   0.003   6.628   2.583 -2.2815 -0.2870 -0.8397
   21MOL   C37412814   7.735   6.699   2.791  0.1158 -0.3527  0.1418
   21MOL   O37512815   7.681   6.568   2.822  0.3026 -0.7845 -0.4173
   21MOL   C37612816   7.745   6.446   2.809  0.1956  0.2848  0.2942
   21MOL   C37712817   7.641   6.335   2.813  0.3505  0.4483  0.2159
   21MOL   C37812818   7.521   6.356   2.721  0.3213  0.1735 -0.6817
   21MOL   C37912819   7.443   6.224   2.716 -0.6456 -0.9181 -0.1426
   21MOL   C38012820   7.342   6.190   2.828  0.4160  0.0321 -0.3653
   21MOL   C38112821   7.273   6.050   2.818 -0.1631 -0.2437  0.0538
   21MOL   C38212822   7.182   6.017   2.933  0.5843  0.8335  0.2590
   21MOL   C38312823   7.037   6.069   2.912 -0.3649 -0.1403 -0.0497
   21MOL   C38412824   7.649   6.794   2.876  0.1784  0.1960  0.1399
   21MOL   H38512825   0.066   6.700   2.819  0.1597 -2.8408  0.1922
   21MOL   H38612826   0.051   6.435   2.883  0.3179 -2.1245 -0.1587
   21MOL   H38712827   0.011   6.431   2.709 -2.9600 -1.0619 -0.8377
   21MOL   H38812828   7.598   6.333   2.914 -0.9713  0.2592 -0.3421
   21MOL   H38912829   7.684   6.234   2.811 -0.3931  0.1129  0.9152
   21MOL   H39012830   7.459   6.439   2.755 -0.3653 -1.1317  1.3358
   21MOL   H39112831   7.551   6.382   2.619 -0.3332  1.7972 -0.4794
   21MOL   H39212832   7.380   6.223   2.626 -0.1001  0.4222 -0.5483
   21MOL   H39312833   7.507   6.136   2.709 -0.0379 -0.4700 -0.1444
   21MOL   H39412834   7.390   6.184   2.926 -1.0593 -1.2495  0.2894
   21MOL   H39512835   7.266   6.267   2.831 -0.5729 -0.9337 -0.2441
   21MOL   H39612836   7.349   5.972   2.815  0.6179  0.5360 -0.2984
   21MOL   H39712837   7.218   6.040   2.725 -1.1366 -0.5843  0.6483
   21MOL   H39812838   7.174   5.909   2.946  1.1494  0.8208  0.4930
   21MOL   H39912839   7.225   6.058   3.024  2.2558 -0.8251  0.2582
   21MOL   H40012840   7.009   6.040   2.811 -1.1440  1.1523 -0.2189
   21MOL   H40112841   7.035   6.178   2.912  2.2554  0.0343 -3.9839
   21MOL   H40212842   6.967   6.028   2.984 -2.1226  0.0285 -1.6274
   21MOL   H40312843   7.648   6.894   2.834 -1.5494 -0.4605 -1.4618
   21MOL   H40412844   7.544   6.765   2.865  0.4705 -0.1799 -1.7874
   21MOL   C40512845   7.682   6.799   3.033 -0.4806 -0.5751 -0.5892
   21MOL   O40612846   7.582   6.886   3.082 -0.0999 -0.6474 -0.2275
   21MOL   C40712847   7.465   6.812   3.121 -0.2631  0.2682  0.5770
   21MOL   C40812848   7.379   6.891   3.217  0.2556  0.2500  0.1950
   21MOL   C40912849   7.430   6.928   3.356  0.2127  0.1411 -0.6652
   21MOL   C41012850   7.316   6.984   3.444 -0.1880  0.3544 -0.1196
   21MOL   C41112851   7.369   7.093   3.536 -0.1301 -0.4638 -0.0953
   21MOL   C41212852   7.260   7.169   3.623  0.0712  0.4625 -0.1831
   21MOL   C41312853   7.236   7.101   3.755  0.1370 -0.3826 -0.3886
   21MOL   C41412854   7.335   7.148   3.863 -0.6578  0.1096  0.6252
   21MOL   C41512855   0.045   6.859   3.063  0.0364  0.1161 -0.0371
   21MOL   H41612856   7.679   6.702   3.084  1.4576 -0.4500 -0.2271
   21MOL   H41712857   7.486   6.713   3.162  0.2088 -0.8672 -2.3111
   21MOL   H41812858   7.412   6.792   3.028  2.6816  0.8738 -1.2885
   21MOL   H41912859   7.295   6.823   3.229 -0.4672  0.9678 -0.7231
   21MOL   H42012860   7.346   6.977   3.158 -1.6557 -1.0385 -0.6455
   21MOL   H42112861   7.454   6.829   3.395 -0.2520  0.6401  0.9556
   21MOL   H42212862   7.512   6.999   3.351  0.9381 -0.2115  3.9911
   21MOL   H42312863   7.234   7.016   3.381 -0.5334 -1.9141 -0.8963
   21MOL   H42412864   7.271   6.908   3.508  0.4608 -1.6109 -1.9384
   21MOL   H42512865   7.444   7.053   3.604  1.8124  1.2678 -1.1274
   21MOL   H42612866   7.421   7.167   3.475 -1.0999 -0.1359 -0.5280
   21MOL   H42712867   7.172   7.178   3.559 -1.1501 -1.4294  1.1792
   21MOL   H42812868   7.288   7.274   3.631 -0.7891  0.6906 -0.0677
   21MOL   H42912869   7.135   7.129   3.785  0.6580 -0.5345  1.5806
   21MOL   H43012870   7.228   6.993   3.751 -0.3321 -0.3503 -0.3896
   21MOL   H43112871   7.320   7.100   3.960  1.6005  1.5463  1.7391
   21MOL   H43212872   7.312   7.253   3.878  1.4747  0.7234 -0.1970
   21MOL   H43312873   7.438   7.145   3.826 -1.3495  0.1162 -1.3493
   21MOL   H43412874   0.123   6.803   3.011 -1.6609 -0.2729 -2.2315
   21MOL   H43512875   0.052   6.962   3.029 -0.5723  0.7117  1.5936
   21MOL   C43612876   0.092   6.865   3.209  1.1716 -0.0362 -0.0081
   21MOL   O43712877   0.199   6.953   3.208  0.1437  0.1711  0.3029
   21MOL   C43812878   0.207   7.046   3.315  0.6287 -0.2120 -0.2297
   21MOL   C43912879   0.308   7.154   3.287 -0.8378 -0.6380  0.5892
   21MOL   C44012880   0.283   7.234   3.161 -0.8072 -0.1061 -0.0370
   21MOL   C44112881   0.382   7.356   3.153  0.0530  0.5048 -0.7698
   21MOL   C44212882   0.351   7.448   3.032  0.2211 -0.2851  0.0234
   21MOL   C44312883   0.458   7.566   3.019  0.0396 -0.0137  0.4542
   21MOL   C44412884   0.403   7.690   2.937 -0.3356  0.3506 -0.3894
   21MOL   C44512885   0.405   7.672   2.787  0.3142 -0.4766 -0.4623
   21MOL   C44612886   0.131   6.730   3.284  0.0090 -0.5345 -0.5245
   21MOL   H44712887   0.015   6.914   3.268 -0.8188 -1.1099 -1.6624
   21MOL   H44812888   0.114   7.093   3.346  0.6389 -0.6748  0.5166
   21MOL   H44912889   0.239   6.996   3.407  3.7867 -0.9180 -1.6362
   21MOL   H45012890   0.408   7.111   3.292  0.2596  1.2537 -2.8458
   21MOL   H45112891   0.315   7.231   3.363  2.0857  0.5503 -0.7681
   21MOL   H45212892   0.291   7.173   3.071  0.6799 -1.1545  0.7875
   21MOL   H45312893   0.184   7.280   3.162 -0.1649  1.2894 -0.4118
   21MOL   H45412894   0.372   7.411   3.246  2.8966 -0.5117  0.2051
   21MOL   H45512895   0.481   7.311   3.141 -0.2764 -0.5373  0.3326
   21MOL   H45612896   0.353   7.393   2.938  1.2716 -0.7804  0.3223
   21MOL   H45712897   0.249   7.484   3.041 -0.2736 -0.7901 -3.0065
   21MOL   H45812898   0.551   7.531   2.974  0.3311  2.2164 -0.7825
   21MOL   H45912899   0.480   7.613   3.115  1.2222 -0.5476  0.4527
   21MOL   H46012900   0.298   7.705   2.961 -0.2589  1.5136 -0.7676
   21MOL   H46112901   0.464   0.004   2.954 -0.0449  0.1968 -0.6162
   21MOL   H46212902   0.350   7.751   2.736  0.1581 -0.7866 -0.7831
   21MOL   H46312903   0.351   7.586   2.748  1.8068 -1.0820 -1.2654
   21MOL   H46412904   0.504   7.660   2.743  1.2410 -0.3937  1.5444
   21MOL   H46512905   0.155   6.754   3.387  0.5266  0.6119 -0.9024
   21MOL   H46612906   0.039   6.672   3.280  1.7382 -3.2461 -3.3549
   21MOL   C46712907   0.253   6.644   3.228  0.1008  0.3384 -0.3287
   21MOL   O46812908   0.224   6.505   3.246 -0.2174 -0.3769 -0.0425
   21MOL   C46912909   0.151   6.460   3.137 -0.9979  0.7354 -0.8176
   21MOL   C47012910   0.108   6.314   3.168 -0.8479 -0.2914 -0.8127
   21MOL   C47112911   0.010   6.305   3.291  0.0129 -0.3151  0.3418
   21MOL   C47212912   7.639   6.337   3.256  0.0436 -0.0932  0.2660
   21MOL   C47312913   7.551   6.405   3.359 -0.4584 -0.5381 -0.1883
   21MOL   C47412914   7.409   6.444   3.320  0.0416 -0.3461  0.4965
   21MOL   C47512915   7.322   6.496   3.433 -0.1062  0.4465 -0.1967
   21MOL   C47612916   7.201   6.557   3.378  0.1653  0.0040  0.3380
   21MOL   C47712917   0.383   6.681   3.304 -0.8724  0.0975 -0.9725
   21MOL   H47812918   0.267   6.674   3.124 -1.9393  4.2210  0.4183
   21MOL   H47912919   0.219   6.457   3.052 -0.9066 -1.1172 -0.7032
   21MOL   H48012920   0.073   6.533   3.116 -2.1524  0.1476  1.2507
   21MOL   H48112921   0.194   6.253   3.199 -1.1178 -0.3937 -0.2599
   21MOL   H48212922   0.066   6.259   3.084 -2.3299 -1.3418  0.5998
   21MOL   H48312923   0.011   6.206   3.336  1.5659 -0.4225  0.1033
   21MOL   H48412924   0.052   6.374   3.364  0.0275 -0.1270  0.1552
   21MOL   H48512925   7.641   6.408   3.173 -0.2878 -1.1370 -0.6378
   21MOL   H48612926   7.593   6.246   3.220  4.5010 -1.7995 -1.3894
   21MOL   H48712927   7.547   6.335   3.443  2.5410 -0.1395  0.3210
   21MOL   H48812928   7.615   6.480   3.406 -0.2450 -0.7563 -0.1295
   21MOL   H48912929   7.355   6.357   3.283 -0.0614 -0.3285  0.6053
   21MOL   H49012930   7.394   6.509   3.233  0.0118  0.1574  0.8780
   21MOL   H49112931   7.294   6.425   3.511  2.2312  1.0124  1.2048
   21MOL   H49212932   7.383   6.563   3.493 -1.3378  0.4548  1.0791
   21MOL   H49312933   7.150   6.618   3.453 -1.8931 -2.3564  0.9229
   21MOL   H49412934   7.129   6.488   3.335  0.3330  1.3334 -2.1541
   21MOL   H49512935   7.230   6.627   3.300  0.2458  0.1617  0.5075
   21MOL   H49612936   0.409   6.787   3.303  0.2426 -0.1489  0.3699
   21MOL   H49712937   0.363   6.657   3.408  1.6646  0.6367 -0.3254
   21MOL   C49812938   0.507   6.597   3.269 -0.0943  0.5846  0.0759
   21MOL   O49912939   0.612   6.647   3.356 -0.2171  0.4789 -0.4343
   21MOL   C50012940   0.710   6.553   3.393  0.8335 -0.8653 -0.1278
   21MOL   C50112941   0.825   6.636   3.445 -0.2321 -0.5477  0.2708
   21MOL   C50212942   0.915   6.685   3.324  0.2739 -0.8262  0.4958
   21MOL   C50312943   1.022   6.590   3.264  0.0382 -0.7103  0.0117
   21MOL   C50412944   1.123   6.647   3.164  0.6803  0.1377 -0.3615
   21MOL   C50512945   1.053   6.699   3.036 -0.4239  0.0767  0.0188
   21MOL   C50612946   1.148   6.747   2.919 -0.1689 -0.4598 -0.3994
   21MOL   C50712947   1.237   6.629   2.866 -0.0588  0.2261 -0.2949
   21MOL   C50812948   0.549   6.583   3.120 -0.2379 -0.6292  0.2210
   21MOL   H50912949   0.482   6.499   3.308 -0.7775  0.3585 -0.9253
   21MOL   H51012950   0.733   6.502   3.299  0.1969 -1.8962  0.2648
   21MOL   H51112951   0.658   6.483   3.459 -0.8661  0.3638 -0.1370
   21MOL   H51212952   0.889   6.572   3.504 -0.3576 -0.9176  0.0046
   21MOL   H51312953   0.801   6.721   3.509 -1.0541  1.0059 -2.0539
   21MOL   H51412954   0.849   6.731   3.250  0.5796 -0.3291  0.5257
   21MOL   H51512955   0.976   6.766   3.364 -1.9159  0.7794  0.6535
   21MOL   H51612956   1.086   6.553   3.344  2.7332 -0.6359 -2.0691
   21MOL   H51712957   0.975   6.498   3.232 -1.8941 -0.5044  2.1048
   21MOL   H51812958   1.175   6.727   3.216  1.2935  0.0205 -0.7901
   21MOL   H51912959   1.195   6.568   3.140 -0.0214 -0.7843  0.5459
   21MOL   H52012960   0.987   6.779   3.069 -0.4592 -0.5570  1.5213
   21MOL   H52112961   0.990   6.625   2.986  1.4130 -1.9869  0.6597
   21MOL   H52212962   1.087   6.797   2.844 -2.2778  0.5455  1.8923
   21MOL   H52312963   1.209   6.828   2.960  0.1467 -0.4213 -0.9469
   21MOL   H52412964   1.280   6.656   2.770  1.9782 -1.4414  0.1258
   21MOL   H52512965   1.167   6.553   2.831  1.0395 -0.6314 -0.6698
   21MOL   H52612966   1.304   6.594   2.944 -2.7705 -0.5177  1.7754
   21MOL   H52712967   0.490   6.657   3.066 -0.9440 -1.4142 -0.0931
   21MOL   H52812968   0.653   6.609   3.100 -0.1136 -1.8309 -0.7135
   21MOL   C52912969   0.521   6.448   3.043 -0.1061 -0.9823  0.3352
   21MOL   O53012970   0.639   6.373   3.067 -0.0088  0.5200 -0.7827
   21MOL   C53112971   0.639   6.279   3.177  0.3427 -0.3215 -0.0512
   21MOL   C53212972   0.776   6.207   3.189  0.4575 -0.4574 -0.3329
   21MOL   C53312973   0.793   6.121   3.309  0.1385  0.5767 -0.0803
   21MOL   C53412974   0.942   6.076   3.337  0.8492 -0.3517 -0.2677
   21MOL   C53512975   0.948   5.968   3.442  0.1752  0.4105 -0.4013
   21MOL   C53612976   1.075   5.880   3.443  0.2022 -0.3882  0.3847
   21MOL   C53712977   1.050   5.760   3.524  0.8439 -0.0024  0.0194
   21MOL   C53812978   1.154   5.655   3.505 -0.0871  0.0941 -0.0702
   21MOL   C53912979   0.494   6.455   2.893  0.2751 -0.1570 -0.3093
   21MOL   H54012980   0.441   6.393   3.091 -0.3223 -1.4548 -0.5655
   21MOL   H54112981   0.625   6.330   3.273  0.2694  2.3007 -1.3996
   21MOL   H54212982   0.560   6.204   3.166 -0.8100  1.1170 -2.0451
   21MOL   H54312983   0.863   6.272   3.186  1.7583 -2.2019 -1.8342
   21MOL   H54412984   0.795   6.142   3.104 -0.5570 -1.3188  0.0919
   21MOL   H54512985   0.748   6.162   3.399 -0.5934 -0.2454 -0.0707
   21MOL   H54612986   0.732   6.031   3.297 -2.6771  2.5501 -0.9785
   21MOL   H54712987   0.994   6.032   3.252  0.3009  1.3784 -1.5278
   21MOL   H54812988   1.012   6.157   3.358 -0.6191  0.3226  2.2795
   21MOL   H54912989   0.944   6.002   3.546 -0.0042  0.4844 -0.4324
   21MOL   H55012990   0.858   5.907   3.432 -1.1093  2.1977 -0.0858
   21MOL   H55112991   1.165   5.934   3.474  1.5129 -2.7438  0.7533
   21MOL   H55212992   1.095   5.862   3.338  1.1898  1.9280  0.1393
   21MOL   H55312993   1.042   5.789   3.628  0.4949 -0.6576  0.1838
   21MOL   H55412994   0.954   5.716   3.496  1.0149  0.6639 -1.6641
   21MOL   H55512995   1.254   5.697   3.499 -0.4893  0.9427 -0.9291
   21MOL   H55612996   1.128   5.593   3.420 -2.4278  0.2189  0.5179
   21MOL   H55712997   1.159   5.586   3.590  0.8828 -1.8299 -1.6528
   21MOL   H55812998   0.420   6.530   2.867 -0.5875 -0.7703  0.3629
   21MOL   H55912999   0.588   6.486   2.846 -1.3733  0.8423 -3.0305
   21MOL   C56013000   0.453   6.316   2.822 -0.0494  0.2029  0.2330
   21MOL   O56113001   0.454   6.323   2.682  0.2187  0.1003 -0.4333
   21MOL   C56213002   0.548   6.241   2.619  0.4945  0.2732  0.0812
   21MOL   C56313003   0.683   6.316   2.600 -0.7918 -0.1026  0.5355
   21MOL   C56413004   0.796   6.228   2.522 -0.6535 -0.1927  0.4879
   21MOL   C56513005   0.936   6.282   2.534 -0.0139  0.3563 -0.5568
   21MOL   C56613006   1.036   6.185   2.471  0.4425  0.1290 -0.1479
   21MOL   C56713007   1.174   6.222   2.514 -0.0572 -1.1342  0.1213
   21MOL   C56813008   1.294   6.161   2.446 -0.1793  0.3091  0.4862
   21MOL   C56913009   1.427   6.174   2.523 -0.0331  0.6579  0.5454
   21MOL   C57013010   0.317   6.245   2.871 -0.0713 -0.1314 -0.1687
   21MOL   H57113011   0.534   6.251   2.857  2.0225  2.2207 -0.7296
   21MOL   H57213012   0.502   6.225   2.521  1.0972  1.7423 -0.4592
   21MOL   H57313013   0.565   6.144   2.667 -0.8692 -0.0200 -0.0162
   21MOL   H57413014   0.724   6.344   2.697  1.5839  0.9846 -0.7591
   21MOL   H57513015   0.657   6.406   2.544  0.2343  0.3610  0.8045
   21MOL   H57613016   0.802   6.126   2.559  0.1166 -0.0989  0.6405
   21MOL   H57713017   0.772   6.218   2.416 -2.0776  0.7016  0.7109
   21MOL   H57813018   0.947   6.376   2.481 -0.9033 -0.1691 -1.6932
   21MOL   H57913019   0.966   6.291   2.639  0.3390 -0.7778 -0.5567
   21MOL   H58013020   1.019   6.081   2.499  1.9056  0.3459  1.6886
   21MOL   H58113021   1.023   6.196   2.364 -1.7254 -0.8096  0.0061
   21MOL   H58213022   1.183   6.212   2.622  3.3914  3.1906  0.3870
   21MOL   H58313023   1.184   6.330   2.500 -0.3086 -1.0165  0.8433
   21MOL   H58413024   1.271   6.059   2.417  0.2197  1.0036 -2.4933
   21MOL   H58513025   1.305   6.211   2.349  0.3058  0.5180  0.6444
   21MOL   H58613026   1.496   6.118   2.460 -0.6663  1.9726 -1.3636
   21MOL   H58713027   1.421   6.133   2.624 -1.0749 -0.7419 -0.0589
   21MOL   H58813028   1.467   6.274   2.535 -1.5267  1.6099 -2.1517
   21MOL   H58913029   0.329   6.240   2.979 -0.8354 -0.6787 -0.1081
   21MOL   H59013030   0.234   6.314   2.853  0.2751  0.1788 -0.5997
   21MOL   C59113031   0.278   6.108   2.832 -0.0344  0.5166  0.3202
   21MOL   O59213032   0.383   6.015   2.844 -0.0636  0.2815 -0.3637
   21MOL   C59313033   0.406   5.972   2.978 -0.4133  0.4186  0.5749
   21MOL   C59413034   0.517   5.878   2.994  0.3977 -0.2246  0.5710
   21MOL   C59513035   0.501   5.761   2.897  0.1188 -0.1249 -0.7793
   21MOL   C59613036   0.388   5.672   2.936  0.3602  0.2406 -0.5539
   21MOL   C59713037   0.369   5.562   2.840 -0.1837  0.4869  0.0222
   21MOL   C59813038   0.254   5.464   2.885 -1.3664  0.2243 -0.5821
   21MOL   C59913039   0.250   5.339   2.791 -0.1925  0.4733 -0.4230
   21MOL   C60013040   0.146   5.240   2.849 -0.0188 -0.2387  0.0548
   21MOL   C60113041   0.212   6.099   2.700 -0.0828  0.4432  0.1842
   21MOL   H60213042   0.206   6.072   2.906  0.3063 -2.1899 -0.6459
   21MOL   H60313043   0.313   5.922   3.007  0.7291 -1.4817  1.0451
   21MOL   H60413044   0.416   6.051   3.051  2.4061 -0.2624  0.9751
   21MOL   H60513045   0.516   5.843   3.098 -1.2396  0.2547  0.7329
   21MOL   H60613046   0.610   5.921   2.957 -0.3650  1.2444  0.3310
   21MOL   H60713047   0.476   5.793   2.795  1.4794  0.0857 -1.0620
   21MOL   H60813048   0.588   5.702   2.870  1.1979  1.3622 -0.5989
   21MOL   H60913049   0.405   5.628   3.034 -0.0415 -0.2421 -0.6969
   21MOL   H61013050   0.295   5.729   2.935  0.8847  1.0956 -1.0325
   21MOL   H61113051   0.347   5.598   2.740  0.0325 -1.0480 -0.5932
   21MOL   H61213052   0.461   5.504   2.838  0.0518  0.8881 -1.4134
   21MOL   H61313053   0.169   5.531   2.872  0.4501  2.7766  0.2903
   21MOL   H61413054   0.259   5.435   2.990 -0.3207 -0.2580 -0.7596
   21MOL   H61513055   0.233   5.373   2.689  1.4882 -0.8585 -1.1747
   21MOL   H61613056   0.352   5.301   2.785 -0.7233 -1.3226  1.5407
   21MOL   H61713057   0.052   5.288   2.822  1.0381  0.2806 -2.9320
   21MOL   H61813058   0.163   5.222   2.955 -0.0441 -2.0477 -0.2330
   21MOL   H61913059   0.164   5.144   2.801  0.2831  0.9011 -2.2246
   21MOL   H62013060   0.122   6.161   2.699 -0.3847  0.0405  1.3126
   21MOL   H62113061   0.277   6.151   2.630  2.6117 -1.9281  0.8189
   21MOL   H62213062   0.195   5.996   2.670  0.4462  0.8669 -1.5914
   22MOL     C113063   4.816   4.645   1.525 -0.5560  0.1096 -0.1754
   22MOL     O213064   4.838   4.518   1.593  0.9464  0.5358 -0.5753
   22MOL     C313065   4.934   4.425   1.541 -0.0920 -0.2537  0.6062
   22MOL     C413066   4.925   4.293   1.621 -0.1636 -0.0924 -0.2174
   22MOL     C513067   4.789   4.221   1.617  0.2955  0.2392  0.0741
   22MOL     C613068   4.796   4.091   1.688 -0.1223  0.3575 -0.1734
   22MOL     C713069   4.676   3.997   1.681 -0.2962  0.1168  0.0678
   22MOL     C813070   4.699   3.862   1.760  0.0190 -0.3557 -0.1538
   22MOL     C913071   4.574   3.764   1.766 -0.1339  1.1323  0.2473
   22MOL    C1013072   4.559   3.698   1.628 -0.1400  0.1011  0.4132
   22MOL    C1113073   4.925   4.744   1.572  0.8802 -0.0367  0.0887
   22MOL    H1213074   4.826   4.636   1.416  2.7404  1.2380  0.0017
   22MOL    H1313075   5.037   4.457   1.528 -0.0013 -1.1319 -0.9050
   22MOL    H1413076   4.904   4.403   1.438 -0.7056  1.7024  0.3545
   22MOL    H1513077   4.955   4.322   1.722 -2.3300 -0.1609  0.4686
   22MOL    H1613078   5.004   4.227   1.586 -0.4605 -0.6566  0.1724
   22MOL    H1713079   4.713   4.289   1.658  1.2222  2.1990 -1.3433
   22MOL    H1813080   4.755   4.190   1.518 -0.3419 -0.7404  0.5860
   22MOL    H1913081   4.887   4.038   1.661 -0.6424  0.2555 -1.7451
   22MOL    H2013082   4.809   4.114   1.794 -0.5228  1.5604 -0.3783
   22MOL    H2113083   4.587   4.044   1.722  0.4636  1.5690  0.0805
   22MOL    H2213084   4.665   3.986   1.573  0.5555  0.9145 -0.1111
   22MOL    H2313085   4.707   3.898   1.863 -1.0684  0.3492 -0.3031
   22MOL    H2413086   4.790   3.804   1.746 -0.1776 -0.5259 -0.7601
   22MOL    H2513087   4.595   3.693   1.846  0.8081 -0.6211 -1.5199
   22MOL    H2613088   4.490   3.831   1.782 -0.0451  1.4997 -0.7954
   22MOL    H2713089   4.650   3.653   1.587  0.5513 -0.1693  2.2089
   22MOL    H2813090   4.533   3.772   1.552 -1.6695 -1.7887 -0.9649
   22MOL    H2913091   4.480   3.624   1.613 -2.8805  2.7602  1.4061
   22MOL    H3013092   4.929   4.735   1.681  1.2770  1.9588  0.2465
   22MOL    H3113093   5.023   4.713   1.537  1.2484  0.4322  0.6927
   22MOL    H3213094   4.712   4.679   1.536  0.9438  4.3519  2.2010
   22MOL    C3313095   4.883   4.890   1.522 -0.0583  0.2038 -0.1488
   22MOL    O3413096   4.862   4.883   1.380  0.5060 -0.2703 -0.3291
   22MOL    C3513097   4.753   4.954   1.335  0.7810  0.4744  0.0664
   22MOL    C3613098   4.779   4.996   1.189  0.1879 -0.2880  0.2000
   22MOL    C3713099   4.657   5.035   1.105  0.0988 -0.2742 -0.4931
   22MOL    C3813100   4.694   5.055   0.956 -0.3524  0.0004 -1.0023
   22MOL    C3913101   4.567   5.093   0.870 -0.1609  0.2456  0.0496
   22MOL    C4013102   4.513   5.233   0.908  0.0730  1.0552  0.0255
   22MOL    C4113103   4.580   5.344   0.839  0.0683  0.2528  0.0862
   22MOL    C4213104   4.530   5.478   0.887 -0.6733  0.8523 -0.0076
   22MOL    C4313105   4.986   4.997   1.548 -0.0781 -0.6253  0.0174
   22MOL    H4413106   4.790   4.906   1.576  0.0507  0.2186  0.0349
   22MOL    H4513107   4.748   5.051   1.384 -1.5257 -0.1419  1.1206
   22MOL    H4613108   4.672   4.882   1.351  1.2506 -0.9238 -3.3945
   22MOL    H4713109   4.818   4.910   1.134 -3.8838 -1.3874 -1.0899
   22MOL    H4813110   4.859   5.070   1.187 -1.7453  1.8674  0.4830
   22MOL    H4913111   4.584   4.956   1.126 -0.4495  0.0621 -1.1360
   22MOL    H5013112   4.603   5.116   1.153  0.1824  0.1698 -1.1424
   22MOL    H5113113   4.769   5.134   0.950 -0.3677 -0.0324 -1.6622
   22MOL    H5213114   4.733   4.967   0.906 -1.1241 -0.1311 -1.3733
   22MOL    H5313115   4.608   5.099   0.769 -0.0095  1.4025  0.1796
   22MOL    H5413116   4.493   5.013   0.866 -0.4759  0.5485 -0.1659
   22MOL    H5513117   4.520   5.244   1.016 -0.1422  1.9675 -0.0459
   22MOL    H5613118   4.407   5.246   0.884 -0.1838  0.6319  0.9135
   22MOL    H5713119   4.685   5.343   0.868 -0.1048 -0.1467  0.7151
   22MOL    H5813120   4.569   5.344   0.731  2.6383 -1.6047 -0.2083
   22MOL    H5913121   4.436   5.497   0.836 -0.6197  0.3097 -0.3090
   22MOL    H6013122   4.593   5.558   0.848  2.0537 -1.0921  0.2415
   22MOL    H6113123   4.521   5.471   0.995  0.5334  1.7075  0.1692
   22MOL    H6213124   5.076   4.950   1.509 -0.0393 -0.6759  0.1720
   22MOL    H6313125   4.980   5.085   1.484  1.2801  0.6725  1.6148
   22MOL    C6413126   5.008   5.049   1.694  0.7020  0.1130  0.7096
   22MOL    O6513127   4.888   5.133   1.708 -0.4907  0.7957  0.0989
   22MOL    C6613128   4.876   5.192   1.838  0.3288  0.0243 -0.2441
   22MOL    C6713129   4.728   5.229   1.872  0.1832 -0.0410  0.3752
   22MOL    C6813130   4.643   5.103   1.885  0.6253  0.6278 -0.4046
   22MOL    C6913131   4.501   5.127   1.920  0.4317  0.2135 -0.0283
   22MOL    C7013132   4.428   4.991   1.945 -0.1790  0.6159  0.4657
   22MOL    C7113133   4.296   4.986   2.006 -0.4001 -0.5609 -0.3481
   22MOL    C7213134   4.246   4.852   2.055  0.6909 -0.3598 -0.0037
   22MOL    C7313135   4.096   4.857   2.093 -0.4594 -0.3752 -0.1685
   22MOL    C7413136   5.134   5.133   1.694 -0.7494 -0.7713 -0.2351
   22MOL    H7513137   5.017   4.974   1.773  0.0920 -0.8134 -0.0914
   22MOL    H7613138   4.947   5.275   1.843 -1.5553  1.7090 -0.9524
   22MOL    H7713139   4.906   5.132   1.924 -1.8944  1.3607  1.5089
   22MOL    H7813140   4.680   5.298   1.803  2.3915 -0.3605 -1.5282
   22MOL    H7913141   4.748   5.278   1.967 -0.6211  0.1099  0.4667
   22MOL    H8013142   4.649   5.043   1.794  0.8146 -0.4002  0.2821
   22MOL    H8113143   4.699   5.053   1.964 -0.1262  1.9933  1.0360
   22MOL    H8213144   4.488   5.187   2.010 -2.1519 -1.7978  1.0308
   22MOL    H8313145   4.459   5.183   1.836 -1.7043 -1.0146  0.1528
   22MOL    H8413146   4.417   4.928   1.857 -1.2424  1.3490  0.0720
   22MOL    H8513147   4.502   4.939   2.007  1.0743  0.3836 -1.2070
   22MOL    H8613148   4.224   5.029   1.936 -1.4070  0.3516  1.2134
   22MOL    H8713149   4.313   5.041   2.099  1.9298  0.7202 -1.4806
   22MOL    H8813150   4.256   4.773   1.980 -0.9541 -1.4492  0.9044
   22MOL    H8913151   4.304   4.813   2.139 -0.6752 -1.1439  0.6004
   22MOL    H9013152   4.057   4.761   2.125  0.1980 -1.3375 -2.1697
   22MOL    H9113153   4.043   4.881   2.001 -0.9644 -1.8455 -0.2662
   22MOL    H9213154   4.074   4.930   2.171 -1.7313  0.5713 -1.4001
   22MOL    H9313155   5.115   5.225   1.638 -2.2340 -0.2354  1.1174
   22MOL    H9413156   5.140   5.186   1.789 -0.2026 -1.1447 -0.0603
   22MOL    C9513157   5.264   5.054   1.675 -0.5725  0.3998 -0.0416
   22MOL    O9613158   5.276   4.965   1.783  0.0644 -0.2098  0.0685
   22MOL    C9713159   5.313   4.834   1.739 -0.1546  0.2501 -0.0451
   22MOL    C9813160   5.310   4.735   1.857 -0.4430  0.5146  0.3177
   22MOL    C9913161   5.351   4.599   1.799 -0.7407  0.3766 -0.7867
   22MOL   C10013162   5.313   4.490   1.906  0.5277 -0.1475  0.1762
   22MOL   C10113163   5.163   4.466   1.935  0.2217 -0.9010  0.0795
   22MOL   C10213164   5.131   4.326   1.984 -0.0132  0.1382 -0.0497
   22MOL   C10313165   5.164   4.297   2.131  0.2749  0.3974  0.3994
   22MOL   C10413166   5.055   4.333   2.228  0.2510  0.4875  0.0779
   22MOL   C10513167   5.384   5.147   1.675 -0.3461  0.3305  0.9143
   22MOL   H10613168   5.270   5.003   1.578 -0.6894  3.2125 -1.6020
   22MOL   H10713169   5.410   4.844   1.691  0.1558 -1.2739  0.2277
   22MOL   H10813170   5.249   4.800   1.658  1.8042  0.8842 -1.8939
   22MOL   H10913171   5.207   4.742   1.891 -1.3647 -1.3299 -1.9424
   22MOL   H11013172   5.379   4.769   1.934  1.1979  2.7400 -2.0164
   22MOL   H11113173   5.296   4.586   1.706  1.3121  1.2907 -2.1589
   22MOL   H11213174   5.457   4.596   1.771 -0.2261 -0.5371  1.1754
   22MOL   H11313175   5.369   4.405   1.867  3.5713  0.3570  3.2118
   22MOL   H11413176   5.359   4.518   2.001 -0.8886 -0.3094  0.9311
   22MOL   H11513177   5.129   4.540   2.008  1.9128 -1.2335  1.2410
   22MOL   H11613178   5.105   4.490   1.846  1.5236  1.5806 -0.1556
   22MOL   H11713179   5.181   4.260   1.914 -1.1217  0.0874 -0.8008
   22MOL   H11813180   5.029   4.291   1.969 -0.7853  2.5698 -0.7662
   22MOL   H11913181   5.198   4.194   2.144  1.0661  0.4724 -0.9114
   22MOL   H12013182   5.253   4.345   2.171 -0.2034  2.5626 -1.0345
   22MOL   H12113183   4.974   4.265   2.205  0.6448  0.4028 -1.0609
   22MOL   H12213184   5.011   4.431   2.208  0.7240  1.3402  2.8934
   22MOL   H12313185   5.091   4.337   2.331 -3.9658  3.3731  1.5789
   22MOL   H12413186   5.399   5.193   1.773 -0.8690 -2.5956  2.4115
   22MOL   H12513187   5.475   5.087   1.675  0.1431  1.0613  0.6739
   22MOL   C12613188   5.395   5.262   1.577  0.4133  0.3894 -0.2570
   22MOL   O12713189   5.311   5.373   1.607 -0.1040  0.4656  0.0168
   22MOL   C12813190   5.337   5.444   1.727 -0.5533 -0.8238 -0.7878
   22MOL   C12913191   5.264   5.573   1.742 -0.6624 -0.4821  0.4139
   22MOL   C13013192   5.112   5.545   1.765 -0.1768  0.2019  0.1194
   22MOL   C13113193   5.033   5.672   1.773 -0.0350 -0.1062 -0.0895
   22MOL   C13213194   4.877   5.656   1.792 -0.6330  0.2288  0.0641
   22MOL   C13313195   4.834   5.635   1.934  1.1546 -0.7605 -0.0933
   22MOL   C13413196   4.684   5.640   1.956  0.2599 -0.4159  0.5949
   22MOL   C13513197   4.626   5.782   1.966 -0.3416 -0.0180 -0.6801
   22MOL   C13613198   5.369   5.220   1.435  0.7249  0.3277  0.6009
   22MOL   H13713199   5.494   5.306   1.590 -0.2754  2.5127 -1.9086
   22MOL   H13813200   5.443   5.466   1.735 -0.4330 -1.1776 -1.3831
   22MOL   H13913201   5.313   5.383   1.814 -0.6449  0.8646  0.4038
   22MOL   H14013202   5.285   5.635   1.655 -1.5574  1.0281  1.2493
   22MOL   H14113203   5.304   5.621   1.831 -3.5457  1.8879  0.4913
   22MOL   H14213204   5.073   5.497   1.675  0.9309  0.7819 -0.6856
   22MOL   H14313205   5.095   5.485   1.854 -0.9309 -1.4350 -1.0922
   22MOL   H14413206   5.080   5.727   1.854  0.3846  1.5552 -1.4171
   22MOL   H14513207   5.034   5.723   1.676 -0.7040  2.8729  1.4299
   22MOL   H14613208   4.830   5.749   1.763  1.3745  1.2799  0.0539
   22MOL   H14713209   4.853   5.577   1.721 -0.5774  0.6207 -0.3937
   22MOL   H14813210   4.892   5.698   2.001  0.7841 -2.5410  1.9419
   22MOL   H14913211   4.884   5.544   1.966  1.2176 -0.1770  1.4945
   22MOL   H15013212   4.626   5.589   1.879 -1.0153  3.6205 -1.2401
   22MOL   H15113213   4.663   5.585   2.048 -1.0988 -1.8600 -0.5398
   22MOL   H15213214   4.637   5.835   1.871 -1.8117  0.3874 -0.6256
   22MOL   H15313215   4.689   5.845   2.029  2.0558 -0.4339 -2.5503
   22MOL   H15413216   4.529   5.791   2.014  1.5189 -0.5337  3.4073
   22MOL   H15513217   5.268   5.179   1.440  0.8287  0.1925  1.6524
   22MOL   H15613218   5.357   5.311   1.376 -0.3060  0.4714  1.0150
   22MOL   C15713219   5.468   5.115   1.370  0.4126 -0.7235  0.2523
   22MOL   O15813220   5.595   5.166   1.389  0.4061 -0.1393  0.2339
   22MOL   C15913221   5.701   5.086   1.343 -0.3148  0.2870  0.4179
   22MOL   C16013222   5.830   5.141   1.409  0.1775 -0.0245 -0.3107
   22MOL   C16113223   5.959   5.074   1.354 -0.6441  0.0569 -0.2731
   22MOL   C16213224   6.092   5.131   1.406  0.3849  0.5447  0.6775
   22MOL   C16313225   6.117   5.107   1.557 -0.4866 -1.0315 -1.0713
   22MOL   C16413226   6.252   5.157   1.610  0.4572 -0.3076 -0.2273
   22MOL   C16513227   6.372   5.086   1.548 -0.2400  0.3182  0.9584
   22MOL   C16613228   6.503   5.144   1.589 -0.3114 -0.1938 -0.2224
   22MOL   C16713229   5.432   5.083   1.222 -0.4602 -0.0324 -0.0902
   22MOL   H16813230   5.476   5.021   1.423  1.0082 -0.5886  0.4056
   22MOL   H16913231   5.716   5.109   1.237 -0.0271  2.1009  0.8385
   22MOL   H17013232   5.689   4.978   1.350 -0.5992  0.2662 -0.3142
   22MOL   H17113233   5.820   5.123   1.516  2.7133  1.0703  0.1413
   22MOL   H17213234   5.837   5.249   1.405  1.1612 -0.0951 -0.7148
   22MOL   H17313235   5.957   4.966   1.370 -0.3149  0.1394  0.3311
   22MOL   H17413236   5.955   5.076   1.245  1.4015 -1.5065 -0.4238
   22MOL   H17513237   6.169   5.087   1.342 -1.6808 -0.3766 -1.2101
   22MOL   H17613238   6.082   5.238   1.386  0.3961  0.6473  1.1939
   22MOL   H17713239   6.034   5.150   1.613  0.1204 -0.2004 -0.8054
   22MOL   H17813240   6.112   5.001   1.582  2.8690 -0.7220  1.3616
   22MOL   H17913241   6.258   5.147   1.718 -0.0998 -2.7028 -0.3915
   22MOL   H18013242   6.244   5.262   1.582 -0.6719 -0.3327 -0.0016
   22MOL   H18113243   6.355   4.979   1.564  0.9008  0.0890  0.6713
   22MOL   H18213244   6.365   5.098   1.440  0.0877  2.4424  1.1652
   22MOL   H18313245   6.526   5.134   1.695  1.2268  1.2834 -0.3973
   22MOL   H18413246   6.508   5.252   1.574  0.1963 -0.0992  0.5759
   22MOL   H18513247   6.590   5.101   1.539  0.8092  0.4177  1.1622
   22MOL   H18613248   5.416   5.176   1.167  1.3084  0.3533 -0.0037
   22MOL   H18713249   5.514   5.039   1.166 -0.7627 -0.3939 -0.2500
   22MOL   C18813250   5.306   4.997   1.204  0.9441  0.8402 -0.4888
   22MOL   O18913251   5.366   4.867   1.225  0.8277 -0.4227 -0.2694
   22MOL   C19013252   5.270   4.771   1.270  0.4407 -0.2607 -0.1664
   22MOL   C19113253   5.356   4.656   1.327  0.5590 -0.7375  0.7406
   22MOL   C19213254   5.282   4.547   1.402  0.8301  0.1308  0.2168
   22MOL   C19313255   5.373   4.433   1.448 -1.1544  0.9738 -0.1648
   22MOL   C19413256   5.294   4.314   1.501 -0.3618 -0.3240  0.0566
   22MOL   C19513257   5.382   4.201   1.541  0.4463  0.0931  0.3102
   22MOL   C19613258   5.309   4.076   1.597  0.4221 -0.6653 -0.3106
   22MOL   C19713259   5.231   3.996   1.493 -0.1546  0.6303 -0.0502
   22MOL   C19813260   5.261   5.006   1.053 -0.7677 -0.1015 -1.3318
   22MOL   H19913261   5.218   5.009   1.268  2.0417 -0.0331  1.2136
   22MOL   H20013262   5.198   4.805   1.345 -0.5107 -3.4764  0.4311
   22MOL   H20113263   5.214   4.738   1.183 -2.1763  0.1018  1.3391
   22MOL   H20213264   5.419   4.701   1.404 -1.0445  1.4513  0.7854
   22MOL   H20313265   5.420   4.621   1.245 -0.1773  0.2024 -0.2344
   22MOL   H20413266   5.225   4.587   1.486  1.8589  0.7941  0.6065
   22MOL   H20513267   5.200   4.510   1.341  0.9511 -0.5012  0.4311
   22MOL   H20613268   5.423   4.398   1.358 -0.2336  1.5353  0.1254
   22MOL   H20713269   5.448   4.462   1.522 -1.1418 -1.2163  0.7252
   22MOL   H20813270   5.243   4.346   1.591  1.1363  0.2378  0.7221
   22MOL   H20913271   5.221   4.276   1.429  0.6223 -1.8966 -0.1265
   22MOL   H21013272   5.455   4.235   1.615  0.3221 -1.0980  0.9858
   22MOL   H21113273   5.437   4.165   1.454 -1.2182  0.6299 -0.9869
   22MOL   H21213274   5.389   4.010   1.633 -0.6140 -1.5329  0.4257
   22MOL   H21313275   5.239   4.097   1.678  0.0125  0.6398 -0.9969
   22MOL   H21413276   5.164   4.064   1.440 -0.7059 -0.2450 -0.4868
   22MOL   H21513277   5.171   3.921   1.543 -2.0610  1.3849 -1.1351
   22MOL   H21613278   5.307   3.945   1.434  1.0178  1.0878  1.0572
   22MOL   H21713279   5.350   4.990   0.992  1.9205 -1.1835  2.6407
   22MOL   H21813280   5.191   4.926   1.029 -2.8641  1.7866 -1.6625
   22MOL   C21913281   5.188   5.127   1.002  0.2853 -0.1736 -0.2113
   22MOL   O22013282   5.080   5.167   1.085  0.2415 -0.3371 -0.6248
   22MOL   C22113283   5.095   5.305   1.140 -0.2232  0.0307  0.6553
   22MOL   C22213284   4.984   5.347   1.230 -0.1999 -0.2482  0.0437
   22MOL   C22313285   4.850   5.386   1.158  0.0801  0.8052 -0.7427
   22MOL   C22413286   4.744   5.423   1.272 -0.0255  0.1201  0.3418
   22MOL   C22513287   4.771   5.561   1.333  0.5077  0.0922  0.1578
   22MOL   C22613288   4.676   5.597   1.446  0.8029 -0.0180 -0.0599
   22MOL   C22713289   4.655   5.746   1.470  0.4538  0.2854 -0.4773
   22MOL   C22813290   4.560   5.771   1.591 -0.1127  0.2937 -0.0417
   22MOL   C22913291   5.122   5.113   0.861 -0.0193 -0.0570 -0.7038
   22MOL   H23013292   5.266   5.200   0.983  2.7405 -2.5611  0.4082
   22MOL   H23113293   5.122   5.378   1.064 -3.1305 -0.1922 -0.6432
   22MOL   H23213294   5.186   5.291   1.199 -1.7862  1.6422  3.5303
   22MOL   H23313295   5.010   5.430   1.295  0.8639  0.7593 -1.6119
   22MOL   H23413296   4.961   5.268   1.301 -0.4644 -0.8140 -0.6650
   22MOL   H23513297   4.874   5.462   1.084 -2.7597  0.7878 -1.7350
   22MOL   H23613298   4.819   5.294   1.108 -1.1352 -0.9390  2.9698
   22MOL   H23713299   4.650   5.423   1.217  0.2638  1.5896 -0.1558
   22MOL   H23813300   4.733   5.344   1.347 -2.6292  2.0009  2.0010
   22MOL   H23913301   4.872   5.563   1.375  0.6073  2.3717 -0.1122
   22MOL   H24013302   4.776   5.638   1.256  1.1539 -0.9569 -0.8670
   22MOL   H24113303   4.697   5.547   1.541 -1.4277 -1.9093 -0.5180
   22MOL   H24213304   4.580   5.561   1.411  0.8860  1.3629 -1.7795
   22MOL   H24313305   4.748   5.797   1.497  1.7630 -1.7056 -1.1061
   22MOL   H24413306   4.626   5.811   1.387  1.0746 -1.4934 -2.1244
   22MOL   H24513307   4.468   5.719   1.564 -0.3972  0.5788  0.3829
   22MOL   H24613308   4.541   5.878   1.599  1.9761  0.6142  1.0194
   22MOL   H24713309   4.607   5.727   1.679 -0.5584 -0.5967 -0.2407
   22MOL   H24813310   5.051   5.031   0.866  1.4444 -1.3138 -0.2968
   22MOL   H24913311   5.049   5.194   0.865  2.1246  1.8749  0.4075
   22MOL   C25013312   5.226   5.098   0.748 -0.4486  0.3381  0.4704
   22MOL   O25113313   5.235   5.232   0.714 -0.3873 -0.8034  0.4220
   22MOL   C25213314   5.320   5.266   0.603 -0.0702 -0.3552 -0.4929
   22MOL   C25313315   5.449   5.343   0.641  0.5036  0.6439 -0.3387
   22MOL   C25413316   5.565   5.330   0.535  0.4589 -0.2341 -0.5985
   22MOL   C25513317   5.706   5.356   0.594  0.0969 -0.0658 -0.4636
   22MOL   C25613318   5.821   5.356   0.491  0.4596  0.0612 -0.6207
   22MOL   C25713319   5.850   5.220   0.423  0.6949  0.6482  0.1123
   22MOL   C25813320   5.962   5.248   0.314  0.3748  0.6452  0.0097
   22MOL   C25913321   6.004   5.127   0.238 -0.6859 -0.4183  0.3615
   22MOL   C26013322   5.147   5.021   0.629 -0.0123  0.2073  0.2760
   22MOL   H26113323   5.319   5.053   0.782  0.6836  1.9295 -0.4628
   22MOL   H26213324   5.278   5.325   0.520  0.4173  0.3784 -0.2242
   22MOL   H26313325   5.357   5.177   0.553 -0.3857 -1.7840  1.7747
   22MOL   H26413326   5.476   5.306   0.740  0.2110 -2.0133 -1.2105
   22MOL   H26513327   5.419   5.447   0.647 -0.5828  0.2910  0.4610
   22MOL   H26613328   5.566   5.229   0.496  0.2139  0.4657 -2.4720
   22MOL   H26713329   5.546   5.402   0.456 -0.9363  0.1244  0.0385
   22MOL   H26813330   5.711   5.458   0.632  1.8604 -0.6074  0.8326
   22MOL   H26913331   5.722   5.283   0.673 -0.3194  3.5681  3.0934
   22MOL   H27013332   5.788   5.426   0.414 -0.7429 -0.4320 -0.5615
   22MOL   H27113333   5.901   5.390   0.556  1.1906 -2.5181 -0.1222
   22MOL   H27213334   5.761   5.183   0.370  0.8008 -1.2456  1.2004
   22MOL   H27313335   5.870   5.142   0.496 -1.9576  0.0247  0.2521
   22MOL   H27413336   5.921   5.320   0.243  0.7118  1.6046  0.7904
   22MOL   H27513337   6.049   5.290   0.364  0.8910 -1.3285  0.8194
   22MOL   H27613338   6.068   5.056   0.292  0.7720  0.6261  0.0478
   22MOL   H27713339   6.064   5.164   0.156 -1.2646  2.4932  1.2010
   22MOL   H27813340   5.925   5.080   0.180 -0.7296 -0.8601  0.7685
   22MOL   H27913341   5.061   5.086   0.610  0.1119  0.4805  0.6365
   22MOL   H28013342   5.200   5.022   0.534 -0.5040  0.0798 -0.0014
   22MOL   C28113343   5.107   4.872   0.656  0.0536 -0.1033 -0.0928
   22MOL   O28213344   5.224   4.815   0.698  0.2248  0.1675  0.5390
   22MOL   C28313345   5.205   4.701   0.784  0.8288  0.3493  0.0993
   22MOL   C28413346   5.346   4.637   0.828  0.1765  0.0586  0.4719
   22MOL   C28513347   5.327   4.521   0.931  0.0711  0.6663 -0.1166
   22MOL   C28613348   5.454   4.455   0.976  0.0771 -0.1783 -0.8810
   22MOL   C28713349   5.448   4.335   1.071 -0.0263  0.6750 -0.1655
   22MOL   C28813350   5.440   4.201   0.994 -0.2254 -0.1583  0.1044
   22MOL   C28913351   5.447   4.090   1.099  0.4676  0.7026 -0.2002
   22MOL   C29013352   5.305   4.032   1.115  0.7459 -0.5921 -0.3577
   22MOL   C29113353   5.053   4.798   0.530  0.1876 -0.0613  0.4254
   22MOL   H29213354   5.039   4.868   0.741  1.2705 -0.5378  0.8843
   22MOL   H29313355   5.147   4.617   0.746  1.3222  0.8770 -1.9198
   22MOL   H29413356   5.149   4.738   0.869  0.1905  1.9703 -1.0187
   22MOL   H29513357   5.407   4.714   0.874  0.5481 -0.4410  0.8213
   22MOL   H29613358   5.391   4.598   0.737  0.1228  1.2795 -0.0950
   22MOL   H29713359   5.266   4.549   1.017  0.2214 -0.2411  0.2908
   22MOL   H29813360   5.272   4.442   0.880  3.8569 -1.3134 -1.3802
   22MOL   H29913361   5.523   4.430   0.894  3.2509  1.1190  1.2811
   22MOL   H30013362   5.510   4.540   1.017 -1.0658  0.1417  0.0166
   22MOL   H30113363   5.535   4.346   1.136 -1.0392 -1.7300  1.6711
   22MOL   H30213364   5.360   4.341   1.134  0.3745  1.1556  0.3470
   22MOL   H30313365   5.527   4.188   0.930 -0.2359  1.9502 -0.3622
   22MOL   H30413366   5.352   4.205   0.931 -0.2124  1.6331  0.1778
   22MOL   H30513367   5.503   4.011   1.051  0.6674  1.4124 -1.1454
   22MOL   H30613368   5.493   4.118   1.194 -1.5552  1.9818  0.4342
   22MOL   H30713369   5.264   4.005   1.017  0.1572  0.3979 -0.3923
   22MOL   H30813370   5.246   4.114   1.155 -1.0822 -2.6190  1.2137
   22MOL   H30913371   5.294   3.948   1.183 -0.7632  0.8881  1.2749
   22MOL   H31013372   5.121   4.816   0.446 -0.3715 -1.2702 -0.2970
   22MOL   H31113373   5.066   4.692   0.548  1.2539 -0.1099 -0.5038
   22MOL   C31213374   4.906   4.811   0.491 -0.3768  1.1358  0.2643
   22MOL   O31313375   4.834   4.741   0.591 -0.0315  0.1095  0.3209
   22MOL   C31413376   4.725   4.804   0.654 -0.2715  0.1787 -0.2505
   22MOL   C31513377   4.672   4.704   0.752 -0.3608  0.3557 -0.5104
   22MOL   C31613378   4.628   4.574   0.688 -0.7410 -0.3959  0.1471
   22MOL   C31713379   4.569   4.463   0.773  0.1475  0.3373  0.5550
   22MOL   C31813380   4.507   4.349   0.690 -0.4895  0.0660  0.2582
   22MOL   C31913381   4.471   4.234   0.786  0.0754 -0.5678  0.5528
   22MOL   C32013382   4.388   4.132   0.711 -0.3207 -0.0151  0.3562
   22MOL   C32113383   4.354   4.015   0.800 -0.7710 -0.0610 -0.1595
   22MOL   C32213384   4.879   4.749   0.352  0.0039 -0.4227  0.4696
   22MOL   H32313385   4.889   4.919   0.494  0.4075  1.2048  2.6258
   22MOL   H32413386   4.649   4.838   0.584  0.5955  2.4809 -0.1162
   22MOL   H32513387   4.777   4.883   0.707 -0.3201  1.4684 -2.0819
   22MOL   H32613388   4.587   4.754   0.799  0.6982  1.7443 -0.0543
   22MOL   H32713389   4.752   4.678   0.822 -0.3219  0.3340 -0.5628
   22MOL   H32813390   4.552   4.597   0.612  0.2542 -0.0487 -0.7511
   22MOL   H32913391   4.714   4.526   0.643 -1.8835  0.2701 -2.9154
   22MOL   H33013392   4.657   4.436   0.832 -0.5386  1.9883  2.4265
   22MOL   H33113393   4.493   4.504   0.840 -0.2594 -0.9572  0.8974
   22MOL   H33213394   4.416   4.382   0.639 -0.3115 -0.7784 -0.6237
   22MOL   H33313395   4.583   4.314   0.620  0.2573 -2.8502  2.4001
   22MOL   H33413396   4.410   4.273   0.868 -2.2471 -0.4275 -1.2052
   22MOL   H33513397   4.564   4.190   0.823  0.8944  0.7504  0.0966
   22MOL   H33613398   4.299   4.164   0.657 -0.4442 -0.7836  0.0932
   22MOL   H33713399   4.448   4.100   0.625  0.9042  0.4666  1.0139
   22MOL   H33813400   4.439   3.966   0.847 -0.9282  0.8038  1.0576
   22MOL   H33913401   4.286   3.945   0.752 -2.9096  1.0873  1.1456
   22MOL   H34013402   4.298   4.050   0.887 -0.6585 -3.0424  1.1862
   22MOL   H34113403   4.929   4.653   0.334  0.6757  0.3409 -2.0336
   22MOL   H34213404   4.771   4.736   0.357  0.1010 -1.4079  0.1101
   22MOL   C34313405   4.914   4.840   0.241  0.3721 -0.0825 -0.3530
   22MOL   O34413406   4.842   4.960   0.261  0.1123  0.6940 -0.8184
   22MOL   C34513407   4.895   5.067   0.186  0.6635 -0.3676 -0.0071
   22MOL   C34613408   4.856   5.201   0.252  0.6745  0.3720  0.6525
   22MOL   C34713409   4.930   5.225   0.383 -0.1181  0.2433  0.3935
   22MOL   C34813410   4.878   5.349   0.461 -0.2447  0.9168  0.2015
   22MOL   C34913411   4.948   5.367   0.601  0.3941 -0.0596  0.3316
   22MOL   C35013412   4.933   5.506   0.651  0.9026  0.1623  0.3128
   22MOL   C35113413   5.001   5.548   0.783  0.2689 -0.4098  0.1218
   22MOL   C35213414   4.938   5.673   0.847  0.0344  0.1477  0.4296
   22MOL   C35313415   4.878   4.788   0.099  0.3003  0.2666 -0.3616
   22MOL   H35413416   5.021   4.852   0.255  0.6558 -4.2966  1.8242
   22MOL   H35513417   4.850   5.070   0.087  1.6029  1.7994 -0.3904
   22MOL   H35613418   5.001   5.073   0.164 -0.0517 -1.4639 -4.0670
   22MOL   H35713419   4.750   5.192   0.273  0.4176 -0.4186 -0.8484
   22MOL   H35813420   4.873   5.283   0.182 -0.0419  0.2161  0.2894
   22MOL   H35913421   4.922   5.134   0.443  0.2847  0.8204  1.3125
   22MOL   H36013422   5.036   5.226   0.359 -0.4586 -1.0434 -1.3476
   22MOL   H36113423   4.886   5.442   0.404  1.3548  1.0201  0.5677
   22MOL   H36213424   4.772   5.331   0.476  0.1476 -1.6988  0.0610
   22MOL   H36313425   4.909   5.296   0.674  0.4334 -1.4050 -0.9237
   22MOL   H36413426   5.054   5.346   0.582 -0.0249  1.8349 -4.6589
   22MOL   H36513427   4.826   5.519   0.664  0.8408 -1.8320  2.1588
   22MOL   H36613428   4.956   5.581   0.575 -1.4712  0.6780  0.0621
   22MOL   H36713429   5.015   5.466   0.854  0.8512  0.3331  0.8804
   22MOL   H36813430   5.096   5.587   0.746  0.0729  2.4248  2.4141
   22MOL   H36913431   4.833   5.657   0.872 -1.0915  2.3979 -2.6202
   22MOL   H37013432   4.938   5.759   0.780  4.6390  0.7245  1.0346
   22MOL   H37113433   4.996   5.699   0.936  0.0648  0.3993  0.3352
   22MOL   H37213434   4.770   4.774   0.090 -0.0024  1.4770  1.2574
   22MOL   H37313435   4.887   4.872   0.031  1.1051 -0.4645 -1.1712
   22MOL   C37413436   4.977   4.681   0.051 -0.9016  0.7524  0.8383
   22MOL   O37513437   5.096   4.742   0.032 -0.0413  0.0898 -0.1039
   22MOL   C37613438   5.214   4.664   0.063  0.1414  0.3280 -0.3008
   22MOL   C37713439   5.254   4.671   0.210  0.3094 -0.1578  0.0834
   22MOL   C37813440   5.337   4.797   0.245 -0.6962 -0.4940  0.0318
   22MOL   C37913441   5.416   4.769   0.368  0.0600  0.3881 -0.0101
   22MOL   C38013442   5.495   4.885   0.438  0.1188  0.3368  0.0562
   22MOL   C38113443   5.557   4.844   0.577 -0.7719  0.1598  0.0256
   22MOL   C38213444   5.628   4.951   0.660  0.9834 -0.1705  0.0534
   22MOL   C38313445   5.677   4.899   0.798  0.1776 -0.3620  0.4986
   22MOL   C38413446   4.928   4.639   7.684 -0.7743 -0.1976 -0.5408
   22MOL   H38513447   4.989   4.591   0.112 -0.2549  0.2578 -0.0098
   22MOL   H38613448   5.292   4.711   0.004 -1.7187 -0.0634 -3.1515
   22MOL   H38713449   5.207   4.560   0.031 -3.7681  0.1390  0.8751
   22MOL   H38813450   5.316   4.583   0.227  0.7879  0.2657  0.5291
   22MOL   H38913451   5.167   4.663   0.275 -0.4417  4.2390 -0.1963
   22MOL   H39013452   5.410   4.819   0.167 -0.9229 -0.0135 -0.0494
   22MOL   H39113453   5.270   4.882   0.257 -1.6446 -1.1634 -0.3674
   22MOL   H39213454   5.349   4.723   0.441 -1.8994  1.0355 -1.3666
   22MOL   H39313455   5.490   4.692   0.344 -0.3461  0.4798 -1.6216
   22MOL   H39413456   5.582   4.918   0.381 -1.0937 -1.2967 -2.8283
   22MOL   H39513457   5.429   4.971   0.437 -0.8655 -0.4024  1.1227
   22MOL   H39613458   5.623   4.759   0.561  1.6310  1.5734  2.1985
   22MOL   H39713459   5.482   4.807   0.646 -0.8872  0.5332  0.1005
   22MOL   H39813460   5.713   5.004   0.616 -0.0248  1.0488 -0.4403
   22MOL   H39913461   5.548   5.023   0.679  1.4364 -0.0246  1.4966
   22MOL   H40013462   5.709   4.794   0.799 -1.6176 -0.9244  1.0129
   22MOL   H40113463   5.605   4.913   0.878 -2.1205 -1.9196 -1.2239
   22MOL   H40213464   5.760   4.961   0.834 -0.7452  1.7421 -0.9405
   22MOL   H40313465   4.820   4.632   7.697 -0.8332  1.4484  0.0410
   22MOL   H40413466   4.938   4.726   7.619 -2.9489 -0.0502 -0.6891
   22MOL   C40513467   4.983   4.507   7.626  0.4371  0.6427 -0.1146
   22MOL   O40613468   4.921   4.487   7.497  1.0353  0.0523 -0.4964
   22MOL   C40713469   4.966   4.571   7.397  0.0409 -0.1235  0.1938
   22MOL   C40813470   4.948   4.523   7.256  0.3195  0.0012 -0.0942
   22MOL   C40913471   4.807   4.542   7.211  0.2814 -0.1415 -0.3458
   22MOL   C41013472   4.768   4.451   7.092 -0.2952 -0.2737  0.1044
   22MOL   C41113473   4.724   4.312   7.140 -0.4169 -0.2013  0.4273
   22MOL   C41213474   4.583   4.303   7.201 -1.1619  0.8063 -0.0207
   22MOL   C41313475   4.536   4.161   7.219  0.0007 -0.3895  0.2419
   22MOL   C41413476   4.385   4.153   7.222 -0.5596 -1.3188 -0.0342
   22MOL   C41513477   4.934   4.379   7.687 -0.3165  0.4834 -0.9396
   22MOL   H41613478   5.092   4.499   7.620  0.3060 -1.2247 -0.2928
   22MOL   H41713479   5.071   4.595   7.414 -0.6311  0.0820  4.7959
   22MOL   H41813480   4.901   4.658   7.412  1.4694  1.1656 -0.9305
   22MOL   H41913481   4.959   4.415   7.244  1.7903  0.3665 -2.1981
   22MOL   H42013482   5.007   4.563   7.174  1.3475 -0.3905  0.4514
   22MOL   H42113483   4.743   4.505   7.292  0.7454 -0.4768 -0.1285
   22MOL   H42213484   4.777   4.645   7.191 -1.8816 -0.7551 -0.3888
   22MOL   H42313485   4.683   4.495   7.041  0.2171  2.3548  1.4500
   22MOL   H42413486   4.854   4.434   7.027 -0.0597  0.3320  0.2511
   22MOL   H42513487   4.723   4.248   7.052  4.3082 -3.1386  2.2723
   22MOL   H42613488   4.795   4.262   7.207  1.0772 -0.4211 -1.2919
   22MOL   H42713489   4.515   4.359   7.137  0.2917 -0.6048 -2.9126
   22MOL   H42813490   4.586   4.349   7.299  2.6904  0.8276 -0.0508
   22MOL   H42913491   4.580   4.089   7.149 -0.9511  0.9192 -1.7703
   22MOL   H43013492   4.571   4.122   7.314 -0.3719 -0.7346  0.2395
   22MOL   H43113493   4.334   4.191   7.133  0.8224 -0.2564 -0.3996
   22MOL   H43213494   4.337   4.201   7.306  0.3708 -1.3146  0.5046
   22MOL   H43313495   4.365   4.047   7.239 -0.8491 -1.1086  0.9500
   22MOL   H43413496   4.835   4.391   7.730  0.8727 -0.9669  2.3405
   22MOL   H43513497   4.915   4.310   7.604 -0.2391  1.4970 -1.8051
   22MOL   C43613498   5.017   4.304   0.014  0.0913  0.3016  0.1304
   22MOL   O43713499   5.143   4.275   7.730  0.0563  0.3125  0.4428
   22MOL   C43813500   5.241   4.263   0.053 -0.2938  0.1684  0.2484
   22MOL   C43913501   5.377   4.277   7.759  0.1774  0.0974 -0.0146
   22MOL   C44013502   5.484   4.264   0.087 -0.3155 -0.3242  0.1424
   22MOL   C44113503   5.616   4.328   0.035  0.0639 -0.5434  0.0346
   22MOL   C44213504   5.749   4.282   0.095 -0.1051 -0.1089  0.4494
   22MOL   C44313505   5.868   4.303   0.003 -0.6088 -0.0195 -0.2055
   22MOL   C44413506   6.007   4.283   0.067  0.1721  0.0345  0.3231
   22MOL   C44513507   6.125   4.292   7.740  0.0148  0.3184 -0.4763
   22MOL   C44613508   4.944   4.174   0.056  0.1527 -0.3011  0.4692
   22MOL   H44713509   5.033   4.371   0.098 -1.3994  0.0954  0.5967
   22MOL   H44813510   5.239   4.349   0.120  0.7615 -0.3410  0.9346
   22MOL   H44913511   5.241   4.174   0.116  0.7339  0.1098  0.1757
   22MOL   H45013512   5.384   4.372   7.706 -0.9535 -0.4020 -1.0912
   22MOL   H45113513   5.390   4.211   7.673  1.8875  0.1420  0.1971
   22MOL   H45213514   5.463   4.318   0.179  0.7972  0.1776  0.1102
   22MOL   H45313515   5.515   4.166   0.123  0.2696 -0.1505  0.1131
   22MOL   H45413516   5.620   4.302   7.703  0.4431 -0.0871 -0.0673
   22MOL   H45513517   5.597   4.435   0.036 -0.0465 -0.5452 -1.0030
   22MOL   H45613518   5.764   4.337   0.188  0.5055 -1.4203  1.1552
   22MOL   H45713519   5.738   4.175   0.114  2.0527 -0.8906 -2.3520
   22MOL   H45813520   5.868   4.407   7.743  0.7847  0.2972  0.6991
   22MOL   H45913521   5.861   4.233   7.694 -0.7937 -0.3083  0.0517
   22MOL   H46013522   6.013   4.355   0.149 -1.2544 -0.2553  0.7031
   22MOL   H46113523   6.016   4.191   0.125 -1.4211  0.4495  1.2699
   22MOL   H46213524   6.109   4.377   7.674  2.6464  1.5268  0.3865
   22MOL   H46313525   6.139   4.194   7.696 -1.1884  0.4364 -1.1406
   22MOL   H46413526   6.222   4.314   0.011  0.4919  0.5021 -1.5799
   22MOL   H46513527   4.929   4.109   7.744  1.1428 -0.9392  0.7566
   22MOL   H46613528   5.019   4.113   0.107 -0.0730 -1.4815 -0.5993
   22MOL   C46713529   4.813   4.172   0.139 -0.4507 -0.1044 -0.3173
   22MOL   O46813530   4.853   4.187   0.274 -0.2069 -0.2997 -0.1902
   22MOL   C46913531   4.822   4.316   0.330  0.7625  0.8943  0.4833
   22MOL   C47013532   4.904   4.344   0.458 -0.0347 -0.7058  0.2682
   22MOL   C47113533   5.052   4.344   0.407  0.0665  0.4024 -0.4439
   22MOL   C47213534   5.152   4.347   0.523  0.2917  0.0218  0.0092
   22MOL   C47313535   5.299   4.325   0.481 -0.9503 -0.4399  0.1898
   22MOL   C47413536   5.387   4.299   0.606 -1.0585  0.9097 -0.0866
   22MOL   C47513537   5.532   4.275   0.562  0.1779  0.3472  0.4085
   22MOL   C47613538   5.597   4.407   0.525 -0.4765 -0.0727 -0.1645
   22MOL   C47713539   4.738   4.036   0.143 -0.1186 -0.4088  0.9711
   22MOL   H47813540   4.744   4.252   0.112  0.5950  0.3553 -1.7322
   22MOL   H47913541   4.714   4.320   0.345  0.3379  0.0695 -2.1055
   22MOL   H48013542   4.838   4.400   0.263  0.3519  1.8629  1.5815
   22MOL   H48113543   4.878   4.270   0.533  0.2727  0.3371  1.4210
   22MOL   H48213544   4.870   4.436   0.505  0.4629 -1.6295  2.5226
   22MOL   H48313545   5.057   4.251   0.351  1.5891 -0.0206  0.3654
   22MOL   H48413546   5.074   4.425   0.337  1.9075 -0.6310 -1.0933
   22MOL   H48513547   5.151   4.443   0.573  0.4513  1.1745 -2.1243
   22MOL   H48613548   5.122   4.270   0.594 -0.3001 -2.4918 -2.8657
   22MOL   H48713549   5.322   4.248   0.408  2.3152 -0.3112  0.9680
   22MOL   H48813550   5.332   4.417   0.432  2.5324 -1.8478 -0.2483
   22MOL   H48913551   5.336   4.215   0.654 -1.9119  2.6914  2.2306
   22MOL   H49013552   5.380   4.384   0.675  1.3277 -0.0342  1.3811
   22MOL   H49113553   5.576   4.223   0.647  1.3930 -1.6676 -1.3669
   22MOL   H49213554   5.532   4.215   0.471 -0.9021  0.7366  0.1520
   22MOL   H49313555   5.547   4.480   0.461  0.1037  0.5158  0.0409
   22MOL   H49413556   5.686   4.398   0.462 -0.3313  0.2269 -0.0046
   22MOL   H49513557   5.612   4.447   0.626 -1.8844 -0.5850  0.2590
   22MOL   H49613558   4.806   3.963   0.186  1.2395 -1.3493 -2.6496
   22MOL   H49713559   4.648   4.053   0.202 -1.9460  0.9506 -2.0912
   22MOL   C49813560   4.681   3.988   0.012  0.2136  0.0441  0.6319
   22MOL   O49913561   4.581   4.090   7.755  0.7675  0.7341  0.0016
   22MOL   C50013562   4.558   4.105   7.616 -0.5401  0.1513  0.6468
   22MOL   C50113563   4.439   4.189   7.591 -0.0582  0.6341 -0.3061
   22MOL   C50213564   4.311   4.119   7.602 -0.1660  0.4474  0.3898
   22MOL   C50313565   4.191   4.211   7.586 -0.0817  0.0740 -0.2586
   22MOL   C50413566   4.051   4.150   7.588 -0.1126 -0.2812  0.3113
   22MOL   C50513567   4.013   4.083   7.717  0.6707  0.1696 -0.3852
   22MOL   C50613568   3.866   4.053   7.722  0.2707 -0.3961 -0.1553
   22MOL   C50713569   3.824   3.936   7.629  1.1427 -0.5213 -0.1113
   22MOL   C50813570   4.612   3.852   0.019 -0.5234  0.2676  0.6851
   22MOL   H50913571   4.759   3.996   7.711 -0.4394  2.8594  0.1622
   22MOL   H51013572   4.547   4.007   7.568  1.4401 -0.0848  0.6467
   22MOL   H51113573   4.650   4.150   7.581 -0.2619 -1.2913 -0.5340
   22MOL   H51213574   4.445   4.243   7.496 -1.1142 -0.8953 -1.2558
   22MOL   H51313575   4.435   4.267   7.668 -0.1515 -0.3167  0.6729
   22MOL   H51413576   4.295   4.036   7.534  1.5056  0.7922 -0.4628
   22MOL   H51513577   4.319   4.070   7.699 -0.0870  1.1622  0.7518
   22MOL   H51613578   4.207   4.295   7.653  0.2529 -2.1324  2.5484
   22MOL   H51713579   4.205   4.262   7.491  1.0467  0.2374 -0.0077
   22MOL   H51813580   3.994   4.239   7.562  1.4332  0.6002 -0.1696
   22MOL   H51913581   4.045   4.076   7.509  0.7601 -0.7086  0.6389
   22MOL   H52013582   4.047   4.152   0.020 -0.8764  1.5940 -0.9595
   22MOL   H52113583   4.063   3.987   7.729  0.6069  0.1690 -0.1214
   22MOL   H52213584   3.830   4.021   0.046 -3.3540 -0.2606 -1.3829
   22MOL   H52313585   3.801   4.138   7.702  0.7055 -0.1419 -0.4778
   22MOL   H52413586   3.880   3.846   7.654 -1.0084 -1.9303 -0.2673
   22MOL   H52513587   3.831   3.972   7.527 -0.8346 -1.3927 -0.5758
   22MOL   H52613588   3.720   3.911   7.648  0.3022  1.4965 -1.9305
   22MOL   H52713589   4.533   3.856   0.093 -0.8748  1.0504  0.2731
   22MOL   H52813590   4.572   3.822   7.697  1.2203  1.4166 -0.4420
   22MOL   C52913591   4.701   3.736   0.060 -0.9333 -0.4457 -0.4334
   22MOL   O53013592   4.812   3.746   7.752  0.4189  0.0582  0.2549
   22MOL   C53113593   4.930   3.685   0.026 -0.7858  0.1729  0.0996
   22MOL   C53213594   5.057   3.775   7.751 -0.3659  0.4299  0.9342
   22MOL   C53313595   5.195   3.709   7.757 -0.3047 -0.5478  0.1535
   22MOL   C53413596   5.314   3.804   7.742  0.4687 -0.0687  0.9853
   22MOL   C53513597   5.446   3.759   0.018 -0.3818  0.7468 -0.2656
   22MOL   C53613598   5.549   3.866   0.020  0.1100 -0.8653  0.7384
   22MOL   C53713599   5.688   3.794   0.041 -0.3733 -0.3522 -0.7500
   22MOL   C53813600   5.814   3.882   0.052 -0.4359  0.4058 -0.7066
   22MOL   C53913601   4.641   3.594   0.049  0.2837  0.2423 -0.1614
   22MOL   H54013602   4.721   3.752   0.166  0.3365  0.2595 -0.7677
   22MOL   H54113603   4.927   3.678   0.135  0.5161 -0.7029  0.1019
   22MOL   H54213604   4.931   3.584   7.759 -0.6505  0.2896 -0.1792
   22MOL   H54313605   5.070   3.869   0.031  1.2993  1.4881 -1.2019
   22MOL   H54413606   5.037   3.790   7.645  0.4992  1.1499  0.8720
   22MOL   H54513607   5.183   3.664   0.081 -0.0921 -2.2677 -0.5886
   22MOL   H54613608   5.207   3.623   7.690 -2.5804 -2.2136  1.7908
   22MOL   H54713609   5.324   3.828   7.636  0.9417 -0.2978  0.9765
   22MOL   H54813610   5.283   3.897   0.014  0.0928 -0.7459  2.1051
   22MOL   H54913611   5.448   3.706   0.113  1.0008  0.7879 -0.2660
   22MOL   H55013612   5.480   3.679   7.727 -1.2583  1.0502 -1.1088
   22MOL   H55113613   5.526   3.937   0.100  0.9489 -2.0574  2.0693
   22MOL   H55213614   5.547   3.913   7.697 -0.6440  0.5343  1.4142
   22MOL   H55313615   5.678   3.722   0.123 -1.4178  1.6116  0.9153
   22MOL   H55413616   5.699   3.725   7.732  0.0362 -0.1657 -0.8506
   22MOL   H55513617   5.812   3.940   0.145  0.6261 -0.5012 -0.1050
   22MOL   H55613618   5.819   3.928   7.728 -1.0288 -0.7741 -1.2944
   22MOL   H55713619   5.891   3.806   0.056 -1.2182 -0.5130 -2.5419
   22MOL   H55813620   4.605   3.580   7.721  0.6691  1.1651 -0.4292
   22MOL   H55913621   4.724   3.526   0.066  1.1926  1.5334  0.6562
   22MOL   C56013622   4.540   3.561   0.164 -0.0619 -0.3037  0.1128
   22MOL   O56113623   4.602   3.583   0.297  0.5048 -0.6583 -0.4515
   22MOL   C56213624   4.511   3.646   0.383 -0.4393 -0.1789 -0.0155
   22MOL   C56313625   4.556   3.676   0.528  0.1020  0.4144  0.2398
   22MOL   C56413626   4.648   3.799   0.553  0.1392  0.1460 -0.3134
   22MOL   C56513627   4.781   3.781   0.493 -0.0568 -0.0859 -0.2690
   22MOL   C56613628   4.880   3.896   0.534 -0.0579  0.2926 -0.3546
   22MOL   C56713629   5.013   3.876   0.450  0.1334  0.2416  0.6343
   22MOL   C56813630   5.124   3.972   0.496 -0.4255  0.2453  0.7133
   22MOL   C56913631   5.264   3.946   0.434  0.4756  0.2453 -0.3428
   22MOL   C57013632   4.493   3.413   0.161 -0.5622 -0.4021  0.0881
   22MOL   H57113633   4.451   3.620   0.141  0.7819  0.6004 -0.8362
   22MOL   H57213634   4.419   3.589   0.394  0.1396 -1.2789 -0.8653
   22MOL   H57313635   4.480   3.742   0.341  1.3264  1.3906  2.1074
   22MOL   H57413636   4.597   3.586   0.574 -0.2793  0.5395  0.8448
   22MOL   H57513637   4.467   3.698   0.588  0.3608  0.7123  0.5165
   22MOL   H57613638   4.619   3.898   0.517  1.9666  0.7054 -0.2992
   22MOL   H57713639   4.657   3.811   0.661 -0.4700 -1.3557 -0.0743
   22MOL   H57813640   4.808   3.676   0.504  0.7259  0.1389 -0.0324
   22MOL   H57913641   4.762   3.785   0.386  0.6532  0.8379 -0.3592
   22MOL   H58013642   4.831   3.991   0.518  1.0254  1.0750  0.8945
   22MOL   H58113643   4.901   3.884   0.640  1.1309  1.0685 -0.4991
   22MOL   H58213644   4.997   3.886   0.343  0.7890 -1.1068  0.3973
   22MOL   H58313645   5.051   3.776   0.472 -1.3136 -0.3055  0.7270
   22MOL   H58413646   5.091   4.074   0.477  0.2380  0.8166  2.6123
   22MOL   H58513647   5.138   3.975   0.604 -0.5106  1.1210  0.7010
   22MOL   H58613648   5.313   3.859   0.478  0.3502 -0.7447 -2.0981
   22MOL   H58713649   5.328   4.032   0.454  0.8607 -0.1810  0.3027
   22MOL   H58813650   5.259   3.927   0.327  0.9740  2.9758 -0.8826
   22MOL   H58913651   4.576   3.351   0.196 -0.6670 -0.3948  0.3547
   22MOL   H59013652   4.422   3.402   0.243 -0.2503  4.1955  1.1666
   22MOL   C59113653   4.428   3.372   0.032  0.0584  0.0834 -0.3622
   22MOL   O59213654   4.320   3.461   0.002  1.0719 -0.5201 -0.4022
   22MOL   C59313655   4.267   3.492   7.645 -0.8133 -0.2398 -0.0453
   22MOL   C59413656   4.178   3.623   7.663 -0.3654 -0.1591  0.2294
   22MOL   C59513657   4.145   3.705   7.537  0.2642  0.3642 -0.2339
   22MOL   C59613658   4.087   3.631   7.417  0.3042 -0.3547 -0.6764
   22MOL   C59713659   4.050   3.723   7.298 -0.2894 -0.6944 -0.1463
   22MOL   C59813660   4.166   3.788   7.224 -0.5019 -0.0464  0.3621
   22MOL   C59913661   4.270   3.699   7.160 -0.3493 -0.2695  0.1058
   22MOL   C60013662   4.366   3.775   7.074  0.2411 -0.6209 -0.5930
   22MOL   C60113663   4.365   3.233   0.042 -0.7883  0.5161  0.1514
   22MOL   H60213664   4.499   3.369   7.724  3.3710  2.7222  2.2729
   22MOL   H60313665   4.220   3.412   7.588  0.0692 -1.6520  1.1779
   22MOL   H60413666   4.359   3.507   7.587  1.0128  2.0256  3.2519
   22MOL   H60513667   4.230   3.702   7.717  0.3623  0.5031 -1.3965
   22MOL   H60613668   4.086   3.595   7.713 -0.9855  0.7698 -0.3627
   22MOL   H60713669   4.090   3.799   7.546 -1.5930 -0.7360 -0.0020
   22MOL   H60813670   4.243   3.739   7.501  0.4419  0.1844  0.0755
   22MOL   H60913671   4.144   3.544   7.385  1.6402 -0.1698  1.1370
   22MOL   H61013672   4.001   3.582   7.463  1.7528 -0.6185  1.8428
   22MOL   H61113673   3.983   3.659   7.241  0.6294 -1.3822 -0.4669
   22MOL   H61213674   3.984   3.801   7.335  0.3693  0.5307 -1.4952
   22MOL   H61313675   4.217   3.862   7.286  1.9499  0.3095 -1.9834
   22MOL   H61413676   4.122   3.843   7.141  0.7153 -0.5004 -0.5973
   22MOL   H61513677   4.325   3.642   7.235  1.2176  0.0817 -0.7621
   22MOL   H61613678   4.215   3.626   7.099  0.0546 -0.1658 -0.3884
   22MOL   H61713679   4.445   3.810   7.140 -1.1198  0.4999  0.4786
   22MOL   H61813680   4.307   3.854   7.028 -2.3498 -1.5757  0.9698
   22MOL   H61913681   4.405   3.722   6.987 -1.5863 -0.3533 -1.6073
   22MOL   H62013682   4.302   3.214   0.129 -2.1948  1.4007 -0.6672
   22MOL   H62113683   4.298   3.209   7.733  0.0893  0.4996 -0.5552
   22MOL   H62213684   4.439   3.154   0.052 -1.7319 -0.7197 -2.3596
   23MOL     C113685   2.952   6.844   6.353 -0.6291 -0.3192  0.5477
   23MOL     O213686   2.915   6.876   6.216  0.2490  0.1838 -0.5699
   23MOL     C313687   3.025   6.883   6.120 -0.5427 -0.4874  0.3047
   23MOL     C413688   2.984   6.927   5.979 -0.2021 -0.3194  0.3702
   23MOL     C513689   2.912   6.814   5.894  0.1445 -0.0786 -0.0254
   23MOL     C613690   2.910   6.844   5.741  0.5473  0.0439 -0.8325
   23MOL     C713691   2.827   6.740   5.664 -1.1403 -0.5200 -0.6364
   23MOL     C813692   2.860   6.737   5.509 -0.1610 -0.0435  0.2402
   23MOL     C913693   2.764   6.647   5.436  0.6642 -0.1771  0.3550
   23MOL    C1013694   2.750   6.500   5.475 -0.0891  0.4676  0.5778
   23MOL    C1113695   2.855   6.908   6.446 -0.6631  0.1210 -0.0005
   23MOL    H1213696   2.936   6.736   6.355  0.9348 -0.5589  0.9370
   23MOL    H1313697   3.078   6.790   6.097 -2.0259 -1.5159  0.9385
   23MOL    H1413698   3.115   6.932   6.156 -2.2178  3.0113 -0.0429
   23MOL    H1513699   3.072   6.963   5.925 -1.4329  0.7411 -0.9635
   23MOL    H1613700   2.919   7.014   5.975  0.3356  0.0577 -0.7094
   23MOL    H1713701   2.961   6.717   5.901  1.3717  0.4024 -1.6731
   23MOL    H1813702   2.811   6.791   5.930 -0.2065  1.2708 -0.1315
   23MOL    H1913703   2.868   6.940   5.710  0.1167  0.1419  0.0394
   23MOL    H2013704   3.014   6.822   5.718  0.9272  0.9217  0.0364
   23MOL    H2113705   2.856   6.644   5.705  2.9467  2.1044  3.0592
   23MOL    H2213706   2.726   6.741   5.704 -0.1889 -1.3434  1.8463
   23MOL    H2313707   2.961   6.697   5.501  0.6737  1.9817  0.4232
   23MOL    H2413708   2.848   6.837   5.468 -0.7440 -0.0039  0.5033
   23MOL    H2513709   2.660   6.677   5.437  0.6227 -0.0939 -2.0818
   23MOL    H2613710   2.790   6.653   5.330 -0.1902 -0.9040  0.0979
   23MOL    H2713711   2.678   6.438   5.420  0.8625  1.4032 -1.8237
   23MOL    H2813712   2.729   6.485   5.580 -2.8925  1.9064  0.2615
   23MOL    H2913713   2.849   6.455   5.473  0.2931  1.3302  0.1773
   23MOL    H3013714   2.756   6.880   6.410 -0.7762  0.8236 -0.2399
   23MOL    H3113715   2.886   6.868   6.543  2.2468 -0.9680 -1.3042
   23MOL    H3213716   3.053   6.859   6.391 -1.3971  1.4877  1.9130
   23MOL    C3313717   2.869   7.062   6.441 -0.7039 -0.4206 -0.9258
   23MOL    O3413718   2.990   7.092   6.519  0.1705 -0.3693  0.1203
   23MOL    C3513719   3.101   7.134   6.449  0.2226  0.0168 -0.0074
   23MOL    C3613720   3.218   7.112   6.553  0.3821 -0.4906  0.5431
   23MOL    C3713721   3.196   7.170   6.688 -0.8783  0.6427  0.0712
   23MOL    C3813722   3.305   7.122   6.785 -1.1135 -0.3858 -0.5502
   23MOL    C3913723   3.275   7.194   6.924  1.0659  0.3955  0.0021
   23MOL    C4013724   3.336   7.119   7.040  0.4938 -0.0461 -0.1662
   23MOL    C4113725   3.334   7.199   7.176  0.1951  0.3071 -0.1424
   23MOL    C4213726   3.405   7.107   7.273 -0.0311  0.6457 -0.2934
   23MOL    C4313727   2.748   7.131   6.510  0.0344 -0.2284  0.3143
   23MOL    H4413728   2.871   7.100   6.339 -2.2807  4.3688  0.6833
   23MOL    H4513729   3.096   7.235   6.411  1.8090  0.2389  0.3351
   23MOL    H4613730   3.119   7.078   6.357 -1.1080 -0.8264  0.2257
   23MOL    H4713731   3.310   7.150   6.509 -0.1875 -1.1379 -1.2379
   23MOL    H4813732   3.233   7.004   6.559 -0.6611 -0.6099  1.1469
   23MOL    H4913733   3.202   7.279   6.687 -0.4973  0.6428  1.1608
   23MOL    H5013734   3.103   7.142   6.738 -0.1672 -1.4014  0.3101
   23MOL    H5113735   3.302   7.014   6.804  0.2233 -0.5258 -1.1181
   23MOL    H5213736   3.406   7.137   6.749 -1.3032 -1.3140 -1.4990
   23MOL    H5313737   3.320   7.292   6.913  0.3611  0.6047 -1.1201
   23MOL    H5413738   3.169   7.201   6.951  1.0011 -1.9662  0.5115
   23MOL    H5513739   3.438   7.094   7.011  0.2965 -0.0518 -0.8631
   23MOL    H5613740   3.285   7.024   7.058  0.0702  0.2309  0.0955
   23MOL    H5713741   3.398   7.286   7.160 -0.8809  1.0980 -0.2019
   23MOL    H5813742   3.235   7.232   7.208 -0.8127 -2.2088 -0.5303
   23MOL    H5913743   3.369   7.004   7.262  0.9430  0.2787 -0.1030
   23MOL    H6013744   3.387   7.141   7.375 -0.9598  2.9272 -1.1877
   23MOL    H6113745   3.512   7.113   7.255  0.1997 -0.2124  0.7308
   23MOL    H6213746   2.761   7.092   6.611 -1.3263 -1.0079  0.1977
   23MOL    H6313747   2.767   7.238   6.524  0.3491 -0.2571  0.0988
   23MOL    C6413748   2.607   7.111   6.451 -0.8536 -0.4004  0.6924
   23MOL    O6513749   2.592   7.194   6.334  0.0955 -0.3908  0.5651
   23MOL    C6613750   2.608   7.129   6.211  0.5113 -0.7297  0.2967
   23MOL    C6713751   2.575   7.230   6.100 -0.3411  0.4130  0.2840
   23MOL    C6813752   2.691   7.328   6.093 -0.5750 -0.2583 -0.7266
   23MOL    C6913753   2.681   7.437   5.982 -0.9046 -0.5091  0.3552
   23MOL    C7013754   2.699   7.386   5.838  0.1541 -0.2279 -0.4073
   23MOL    C7113755   2.842   7.336   5.805 -0.0741  0.6287  0.5258
   23MOL    C7213756   2.863   7.320   5.651  0.2661  0.2058 -0.1004
   23MOL    C7313757   3.003   7.267   5.613  0.5995  0.1368  0.5961
   23MOL    C7413758   2.499   7.168   6.545 -0.3892 -0.2160  0.5108
   23MOL    H7513759   2.595   7.010   6.413  0.3356 -0.9364  1.7326
   23MOL    H7613760   2.537   7.046   6.214 -1.4318  0.8538 -0.3712
   23MOL    H7713761   2.709   7.092   6.200  1.0680  0.1584  2.1308
   23MOL    H7813762   2.478   7.278   6.118 -1.9348 -2.9461  1.0725
   23MOL    H7913763   2.566   7.170   6.010 -0.7495 -1.5066  1.5566
   23MOL    H8013764   2.696   7.384   6.187 -0.1648 -0.3203 -0.7119
   23MOL    H8113765   2.785   7.274   6.084  0.9498  2.3626 -1.2348
   23MOL    H8213766   2.583   7.481   6.000 -1.2578 -0.5647 -1.3196
   23MOL    H8313767   2.758   7.513   5.995 -0.5996 -0.5303 -1.2077
   23MOL    H8413768   2.628   7.305   5.817  2.7683 -1.8053 -3.5398
   23MOL    H8513769   2.673   7.465   5.768 -0.8255  1.0164  1.3004
   23MOL    H8613770   2.862   7.241   5.854 -1.3881  0.6409  1.1090
   23MOL    H8713771   2.913   7.411   5.838  0.9924  1.1815 -2.7630
   23MOL    H8813772   2.785   7.250   5.618  0.5237 -0.8924  1.5628
   23MOL    H8913773   2.828   7.407   5.596  1.7910  2.1293  1.8916
   23MOL    H9013774   3.036   7.194   5.687  1.4414 -2.1252 -1.9130
   23MOL    H9113775   3.084   7.340   5.607  1.0956 -0.6015 -2.0971
   23MOL    H9213776   3.019   7.221   5.516  0.2777 -0.3664  0.7830
   23MOL    H9313777   2.532   7.270   6.565 -0.8078 -0.3561  1.9738
   23MOL    H9413778   2.402   7.179   6.497 -0.4111 -0.0460  0.5951
   23MOL    C9513779   2.478   7.094   6.683 -0.4757  0.7641 -0.2347
   23MOL    O9613780   2.437   6.961   6.636  0.4479 -0.0545  0.5961
   23MOL    C9713781   2.415   6.863   6.738  1.0859 -0.2996  0.2687
   23MOL    C9813782   2.396   6.729   6.667  0.5425  0.1985  0.4375
   23MOL    C9913783   2.533   6.675   6.608 -0.5150 -0.0037 -0.2982
   23MOL   C10013784   2.531   6.529   6.570  0.4026  0.6580  0.2919
   23MOL   C10113785   2.548   6.417   6.671  0.0231 -0.1752  0.1471
   23MOL   C10213786   2.514   6.274   6.621  0.1173 -0.7192 -0.0994
   23MOL   C10313787   2.627   6.213   6.543 -0.3175 -0.0016 -0.6185
   23MOL   C10413788   2.592   6.074   6.491 -0.4051  0.2481 -0.9698
   23MOL   C10513789   2.349   7.144   6.756  0.3719 -0.2009  0.3217
   23MOL   H10613790   2.568   7.094   6.744 -0.5071  0.5753 -0.1884
   23MOL   H10713791   2.326   6.888   6.796  0.0108 -0.3958 -1.3042
   23MOL   H10813792   2.495   6.859   6.811  1.1030 -0.7531  0.2288
   23MOL   H10913793   2.316   6.726   6.593  2.1197  2.5269 -1.4592
   23MOL   H11013794   2.361   6.659   6.742  0.2231  1.1992  1.2230
   23MOL   H11113795   2.548   6.732   6.516 -0.9138  0.9054  0.1870
   23MOL   H11213796   2.617   6.689   6.675  0.4212  0.5190 -1.5549
   23MOL   H11313797   2.449   6.517   6.500  2.0946  0.8483 -1.7732
   23MOL   H11413798   2.623   6.518   6.513  0.2712  2.7291 -0.3666
   23MOL   H11513799   2.645   6.421   6.720  0.0636  0.4954  0.0216
   23MOL   H11613800   2.489   6.456   6.755 -0.5400 -2.1639  0.7111
   23MOL   H11713801   2.426   6.285   6.558 -0.4709  0.2610  0.8583
   23MOL   H11813802   2.481   6.221   6.711  1.2041 -1.2998 -0.0343
   23MOL   H11913803   2.658   6.270   6.455  2.7027 -0.7025 -0.0635
   23MOL   H12013804   2.712   6.210   6.611  0.8012 -3.7127 -2.0914
   23MOL   H12113805   2.685   6.024   6.465 -0.6497  0.2192 -1.8319
   23MOL   H12213806   2.532   6.080   6.399 -1.5356  0.0355 -0.2508
   23MOL   H12313807   2.533   6.014   6.560  1.4656 -0.4354  0.0496
   23MOL   H12413808   2.278   7.142   6.674  2.7882  1.5888 -1.8956
   23MOL   H12513809   2.323   7.075   6.836  1.6600 -0.7123  0.3094
   23MOL   C12613810   2.361   7.290   6.815 -0.6067  0.1327 -0.0501
   23MOL   O12713811   2.422   7.289   6.939 -0.5556 -0.4559  0.3063
   23MOL   C12813812   2.518   7.393   6.959  0.2730  0.1513  0.2805
   23MOL   C12913813   2.566   7.398   7.104 -0.2433  1.0424  0.1593
   23MOL   C13013814   2.646   7.276   7.141 -0.6729  0.1112  0.0990
   23MOL   C13113815   2.673   7.278   7.289  0.1730 -0.3615  0.4110
   23MOL   C13213816   2.566   7.198   7.375 -0.5398 -0.3456  0.1239
   23MOL   C13313817   2.564   7.225   7.526 -0.4481  0.5276 -0.2734
   23MOL   C13413818   2.673   7.149   7.601 -0.3893  0.3028 -0.3418
   23MOL   C13513819   2.656   7.175   7.755 -0.1444 -0.5186  0.3433
   23MOL   C13613820   2.231   7.366   6.838  0.8439  0.0017  0.3634
   23MOL   H13713821   2.413   7.354   6.743 -0.8634 -0.7723 -1.0458
   23MOL   H13813822   2.478   7.492   6.938  2.1054  1.4414  2.7688
   23MOL   H13913823   2.603   7.382   6.892  0.2586  0.9714  0.1321
   23MOL   H14013824   2.476   7.388   7.165  0.1286  0.8495  0.6748
   23MOL   H14113825   2.618   7.493   7.113  2.3765 -0.5136  2.2540
   23MOL   H14213826   2.612   7.181   7.099 -0.7736  1.5263 -3.1851
   23MOL   H14313827   2.737   7.301   7.085 -1.1749  2.2660  0.2014
   23MOL   H14413828   2.774   7.239   7.304  0.7502 -0.6545 -3.6200
   23MOL   H14513829   2.679   7.381   7.325  0.3295 -0.3635  0.3943
   23MOL   H14613830   2.467   7.221   7.336 -0.0565  0.0646 -0.8748
   23MOL   H14713831   2.576   7.091   7.361 -4.4152 -0.7922  0.4150
   23MOL   H14813832   2.470   7.194   7.571 -0.9518 -0.4771 -1.9939
   23MOL   H14913833   2.567   7.332   7.548  0.5602  0.5473 -0.4733
   23MOL   H15013834   2.671   7.044   7.573  0.3945  0.4246 -0.8926
   23MOL   H15113835   2.773   7.184   7.573 -0.1891 -1.2504 -1.6039
   23MOL   H15213836   2.747   7.149   0.034 -0.2344 -1.4169  0.0754
   23MOL   H15313837   2.563   7.139   0.023 -0.4189  0.2992  0.4349
   23MOL   H15413838   2.648   7.280   0.009 -0.3739 -0.5358  0.3347
   23MOL   H15513839   2.175   7.309   6.911  0.4260  3.1405  2.6029
   23MOL   H15613840   2.238   7.457   6.898  1.0194  0.6061 -0.5477
   23MOL   C15713841   2.143   7.403   6.708  0.2193  0.6474 -0.2918
   23MOL   O15813842   2.205   7.504   6.631  0.1169  0.2750  0.0067
   23MOL   C15913843   2.265   7.454   6.514  0.2142 -0.3932  0.2004
   23MOL   C16013844   2.306   7.569   6.424 -0.1906 -0.0941  0.7925
   23MOL   C16113845   2.380   7.520   6.298 -0.2063 -0.3121 -0.2621
   23MOL   C16213846   2.401   7.636   6.203 -0.2064 -0.0732  0.0106
   23MOL   C16313847   2.292   7.653   6.095  0.1742 -0.0907  0.7735
   23MOL   C16413848   2.328   7.771   6.008  0.0832  0.0047 -0.2095
   23MOL   C16513849   2.200   0.045   5.941  0.0160  0.5531 -0.5361
   23MOL   C16613850   2.227   0.187   5.893  0.2720 -0.4098 -0.0442
   23MOL   C16713851   2.009   7.464   6.748 -0.0970  0.2935  0.4408
   23MOL   H16813852   2.128   7.312   6.651 -0.0804  0.5031  0.0150
   23MOL   H16913853   2.207   7.379   6.461 -2.2662  1.1866  0.6217
   23MOL   H17013854   2.356   7.402   6.544  0.1167 -1.8242 -1.9222
   23MOL   H17113855   2.370   7.637   6.480  0.2342  0.1108  0.0608
   23MOL   H17213856   2.213   7.623   6.403  0.7528  1.2679  0.0674
   23MOL   H17313857   2.481   7.495   6.332 -0.1951  0.1731  0.0634
   23MOL   H17413858   2.341   7.438   6.237 -0.3849 -0.1835 -0.3198
   23MOL   H17513859   2.419   7.725   6.263 -1.5138 -0.4908  1.0656
   23MOL   H17613860   2.489   7.617   6.142 -0.6831 -1.3705 -0.2968
   23MOL   H17713861   2.287   7.569   6.025 -2.4129 -0.4153  1.2955
   23MOL   H17813862   2.198   7.673   6.145  0.4868  1.9584  0.5545
   23MOL   H17913863   2.388   7.735   5.924  1.3480 -0.3240  0.8256
   23MOL   H18013864   2.387   0.072   6.060  1.1062 -1.0026  0.1024
   23MOL   H18113865   2.176   7.752   5.859  1.1982 -0.1606 -0.3033
   23MOL   H18213866   2.110   0.042   6.003 -0.6462  2.5412 -1.3328
   23MOL   H18313867   2.294   0.169   5.809  0.2353 -2.0133  0.2525
   23MOL   H18413868   2.283   0.248   5.965 -2.6190  1.4299  0.7436
   23MOL   H18513869   2.144   0.249   5.858  1.7821  1.4917 -0.3436
   23MOL   H18613870   2.023   7.553   6.809  1.1696  1.5372 -1.5889
   23MOL   H18713871   1.977   7.492   6.647  1.4945  0.4223 -0.0470
   23MOL   C18813872   1.911   7.366   6.813 -1.0151  0.8128  0.1682
   23MOL   O18913873   1.894   7.243   6.743 -0.5046 -0.3104 -0.5059
   23MOL   C19013874   1.952   7.126   6.798  0.1889  0.5754  0.3454
   23MOL   C19113875   1.927   7.011   6.701 -0.3693  0.4482  0.5221
   23MOL   C19213876   2.009   6.885   6.713  0.4252 -0.7028 -0.4962
   23MOL   C19313877   1.955   6.776   6.626  0.9856  0.0756  0.8109
   23MOL   C19413878   2.017   6.632   6.627 -0.1599  0.2943  0.3978
   23MOL   C19513879   1.978   6.536   6.512 -0.1132 -0.4215  0.3890
   23MOL   C19613880   2.028   6.387   6.517 -0.2299 -0.2482 -0.7643
   23MOL   C19713881   2.178   6.374   6.513 -0.5654 -0.0880 -0.0797
   23MOL   C19813882   1.772   7.424   6.809  0.0254 -0.7173 -0.3940
   23MOL   H19913883   1.946   7.344   6.915 -0.4623 -3.0440 -0.7711
   23MOL   H20013884   2.058   7.132   6.823  0.6552 -1.2809 -1.0834
   23MOL   H20113885   1.904   7.104   6.893 -0.5233 -0.7462 -0.2966
   23MOL   H20213886   1.953   7.051   6.603 -0.8235  1.1842  0.6919
   23MOL   H20313887   1.820   6.996   6.683  0.2942  0.5448 -3.8970
   23MOL   H20413888   2.105   6.921   6.677  0.6851 -0.4277  0.4813
   23MOL   H20513889   2.019   6.858   6.818  1.1046 -2.8930 -1.0984
   23MOL   H20613890   1.853   6.766   6.663 -0.2577  1.7336 -1.9974
   23MOL   H20713891   1.950   6.800   6.520 -0.3346 -0.8927  0.6384
   23MOL   H20813892   2.124   6.648   6.642 -0.3024  0.7093  1.0018
   23MOL   H20913893   1.992   6.580   6.720 -0.5802  2.0485  1.2789
   23MOL   H21013894   2.000   6.580   6.415 -3.4970 -0.3693 -0.4191
   23MOL   H21113895   1.871   6.545   6.495 -0.2635 -1.0366  1.0099
   23MOL   H21213896   1.991   6.338   6.608  1.5707 -1.6995 -0.7749
   23MOL   H21313897   1.985   6.330   6.435  0.5506  2.5536 -3.1854
   23MOL   H21413898   2.213   6.271   6.500  2.6587  0.7891  1.1629
   23MOL   H21513899   2.210   6.403   6.613  0.0229 -1.5505  0.1709
   23MOL   H21613900   2.227   6.439   6.440  0.4120  1.5407  1.9651
   23MOL   H21713901   1.767   7.528   6.842 -3.3377 -0.9605  0.0608
   23MOL   H21813902   1.742   7.440   6.706 -2.9730  0.6012  0.6232
   23MOL   C21913903   1.664   7.351   6.884  0.2128 -0.0172 -0.1091
   23MOL   O22013904   1.540   7.405   6.827  0.2971 -0.2237  0.5555
   23MOL   C22113905   1.432   7.320   6.820  0.9767  0.3953 -0.5271
   23MOL   C22213906   1.354   7.373   6.695 -0.3368  0.0454  0.1042
   23MOL   C22313907   1.243   7.271   6.654 -0.5914  0.3118  0.2506
   23MOL   C22413908   1.193   7.292   6.507 -0.0126 -0.3236 -0.4108
   23MOL   C22513909   1.064   7.208   6.480  0.1510 -0.0732  0.5282
   23MOL   C22613910   0.990   7.255   6.352 -0.4144  0.2151  0.1589
   23MOL   C22713911   0.907   7.152   6.285  0.5226  0.4797 -0.1179
   23MOL   C22813912   0.804   7.217   6.188  0.0995  0.4974 -0.0503
   23MOL   C22913913   1.668   7.369   7.040 -0.5517  0.4832 -0.3227
   23MOL   H23013914   1.664   7.244   6.860 -0.8707  0.0388 -0.4109
   23MOL   H23113915   1.371   7.307   6.910 -0.2942  0.5535 -1.3543
   23MOL   H23213916   1.459   7.215   6.805  1.9123  0.6116 -0.3989
   23MOL   H23313917   1.424   7.397   6.615  1.7021  1.2212  2.1418
   23MOL   H23413918   1.316   7.475   6.707  0.7843  0.6717 -1.4683
   23MOL   H23513919   1.281   7.171   6.678  0.9836  0.8888  0.2597
   23MOL   H23613920   1.160   7.281   6.723  1.1154 -0.2536  2.4379
   23MOL   H23713921   1.162   7.397   6.508  0.6758 -0.1197  0.4971
   23MOL   H23813922   1.267   7.286   6.428  0.2586 -0.1695 -0.1706
   23MOL   H23913923   1.104   7.112   6.448  1.0652  0.7547 -0.8681
   23MOL   H24013924   0.994   7.202   6.563 -2.1502 -0.3007 -1.3645
   23MOL   H24113925   1.061   7.306   6.287 -0.7207 -0.5846 -0.8013
   23MOL   H24213926   0.935   7.338   6.398 -1.8564 -0.3625 -0.5224
   23MOL   H24313927   0.974   7.081   6.237  0.4731 -0.9650  1.8458
   23MOL   H24413928   0.862   7.094   6.366  1.9668  0.1848  0.4937
   23MOL   H24513929   0.734   7.144   6.148  1.3107 -0.0014 -1.3068
   23MOL   H24613930   0.863   7.242   6.100 -0.3855  1.1958 -0.1834
   23MOL   H24713931   0.755   7.305   6.231  0.6711  0.8069 -0.0346
   23MOL   H24813932   1.577   7.322   7.079  0.4023 -1.0283  0.1306
   23MOL   H24913933   1.746   7.303   7.076 -0.0724  0.5290 -1.2632
   23MOL   C25013934   1.663   7.515   7.090  0.1364 -0.1250 -0.5295
   23MOL   O25113935   1.797   7.561   7.077 -0.2285 -0.2163  0.2051
   23MOL   C25213936   1.822   7.698   7.095 -0.1431 -0.2918  0.0885
   23MOL   C25313937   1.971   7.708   7.072 -0.0093  1.1143  0.4338
   23MOL   C25413938   2.058   7.650   7.182 -0.1256 -0.5924  0.2265
   23MOL   C25513939   2.206   7.696   7.176 -0.4965  0.0555  0.8219
   23MOL   C25613940   2.275   7.627   7.290  0.4010 -0.1792 -0.4966
   23MOL   C25713941   2.413   7.690   7.316 -1.3100 -0.5975 -0.0389
   23MOL   C25813942   2.498   7.633   7.439 -0.5846 -0.0370  0.2775
   23MOL   C25913943   2.460   7.698   7.572  0.6471 -0.3596 -0.3618
   23MOL   C26013944   1.614   7.525   7.239 -0.4057  0.4111 -0.6105
   23MOL   H26113945   1.610   7.582   7.023  1.1572  1.6654  0.3732
   23MOL   H26213946   1.796   7.742   7.191  3.0351 -0.0265  0.8603
   23MOL   H26313947   1.760   7.762   7.032 -0.2938 -0.1283  0.4083
   23MOL   H26413948   1.989   0.041   7.073  1.1660  0.9673 -1.7772
   23MOL   H26513949   2.010   7.663   6.980 -0.0510  0.2661  0.8215
   23MOL   H26613950   2.015   7.669   7.280  0.4038  0.5055  0.2510
   23MOL   H26713951   2.053   7.541   7.178  0.3721 -0.6697  1.5492
   23MOL   H26813952   2.261   7.679   7.083 -1.1540 -0.5033  0.5286
   23MOL   H26913953   2.209   0.028   7.198  1.6352 -0.4454  3.1795
   23MOL   H27013954   2.215   7.614   7.380  0.5226  0.3871 -0.3323
   23MOL   H27113955   2.298   7.522   7.272  0.2903 -0.9216  3.2456
   23MOL   H27213956   2.401   0.022   7.339  2.8959  0.0866 -0.4706
   23MOL   H27313957   2.465   7.690   7.220 -0.5440 -1.8724  0.3654
   23MOL   H27413958   2.489   7.525   7.435 -0.4462 -0.0320 -0.2738
   23MOL   H27513959   2.602   7.663   7.424 -0.7513  1.8014  2.5661
   23MOL   H27613960   2.475   0.032   7.568  2.2357 -0.3774  3.1532
   23MOL   H27713961   2.530   7.675   7.653 -0.4591 -2.3073  0.0580
   23MOL   H27813962   2.355   7.685   7.599  0.9224 -0.5145  0.6750
   23MOL   H27913963   1.686   7.481   7.308  0.0727 -0.9812 -1.9748
   23MOL   H28013964   1.602   7.631   7.265  3.1505  1.0167 -1.1361
   23MOL   C28113965   1.471   7.476   7.259  0.2140 -0.2970 -0.2673
   23MOL   O28213966   1.389   7.550   7.168  0.2895 -0.5408 -0.1693
   23MOL   C28313967   1.266   7.493   7.130  0.2754 -0.2171  0.0709
   23MOL   C28413968   1.198   7.570   7.013 -0.0738  0.1400 -0.4366
   23MOL   C28513969   1.070   7.497   6.943 -0.1694  0.1442 -0.8218
   23MOL   C28613970   1.018   7.583   6.813 -0.4445  0.7315  0.6209
   23MOL   C28713971   0.928   7.497   6.718 -0.4876  0.4825 -0.0653
   23MOL   C28813972   0.804   7.454   6.778  0.4779 -1.1615 -0.1110
   23MOL   C28913973   0.724   7.343   6.692  0.1176 -0.2194  0.8840
   23MOL   C29013974   0.659   7.382   6.555 -0.0765 -0.5679 -0.7164
   23MOL   C29113975   1.415   7.500   7.404  0.3481  0.3282  0.3123
   23MOL   H29213976   1.468   7.370   7.233 -0.0988 -0.1655 -0.7933
   23MOL   H29313977   1.199   7.482   7.216  1.0714 -1.1147  0.5826
   23MOL   H29413978   1.299   7.396   7.092 -1.8327 -0.9049 -0.0685
   23MOL   H29513979   1.278   7.576   6.939 -0.2318  1.3295 -0.5294
   23MOL   H29613980   1.165   7.666   7.053 -1.0769 -0.3278 -0.1126
   23MOL   H29713981   1.100   7.396   6.914  1.3452  0.4250 -0.2886
   23MOL   H29813982   0.993   7.485   7.019  0.5316 -0.2459 -0.1614
   23MOL   H29913983   0.960   7.667   6.853 -0.7404  0.0886  1.5644
   23MOL   H30013984   1.104   7.622   6.758 -0.6193 -1.6831 -1.4143
   23MOL   H30113985   0.907   7.554   6.628  2.3265  1.1145 -0.3938
   23MOL   H30213986   0.986   7.416   6.673 -0.1085  0.1748  0.9545
   23MOL   H30313987   0.742   7.543   6.790  1.0580 -0.5684 -1.3728
   23MOL   H30413988   0.820   7.414   6.878 -0.3792 -0.5996  0.2525
   23MOL   H30513989   0.787   7.256   6.677 -0.3614 -0.9640  2.9165
   23MOL   H30613990   0.650   7.296   6.757 -0.1916 -1.0521 -0.0643
   23MOL   H30713991   0.642   7.295   6.492  2.0166 -0.5006 -1.4202
   23MOL   H30813992   0.724   7.450   6.501 -1.0025 -0.0703 -1.2145
   23MOL   H30913993   0.565   7.435   6.571  0.2725 -0.0751 -0.2493
   23MOL   H31013994   1.406   7.609   7.413  0.3567  0.4787 -1.3383
   23MOL   H31113995   1.321   7.449   7.424  1.1391 -1.2617 -0.0172
   23MOL   C31213996   1.504   7.438   7.524  0.1389 -0.1107  0.2483
   23MOL   O31313997   1.498   7.303   7.497  0.1396  0.1278 -0.1201
   23MOL   C31413998   1.579   7.219   7.585 -0.2905 -1.2668  0.0704
   23MOL   C31513999   1.628   7.085   7.529  0.6496 -0.0888  0.1003
   23MOL   C31614000   1.715   7.017   7.636 -0.6197  0.0658  0.3030
   23MOL   C31714001   1.735   6.872   7.610  0.0343 -0.4310 -0.0049
   23MOL   C31814002   1.810   6.838   7.477  0.0888 -0.6013 -0.9842
   23MOL   C31914003   1.831   6.684   7.467 -0.8811 -0.7048 -0.1816
   23MOL   C32014004   1.920   6.639   7.352 -0.3524 -0.0823 -0.0769
   23MOL   C32114005   2.064   6.644   7.390  0.2304  0.2221 -0.2013
   23MOL   C32214006   1.452   7.484   7.665  0.9836 -0.5148 -0.1799
   23MOL   H32314007   1.607   7.469   7.506  0.6627  0.8515  4.4803
   23MOL   H32414008   1.547   7.212   7.688  0.5674  1.3067  0.5639
   23MOL   H32514009   1.675   7.271   7.590 -0.8808 -0.1294 -0.1615
   23MOL   H32614010   1.686   7.105   7.438 -0.1121  0.0246 -0.3675
   23MOL   H32714011   1.539   7.027   7.502  0.7908 -0.3201  0.1313
   23MOL   H32814012   1.814   7.063   7.644 -0.4417  0.1778 -2.1528
   23MOL   H32914013   1.668   7.029   7.733  1.9946  1.7165  1.4301
   23MOL   H33014014   1.775   6.827   7.701 -2.5771  0.2969  1.5727
   23MOL   H33114015   1.644   6.812   7.605 -1.0191  0.9907  1.5005
   23MOL   H33214016   1.754   6.875   7.391 -0.0566 -0.2046 -0.7188
   23MOL   H33314017   1.910   6.882   7.476  0.0199 -0.4457 -1.9881
   23MOL   H33414018   1.735   6.641   7.440 -0.5854 -3.2515  2.5459
   23MOL   H33514019   1.857   6.632   7.559  2.0931 -1.6696 -1.4962
   23MOL   H33614020   1.899   6.534   7.334 -0.1440 -0.2981  0.9276
   23MOL   H33714021   1.905   6.681   7.253  0.3709  1.5604  0.4816
   23MOL   H33814022   2.085   6.586   7.479  2.4003 -0.4673 -1.1382
   23MOL   H33914023   2.095   6.745   7.416 -2.2005  0.8508  0.4421
   23MOL   H34014024   2.130   6.596   7.318  1.3320  0.6305  0.5375
   23MOL   H34114025   1.343   7.477   7.663  1.0099 -0.6822 -1.0864
   23MOL   H34214026   1.478   7.416   7.745 -0.2789  0.0552  0.7266
   23MOL   C34314027   1.494   7.626   7.710 -0.8331  0.1942  1.0110
   23MOL   O34414028   1.633   7.633   7.705 -0.4260 -0.1339 -0.2386
   23MOL   C34514029   1.697   7.747   7.660 -0.0783 -0.6249  0.1184
   23MOL   C34614030   1.847   7.750   7.676 -1.3783 -0.1161 -0.1901
   23MOL   C34714031   1.884   0.001   0.051 -0.6449 -0.6718 -0.2790
   23MOL   C34814032   2.031   7.764   0.087 -0.0163 -0.2022  0.1119
   23MOL   C34914033   2.085   7.614   0.080  0.4450  0.4595  0.3512
   23MOL   C35014034   2.236   7.601   0.129 -0.0869  0.3171  0.6664
   23MOL   C35114035   2.258   7.452   0.145  0.4501  0.1648 -0.0001
   23MOL   C35214036   2.414   7.419   0.184  0.5167 -0.7093  0.7379
   23MOL   C35314037   1.434   7.654   0.074  0.3958  0.3481  0.1078
   23MOL   H35414038   1.456   7.691   7.631  4.0494  0.9958 -0.8183
   23MOL   H35514039   1.638   0.059   7.693 -0.6281 -0.5541 -0.9985
   23MOL   H35614040   1.684   7.745   7.552  0.0963  1.8870  0.0173
   23MOL   H35714041   1.900   0.047   7.614  1.1345 -2.1981 -0.5190
   23MOL   H35814042   1.883   7.649   7.654 -0.8520  0.1392 -0.4854
   23MOL   H35914043   1.853   0.106   0.057  0.1971 -0.3673 -1.0390
   23MOL   H36014044   1.819   7.712   0.111 -2.1742 -0.6658 -1.8967
   23MOL   H36114045   2.095   0.049   0.023  1.4769 -2.3641 -0.4684
   23MOL   H36214046   2.054   0.033   0.184 -1.7286  1.3819 -0.1557
   23MOL   H36314047   2.028   7.557   0.152  0.9482  1.7375  1.7791
   23MOL   H36414048   2.074   7.568   7.756 -0.9166 -1.6157  1.4299
   23MOL   H36514049   2.257   7.663   0.216  1.3368  0.8559 -0.0397
   23MOL   H36614050   2.309   7.645   0.061 -0.7948  1.0564  0.3722
   23MOL   H36714051   2.195   7.424   0.229  0.3605  2.0201  0.5832
   23MOL   H36814052   2.221   7.389   0.063  0.4556  0.3003 -0.1074
   23MOL   H36914053   2.475   7.443   0.096 -3.1065 -0.3446 -1.7694
   23MOL   H37014054   2.432   7.312   0.186 -0.3265 -0.9538 -2.6337
   23MOL   H37114055   2.451   7.476   0.270  2.0849 -0.3850 -0.1210
   23MOL   H37214056   1.450   7.569   0.141 -1.9797 -0.5825 -0.4509
   23MOL   H37314057   1.489   7.742   0.107  0.3142  0.2449  0.5193
   23MOL   C37414058   1.277   7.675   0.080 -0.6381  0.2480  0.1424
   23MOL   O37514059   1.260   0.017   0.005 -0.7551 -0.1000  0.2039
   23MOL   C37614060   1.191   0.020   7.655 -0.5536  0.2017 -0.8370
   23MOL   C37714061   1.201   0.160   7.593 -0.5573 -0.9676  0.0570
   23MOL   C37814062   1.338   0.186   7.536 -0.0783  0.5632 -0.8882
   23MOL   C37914063   1.362   0.151   7.390  0.4921 -0.5291  0.4084
   23MOL   C38014064   1.494   0.204   7.338  0.2854 -0.0970 -0.6807
   23MOL   C38114065   1.533   0.172   7.192 -0.2736 -0.2972  0.7380
   23MOL   C38214066   1.627   0.276   7.127 -0.0386 -0.6131 -0.1166
   23MOL   C38314067   1.765   0.301   7.184  0.1035 -0.0017 -0.6334
   23MOL   C38414068   1.217   7.699   0.222 -0.1971  0.2552 -0.1524
   23MOL   H38514069   1.216   7.595   0.038 -1.2951  0.9578 -0.2739
   23MOL   H38614070   1.087   7.772   7.679  0.1017 -0.7533  1.2488
   23MOL   H38714071   1.224   7.719   7.583 -0.7422 -0.1294 -0.5797
   23MOL   H38814072   1.173   0.232   7.669 -0.1026 -0.3601 -0.3485
   23MOL   H38914073   1.130   0.175   7.511 -2.5066 -0.7227  1.7632
   23MOL   H39014074   1.351   0.294   7.539  0.6562  0.4512  0.2822
   23MOL   H39114075   1.416   0.140   7.596 -0.1518 -0.4906 -1.5893
   23MOL   H39214076   1.346   0.043   7.381 -0.2234 -0.3395 -0.7432
   23MOL   H39314077   1.289   0.196   7.323  1.2062  1.4266  0.9080
   23MOL   H39414078   1.496   0.313   7.343  3.7520 -0.1757  1.3444
   23MOL   H39514079   1.573   0.177   7.408  0.5912 -0.0886 -1.0239
   23MOL   H39614080   1.440   0.160   7.137 -0.8563 -0.9829  1.8583
   23MOL   H39714081   1.589   0.078   7.181  2.4312  1.4191 -0.7922
   23MOL   H39814082   1.658   0.244   7.028  0.6176  0.9265 -0.4245
   23MOL   H39914083   1.574   0.368   7.103  0.5764 -0.2588 -0.1162
   23MOL   H40014084   1.830   0.218   7.159  0.2661 -0.0614 -0.0264
   23MOL   H40114085   1.750   0.311   7.292 -1.4144  1.7836 -0.9782
   23MOL   H40214086   1.800   0.397   7.145 -1.3787 -0.1432 -2.3602
   23MOL   H40314087   1.250   0.015   0.273 -3.3675  1.3396  0.0401
   23MOL   H40414088   1.112   7.723   0.206  0.0212  0.7883 -0.8274
   23MOL   C40514089   1.243   7.580   0.319 -0.6834 -0.4500  0.1907
   23MOL   O40614090   1.180   7.460   0.268  0.2861  0.3034  0.0274
   23MOL   C40714091   1.250   7.338   0.292  0.2886 -0.1406  0.2447
   23MOL   C40814092   1.213   7.234   0.190 -0.4806  0.0720  0.1145
   23MOL   C40914093   1.305   7.112   0.185  0.1371 -0.1053 -0.7912
   23MOL   C41014094   1.270   7.029   0.059  0.6282  0.0371 -0.4581
   23MOL   C41114095   1.353   6.904   0.042  0.3376 -0.0949 -0.4968
   23MOL   C41214096   1.327   6.841   7.682  0.7477  0.6437  0.5555
   23MOL   C41314097   1.396   6.701   7.667  0.3548 -0.2066  0.4306
   23MOL   C41414098   1.384   6.645   7.523  0.2845  0.6048 -0.2781
   23MOL   C41514099   1.190   7.620   0.465 -1.2323  0.3244  0.2783
   23MOL   H41614100   1.351   7.571   0.332 -0.7478  0.0951  1.1258
   23MOL   H41714101   1.218   7.310   0.393  1.3631 -0.8667  0.3903
   23MOL   H41814102   1.357   7.358   0.294  0.0852  1.2492 -1.9089
   23MOL   H41914103   1.201   7.286   0.095  1.3696  0.1272 -0.0999
   23MOL   H42014104   1.116   7.187   0.207  0.3174 -0.6161  3.1146
   23MOL   H42114105   1.407   7.150   0.190  0.1131 -0.1986  0.6816
   23MOL   H42214106   1.285   7.059   0.278 -0.5800  0.9519 -0.3442
   23MOL   H42314107   1.163   7.011   0.051  0.5108 -0.8670  2.4130
   23MOL   H42414108   1.290   7.099   7.753 -0.6175 -0.0192 -0.8258
   23MOL   H42514109   1.457   6.932   0.057 -0.0799  0.6593  1.1342
   23MOL   H42614110   1.315   6.835   0.118 -0.6609  0.3129 -0.6171
   23MOL   H42714111   1.343   6.913   7.602 -1.1722 -0.9486 -1.3237
   23MOL   H42814112   1.221   6.818   7.676  1.3579 -2.0571 -0.4518
   23MOL   H42914113   1.498   6.701   7.706  0.1423 -0.6929  0.9867
   23MOL   H43014114   1.341   6.643   7.741 -1.3523 -1.4217 -1.7095
   23MOL   H43114115   1.436   6.694   7.441  0.6229 -0.7437 -0.8871
   23MOL   H43214116   1.277   6.644   7.505  0.5789  0.7394 -2.1549
   23MOL   H43314117   1.404   6.538   7.518  1.8013  0.6302  3.2099
   23MOL   H43414118   1.232   7.547   0.535 -3.1802  0.4211  1.5750
   23MOL   H43514119   1.232   7.718   0.489 -0.8886  0.5873 -1.3494
   23MOL   C43614120   1.041   7.625   0.482  0.1666  0.5362  0.0957
   23MOL   O43714121   0.988   7.759   0.448 -0.5325  0.1917 -0.0699
   23MOL   C43814122   0.855   7.760   0.407  0.9438 -0.7604  0.3976
   23MOL   C43914123   0.792   0.101   0.492  0.4114 -0.1974 -0.2207
   23MOL   C44014124   0.637   0.094   0.505  0.3552 -0.4082  0.2686
   23MOL   C44114125   0.578   0.186   0.607  0.5605 -0.8582  0.1966
   23MOL   C44214126   0.428   0.154   0.625 -0.4688  0.8023 -0.0410
   23MOL   C44314127   0.353   0.257   0.718 -0.3147 -0.2052  0.6796
   23MOL   C44414128   0.195   0.254   0.716 -0.4217 -0.6828 -0.2058
   23MOL   C44514129   0.142   0.115   0.754 -0.0138  0.1574  0.2087
   23MOL   C44614130   0.972   7.584   0.617  0.4167  0.2418 -0.3736
   23MOL   H44714131   1.002   7.553   0.411 -0.9518  0.1700  1.0645
   23MOL   H44814132   0.851   0.002   0.300 -1.8056  0.6168  0.6721
   23MOL   H44914133   0.810   7.662   0.424 -2.2803  0.6980  0.6148
   23MOL   H45014134   0.832   0.199   0.465  2.4085 -1.1734 -0.8925
   23MOL   H45114135   0.822   0.091   0.596  2.0148  1.1631 -0.5394
   23MOL   H45214136   0.592   0.099   0.406 -0.0341  0.3820  0.4805
   23MOL   H45314137   0.615   7.765   0.531 -2.5257  0.0780 -0.1417
   23MOL   H45414138   0.619   0.176   0.707  0.8297 -1.5696  0.0155
   23MOL   H45514139   0.587   0.289   0.572 -1.1703 -0.0417  2.0017
   23MOL   H45614140   0.388   0.169   0.525  2.9562 -0.0780 -1.6010
   23MOL   H45714141   0.417   0.051   0.657  1.6448 -0.3388 -2.7708
   23MOL   H45814142   0.386   0.357   0.693 -0.1219 -0.5806 -0.5559
   23MOL   H45914143   0.381   0.255   0.824 -0.7236  1.4678  0.8259
   23MOL   H46014144   0.165   0.332   0.786  1.1370  0.8467 -1.1913
   23MOL   H46114145   0.164   0.283   0.615  0.8047  0.9452 -0.1491
   23MOL   H46214146   0.033   0.120   0.747 -0.3439 -1.2068  3.3947
   23MOL   H46314147   0.153   0.111   0.863 -0.0476  1.0073  0.2443
   23MOL   H46414148   0.175   0.030   0.694 -0.4020  1.1847 -1.4838
   23MOL   H46514149   1.018   7.655   0.687  1.8392  1.1269 -2.1695
   23MOL   H46614150   0.868   7.617   0.619  0.1462 -0.4143 -2.4779
   23MOL   C46714151   0.988   7.428   0.648  0.0160 -0.7624 -0.3743
   23MOL   O46814152   0.873   7.353   0.600 -0.4474 -0.0386  0.2447
   23MOL   C46914153   0.859   7.316   0.469 -0.3011 -0.3218 -0.2493
   23MOL   C47014154   0.726   7.245   0.443  0.7634 -0.2098 -0.6643
   23MOL   C47114155   0.604   7.333   0.480 -0.1727  0.7408  0.2910
   23MOL   C47214156   0.474   7.250   0.461  0.2158  0.2454 -0.2127
   23MOL   C47314157   0.431   7.222   0.315 -0.0956 -0.2072 -0.0133
   23MOL   C47414158   0.289   7.160   0.308  0.1137 -0.0982  0.3952
   23MOL   C47514159   0.239   7.138   0.165 -0.5431 -0.5244  0.5271
   23MOL   C47614160   0.123   7.037   0.155  0.8320  0.4015 -0.3625
   23MOL   C47714161   0.994   7.405   0.799 -0.0442 -1.1003 -0.3752
   23MOL   H47814162   1.081   7.384   0.613 -1.2358 -2.4627 -1.6655
   23MOL   H47914163   0.939   7.259   0.421  0.2400  0.6646 -0.5500
   23MOL   H48014164   0.855   7.404   0.404  1.9777 -0.8474 -1.1502
   23MOL   H48114165   0.714   7.160   0.511 -0.2070 -0.1628 -0.7673
   23MOL   H48214166   0.723   7.211   0.340  2.1311  0.0369 -0.7911
   23MOL   H48314167   0.596   7.367   0.583 -1.6501 -2.1194  1.1648
   23MOL   H48414168   0.602   7.428   0.427 -0.0806  0.3369 -0.4480
   23MOL   H48514169   0.488   7.150   0.503 -0.9914  0.7475  1.4309
   23MOL   H48614170   0.394   7.312   0.500  2.2657  2.4487  0.6243
   23MOL   H48714171   0.445   7.319   0.267 -0.7690 -0.1858 -0.1750
   23MOL   H48814172   0.510   7.159   0.274 -0.3310 -0.1260 -0.6037
   23MOL   H48914173   0.217   7.227   0.355  0.6019  1.0297 -0.4545
   23MOL   H49014174   0.288   7.067   0.364  0.0745 -0.4072 -0.1183
   23MOL   H49114175   0.209   7.235   0.125 -0.5522 -1.4350 -1.7610
   23MOL   H49214176   0.328   7.104   0.112 -1.1616  3.1358 -3.1506
   23MOL   H49314177   0.031   7.076   0.198 -1.0571 -1.4047 -2.6485
   23MOL   H49414178   0.154   6.950   0.213  0.2544  1.0456  0.9332
   23MOL   H49514179   0.114   7.009   0.050  2.1442  3.1913 -1.2818
   23MOL   H49614180   0.900   7.447   0.834 -0.7632 -1.3831 -1.9140
   23MOL   H49714181   0.987   7.297   0.809 -1.1667 -1.0228 -0.3076
   23MOL   C49814182   1.110   7.472   0.874  0.0742 -0.1657  0.7376
   23MOL   O49914183   1.234   7.426   0.813 -0.2062  0.0285  0.1212
   23MOL   C50014184   1.343   7.513   0.837  0.0199  0.0343  0.3190
   23MOL   C50114185   1.471   7.443   0.793 -0.5888 -0.3529 -0.7055
   23MOL   C50214186   1.510   7.461   0.642  0.2125  0.1129 -0.3264
   23MOL   C50314187   1.634   7.381   0.600  0.3131 -0.9464  0.1720
   23MOL   C50414188   1.652   7.362   0.449 -0.4141  0.4559  0.0257
   23MOL   C50514189   1.761   7.262   0.421  0.0562 -0.0095  0.0631
   23MOL   C50614190   1.783   7.224   0.276  0.2795 -0.0755  0.3665
   23MOL   C50714191   1.832   7.335   0.178 -0.3291 -0.1201  0.1910
   23MOL   C50814192   1.101   7.448   1.025 -0.1210 -0.2650 -0.7185
   23MOL   H50914193   1.104   7.576   0.844 -0.3211 -0.5215 -0.4504
   23MOL   H51014194   1.353   7.541   0.942 -2.1543  2.5759 -0.0894
   23MOL   H51114195   1.339   7.596   0.767  3.6449  0.7024  0.8119
   23MOL   H51214196   1.447   7.339   0.813  1.1639 -0.6763 -0.2010
   23MOL   H51314197   1.554   7.472   0.857  0.1713 -1.2461 -1.2731
   23MOL   H51414198   1.419   7.427   0.592 -1.4095  0.7940  2.0686
   23MOL   H51514199   1.530   7.568   0.638  4.4416 -0.3889  3.1272
   23MOL   H51614200   1.726   7.426   0.638  0.0301 -0.6363  0.5006
   23MOL   H51714201   1.633   7.284   0.648  0.9175  0.1617  2.5141
   23MOL   H51814202   1.557   7.326   0.411 -0.3163  0.6386 -0.4001
   23MOL   H51914203   1.674   7.458   0.401  1.1151  0.6273  1.0151
   23MOL   H52014204   1.731   7.169   0.468  2.1347 -1.4424 -1.3215
   23MOL   H52114205   1.850   7.293   0.477  1.3557 -1.4801 -1.1267
   23MOL   H52214206   1.857   7.144   0.270  3.7184  3.1770 -2.5502
   23MOL   H52314207   1.691   7.191   0.226 -2.0423  2.7284  2.6313
   23MOL   H52414208   1.760   7.415   0.160 -0.1360  0.2213  0.9222
   23MOL   H52514209   1.849   7.292   0.079 -1.6545 -1.6974  0.6322
   23MOL   H52614210   1.921   7.386   0.216 -0.8387  0.5746  0.4584
   23MOL   H52714211   1.091   7.340   1.034  2.0819 -0.2390  2.7948
   23MOL   H52814212   1.197   7.458   1.076 -1.4763 -0.7354  1.9883
   23MOL   C52914213   0.973   7.510   1.098  0.7444  0.2460  0.3448
   23MOL   O53014214   0.972   7.649   1.078 -0.2632  0.2860 -0.1907
   23MOL   C53114215   0.854   7.698   1.018 -0.3624  0.1138 -0.3220
   23MOL   C53214216   0.850   0.078   1.008  0.5238 -0.0340  0.1092
   23MOL   C53314217   0.864   0.152   1.143  0.0342  0.7047 -0.5257
   23MOL   C53414218   0.834   0.302   1.141  0.8257 -0.2336 -0.2268
   23MOL   C53514219   0.838   0.352   1.291 -0.3230  0.2461  0.5067
   23MOL   C53614220   0.781   0.498   1.288 -0.6245  0.1354  0.5119
   23MOL   C53714221   0.778   0.568   1.427  0.2793  0.5201 -0.6744
   23MOL   C53814222   0.716   0.484   1.535  0.2554 -0.0976 -0.3578
   23MOL   C53914223   0.968   7.502   1.244  0.7447 -0.1438  0.2103
   23MOL   H54014224   0.881   7.462   1.066  2.0000 -0.7950 -1.8970
   23MOL   H54114225   0.838   7.642   0.926  2.5019  0.7068 -1.2452
   23MOL   H54214226   0.774   7.655   1.077 -2.3429  0.6768 -2.5276
   23MOL   H54314227   0.759   0.101   0.953  0.4481  1.1813  0.7317
   23MOL   H54414228   0.930   0.107   0.940 -1.1900  3.0265 -0.6735
   23MOL   H54514229   0.797   0.106   1.215 -1.0465  0.0962 -1.8905
   23MOL   H54614230   0.965   0.140   1.184 -0.4968 -0.2166  0.5506
   23MOL   H54714231   0.908   0.349   1.076  2.5691 -1.0762  1.1072
   23MOL   H54814232   0.741   0.318   1.086  0.4060  2.8506  1.2325
   23MOL   H54914233   0.779   0.278   1.346  0.7128 -2.1218 -1.4790
   23MOL   H55014234   0.939   0.348   1.331 -0.5560  0.4469  1.1300
   23MOL   H55114235   0.682   0.498   1.244 -1.4335 -1.6568  2.2681
   23MOL   H55214236   0.842   0.552   1.215 -1.5599  1.0926  0.4434
   23MOL   H55314237   0.877   0.607   1.452  0.9066 -1.8901  0.8023
   23MOL   H55414238   0.713   0.656   1.428  1.1221  1.1459  1.0101
   23MOL   H55514239   0.705   0.553   1.619 -0.0869  0.2888 -0.7179
   23MOL   H55614240   0.781   0.402   1.565 -1.4604 -1.6747 -0.9224
   23MOL   H55714241   0.623   0.438   1.503 -0.3197  1.0834 -0.4148
   23MOL   H55814242   1.044   7.560   1.296  1.5331 -1.0567  0.0739
   23MOL   H55914243   0.875   7.547   1.281  1.7958  1.8099  0.5173
   23MOL   C56014244   0.961   7.352   1.292  0.0670 -0.4003  0.5278
   23MOL   O56114245   0.825   7.291   1.262 -0.3748  0.0699  0.1311
   23MOL   C56214246   0.834   7.164   1.201 -0.3305 -0.2864 -0.0623
   23MOL   C56314247   0.700   7.127   1.132  0.0346  0.4883  0.3821
   23MOL   C56414248   0.673   7.228   1.018 -0.0543  0.4857 -0.1300
   23MOL   C56514249   0.555   7.191   0.930  0.2893 -0.0098 -0.4927
   23MOL   C56614250   0.485   7.307   0.860  0.2133  0.2111 -0.3334
   23MOL   C56714251   0.378   7.361   0.957  0.1839 -0.3057  0.3600
   23MOL   C56814252   0.296   7.479   0.892 -0.2689 -0.2207 -0.6188
   23MOL   C56914253   0.372   7.612   0.886  0.1735  0.7705  0.3655
   23MOL   C57014254   0.977   7.327   1.443  0.2098  0.3875 -0.1405
   23MOL   H57114255   1.039   7.288   1.250 -0.2703 -0.2186 -0.3785
   23MOL   H57214256   0.882   7.092   1.267 -0.5546  0.0463  0.4610
   23MOL   H57314257   0.906   7.158   1.119 -1.3020 -0.7123 -0.8978
   23MOL   H57414258   0.617   7.115   1.203  1.1240  1.1434  1.7871
   23MOL   H57514259   0.702   7.029   1.085 -0.1366  0.0075  1.3611
   23MOL   H57614260   0.658   7.325   1.065  0.8275  0.3709  0.3988
   23MOL   H57714261   0.763   7.242   0.959 -1.7467 -0.6608 -3.1605
   23MOL   H57814262   0.589   7.115   0.859 -0.3041  0.0101 -0.7965
   23MOL   H57914263   0.483   7.137   0.991  1.5896 -0.2175  0.8696
   23MOL   H58014264   0.553   7.385   0.825 -0.7829  0.4829 -1.7139
   23MOL   H58114265   0.426   7.281   0.773  0.2048 -1.1104  0.0585
   23MOL   H58214266   0.428   7.391   1.049  1.8766 -1.1658 -0.2446
   23MOL   H58314267   0.309   7.282   0.987  0.1939 -0.9320 -1.2326
   23MOL   H58414268   0.279   7.462   0.786  3.2456  2.0294 -1.6549
   23MOL   H58514269   0.202   7.483   0.946  0.7792  0.6682  1.2118
   23MOL   H58614270   0.378   7.659   0.984  2.3852 -1.0937  1.1885
   23MOL   H58714271   0.314   7.675   0.819 -0.9836 -1.3963 -0.7142
   23MOL   H58814272   0.470   7.597   0.841  0.8206  4.2902  0.4956
   23MOL   H58914273   0.881   7.352   1.488 -1.1419  0.2562 -2.8972
   23MOL   H59014274   0.990   7.219   1.452 -1.5580  0.2304  0.6474
   23MOL   C59114275   1.092   7.411   1.505 -0.1123 -0.5086 -1.0006
   23MOL   O59214276   1.213   7.402   1.432  0.0392  0.2506 -0.5456
   23MOL   C59314277   1.322   7.484   1.478  0.8527  0.4842 -0.1509
   23MOL   C59414278   1.439   7.472   1.380 -0.0902  0.2516 -0.1177
   23MOL   C59514279   1.507   7.337   1.403 -0.5795  0.3300  0.1324
   23MOL   C59614280   1.640   7.312   1.335 -0.4145  0.0197  0.4726
   23MOL   C59714281   1.603   7.262   1.187  0.3165  0.2240 -0.8289
   23MOL   C59814282   1.722   7.282   1.093 -1.0048 -0.2335 -0.7766
   23MOL   C59914283   1.711   7.189   0.968 -0.2187 -0.4018  0.3930
   23MOL   C60014284   1.833   7.200   0.875  0.1998  0.0937 -0.1099
   23MOL   C60114285   1.099   7.369   1.659 -0.0290 -0.2115 -0.3058
   23MOL   H60214286   1.056   7.513   1.506  3.1709  0.7190 -0.0701
   23MOL   H60314287   1.359   7.460   1.578 -0.3311  1.7871  0.6201
   23MOL   H60414288   1.280   7.585   1.485 -2.0692 -0.7209  0.3468
   23MOL   H60514289   1.521   7.542   1.398  2.0820 -2.4112  0.7887
   23MOL   H60614290   1.406   7.497   1.279 -4.0810 -0.6037  0.8841
   23MOL   H60714291   1.527   7.333   1.510  0.1639 -0.2968 -0.0303
   23MOL   H60814292   1.432   7.266   1.370 -0.1160  0.8162 -2.0617
   23MOL   H60914293   1.699   7.403   1.330  1.1095 -1.0006 -0.9634
   23MOL   H61014294   1.710   7.243   1.382 -0.1566 -0.2186 -0.2500
   23MOL   H61114295   1.581   7.156   1.199 -0.0879  0.2409 -1.4401
   23MOL   H61214296   1.512   7.306   1.146 -0.1783 -1.5213 -1.6250
   23MOL   H61314297   1.814   7.249   1.140 -2.2122  0.9431  2.5099
   23MOL   H61414298   1.731   7.386   1.063 -0.9442  0.4495  1.5481
   23MOL   H61514299   1.686   7.088   1.002 -1.0184 -0.2323  0.3213
   23MOL   H61614300   1.629   7.220   0.903 -0.3922 -0.3525  0.6372
   23MOL   H61714301   1.921   7.165   0.929  0.5902 -0.8776 -1.3533
   23MOL   H61814302   1.844   7.301   0.834  1.6531  0.4136  1.0276
   23MOL   H61914303   1.823   7.126   0.795  1.6492 -0.8298  0.5397
   23MOL   H62014304   1.158   7.440   1.717 -2.1925  0.3792  1.2443
   23MOL   H62114305   0.999   7.364   1.701 -1.0277 -1.8918 -2.7320
   23MOL   H62214306   1.142   7.269   1.659  1.2080  0.3085  1.7250
   24MOL     C114307   1.207   3.554   5.114  0.5969 -0.1453  0.4881
   24MOL     O214308   1.155   3.447   5.188  0.1767 -0.6125  0.1638
   24MOL     C314309   1.096   3.482   5.317 -0.0626 -0.3409  0.3483
   24MOL     C414310   1.016   3.361   5.374  0.0832  0.8958 -0.2109
   24MOL     C514311   1.115   3.259   5.435  0.1644  0.6593 -0.0828
   24MOL     C614312   1.041   3.163   5.521 -0.0545  0.4475 -0.3294
   24MOL     C714313   1.097   3.018   5.521  0.2689 -0.3065 -0.2003
   24MOL     C814314   1.237   3.011   5.576 -0.2307  0.4626 -0.4962
   24MOL     C914315   1.281   2.871   5.613  0.2820 -1.2551 -0.2416
   24MOL    C1014316   1.422   2.871   5.671 -0.0232 -0.5693  0.1679
   24MOL    C1114317   1.162   3.540   4.960 -0.1066 -0.5032  0.8302
   24MOL    H1214318   1.155   3.640   5.158  3.4772  2.7295 -1.4736
   24MOL    H1314319   1.023   3.562   5.317  0.9057  0.5533  1.4919
   24MOL    H1414320   1.183   3.513   5.375 -1.8040  2.0848  1.7487
   24MOL    H1514321   0.940   3.326   5.304 -0.2415 -1.0148  1.0545
   24MOL    H1614322   0.968   3.400   5.464 -1.2387 -3.1284  0.9420
   24MOL    H1714323   1.159   3.203   5.352 -0.4924  1.1554 -0.7667
   24MOL    H1814324   1.201   3.297   5.490  2.0230 -2.9770 -0.3139
   24MOL    H1914325   1.033   3.192   5.625 -2.4131 -1.1234 -0.0170
   24MOL    H2014326   0.938   3.155   5.487 -0.6149  1.2318  1.1371
   24MOL    H2114327   1.036   2.957   5.586 -1.0404 -0.8385 -1.9001
   24MOL    H2214328   1.097   2.967   5.425 -0.9972 -0.6216 -0.0420
   24MOL    H2314329   1.243   3.069   5.668  2.0791  1.5966 -1.3149
   24MOL    H2414330   1.307   3.058   5.507  0.1048  1.3156  0.3994
   24MOL    H2514331   1.216   2.807   5.672 -1.4068  1.0973  0.5040
   24MOL    H2614332   1.285   2.820   5.517  1.2812 -0.7727 -0.4585
   24MOL    H2714333   1.453   2.771   5.700 -1.7013 -1.1792 -0.0660
   24MOL    H2814334   1.432   2.937   5.756 -0.9938 -1.2689  0.8363
   24MOL    H2914335   1.485   2.908   5.590 -0.2491 -1.8105 -0.6044
   24MOL    H3014336   1.226   3.461   4.919 -0.8609 -0.8872  0.3796
   24MOL    H3114337   1.058   3.508   4.961  0.1307 -1.3899 -1.1435
   24MOL    H3214338   1.314   3.557   5.131  0.6308 -2.6491  0.7974
   24MOL    C3314339   1.188   3.673   4.881 -0.2439  0.2756 -0.3080
   24MOL    O3414340   1.138   3.787   4.943  0.0746 -0.3421 -0.1124
   24MOL    C3514341   1.234   3.888   4.961 -0.0966  0.1096 -0.2655
   24MOL    C3614342   1.191   4.012   5.035 -0.6373  0.4313  0.3923
   24MOL    C3714343   1.217   4.003   5.187 -0.2997 -0.3171 -0.0220
   24MOL    C3814344   1.181   4.137   5.256 -0.4062 -0.3964 -0.5691
   24MOL    C3914345   1.161   4.125   5.412 -0.7817  0.0537  0.1018
   24MOL    C4014346   1.013   4.096   5.447 -0.2493  0.2279  0.4375
   24MOL    C4114347   0.967   4.138   5.591  0.2069 -0.4681  0.6415
   24MOL    C4214348   0.820   4.087   5.604  0.3129  0.4104  0.2565
   24MOL    C4314349   1.112   3.667   4.746  0.3909 -0.0557 -0.5980
   24MOL    H4414350   1.297   3.678   4.880 -0.2394  0.0771 -1.6264
   24MOL    H4514351   1.272   3.915   4.862 -1.3578  0.9683 -0.5225
   24MOL    H4614352   1.321   3.846   5.012 -0.5381  2.4052  2.4707
   24MOL    H4714353   1.083   4.018   5.022 -0.5270  0.9157 -0.3770
   24MOL    H4814354   1.238   4.099   4.988 -2.5023  1.3074  0.0817
   24MOL    H4914355   1.160   3.920   5.229 -2.1996  0.6684 -0.6018
   24MOL    H5014356   1.323   3.979   5.201 -0.1578  0.7318  0.7585
   24MOL    H5114357   1.270   4.199   5.246  0.8564 -1.8533  1.2842
   24MOL    H5214358   1.096   4.180   5.203 -1.7295  0.0894  1.8846
   24MOL    H5314359   1.224   4.056   5.468  1.8327  0.0349 -2.7481
   24MOL    H5414360   1.188   4.225   5.447  1.5558 -1.3830  2.4809
   24MOL    H5514361   0.998   3.990   5.429  1.9630 -0.1242  0.4904
   24MOL    H5614362   0.954   4.149   5.373 -0.0265  0.8325  0.6844
   24MOL    H5714363   1.045   4.105   5.660  1.6020  0.9465 -0.2450
   24MOL    H5814364   0.960   4.247   5.586  0.1336 -0.4646  0.8098
   24MOL    H5914365   0.748   4.109   5.526 -4.4786  1.8403  4.7920
   24MOL    H6014366   0.786   4.116   5.703 -0.6621  0.4260 -0.0756
   24MOL    H6114367   0.821   3.979   5.619 -1.8421  0.5168  1.3259
   24MOL    H6214368   1.007   3.646   4.769 -0.5809  4.4591 -0.3736
   24MOL    H6314369   1.111   3.769   4.707  1.2698  0.2766  0.2178
   24MOL    C6414370   1.161   3.567   4.639 -0.6219 -0.0042  0.8887
   24MOL    O6514371   1.276   3.622   4.563 -0.5512  0.3354 -0.0213
   24MOL    C6614372   1.404   3.591   4.618 -0.1875  0.1295 -0.3610
   24MOL    C6714373   1.500   3.652   4.513  1.0148  0.1532  0.0432
   24MOL    C6814374   1.519   3.568   4.382 -0.2274 -0.4273 -0.4184
   24MOL    C6914375   1.652   3.603   4.305 -0.1251 -0.8063 -1.0750
   24MOL    C7014376   1.676   3.529   4.172 -0.2497 -0.0283 -0.0046
   24MOL    C7114377   1.815   3.559   4.109 -0.3508 -0.2839 -0.2547
   24MOL    C7214378   1.839   3.491   3.978 -0.4191 -0.3816 -0.1123
   24MOL    C7314379   1.982   3.513   3.928 -0.4032 -0.0820  0.4565
   24MOL    C7414380   1.060   3.538   4.524 -0.2752  0.1771 -0.5036
   24MOL    H7514381   1.194   3.477   4.692  1.0529  0.2953  0.4002
   24MOL    H7614382   1.412   3.483   4.623  0.9050  0.2849  1.3971
   24MOL    H7714383   1.418   3.634   4.717 -0.9378 -0.3000 -0.0704
   24MOL    H7814384   1.594   3.649   4.569  1.1293  0.8719 -0.1020
   24MOL    H7914385   1.480   3.759   4.505  0.2736  0.2339  2.5551
   24MOL    H8014386   1.516   3.465   4.419  0.4668  0.2161  1.4732
   24MOL    H8114387   1.427   3.582   4.325  0.2300 -1.0618 -1.3221
   24MOL    H8214388   1.657   3.708   4.274 -0.2989 -0.5206 -0.1511
   24MOL    H8314389   1.729   3.570   4.375 -0.0099  0.8243 -0.4098
   24MOL    H8414390   1.656   3.423   4.190  1.4887 -0.4594 -0.4635
   24MOL    H8514391   1.605   3.568   4.099 -0.8557  0.2602  0.7319
   24MOL    H8614392   1.898   3.540   4.178 -1.0751  1.2495  1.0821
   24MOL    H8714393   1.827   3.667   4.111 -0.3835 -0.2335 -1.9216
   24MOL    H8814394   1.811   3.386   3.990 -2.1132  0.1367  0.6108
   24MOL    H8914395   1.779   3.522   3.893 -0.3883  0.3055  0.1179
   24MOL    H9014396   2.001   3.613   3.887 -1.8294  0.7479  1.7655
   24MOL    H9114397   2.007   3.446   3.846 -1.9278  1.1639 -1.0647
   24MOL    H9214398   2.059   3.481   3.998  0.0591 -0.6400 -0.2937
   24MOL    H9314399   0.975   3.508   4.586  0.7188 -1.1111  0.2632
   24MOL    H9414400   1.039   3.636   4.480  0.6704  0.7184  0.2292
   24MOL    C9514401   1.099   3.433   4.413 -0.2790 -0.4732  0.0759
   24MOL    O9614402   0.980   3.432   4.333 -0.6451 -0.2627 -0.5426
   24MOL    C9714403   0.985   3.483   4.197  0.4454 -0.1108 -0.8491
   24MOL    C9814404   0.836   3.503   4.155  0.1602  0.4712 -0.2081
   24MOL    C9914405   0.820   3.570   4.014  0.3974  0.0522 -0.0179
   24MOL   C10014406   0.677   3.579   3.965 -0.1511 -0.1613  0.3379
   24MOL   C10114407   0.664   3.679   3.851  0.0807  0.2754  0.3649
   24MOL   C10214408   0.526   3.662   3.790 -0.7041  0.0330  0.3561
   24MOL   C10314409   0.529   3.734   3.655  0.4564  0.5802 -0.0868
   24MOL   C10414410   0.396   3.726   3.575  0.5061  0.4796 -0.0161
   24MOL   C10514411   1.121   3.298   4.483  0.5050 -0.2915  0.1395
   24MOL   H10614412   1.185   3.468   4.355 -1.5345 -0.6659 -1.9433
   24MOL   H10714413   1.031   3.417   4.123  0.8700 -1.1147  0.2947
   24MOL   H10814414   1.034   3.580   4.185  2.7512 -1.0359  0.6065
   24MOL   H10914415   0.781   3.552   4.235  0.5881 -0.2434  0.5242
   24MOL   H11014416   0.785   3.407   4.161 -0.2623  0.6181 -1.2982
   24MOL   H11114417   0.857   3.672   4.030 -0.6398  0.5195 -0.5254
   24MOL   H11214418   0.891   3.532   3.941  0.1094  1.7566 -1.2464
   24MOL   H11314419   0.652   3.479   3.929  2.1447 -1.2589  1.6998
   24MOL   H11414420   0.612   3.605   4.049 -1.0271  2.9571 -1.2045
   24MOL   H11514421   0.683   3.778   3.892 -0.4902  0.4146  0.3018
   24MOL   H11614422   0.737   3.649   3.776 -1.3401 -2.5938  0.0347
   24MOL   H11714423   0.451   3.706   3.856 -0.4080 -0.0478  0.7526
   24MOL   H11814424   0.492   3.559   3.780  2.8131 -1.1585  0.0886
   24MOL   H11914425   0.568   3.835   3.668  2.1574  0.1835 -1.9065
   24MOL   H12014426   0.600   3.678   3.594  0.0022 -0.3418  0.2323
   24MOL   H12114427   0.424   3.740   3.470  2.9322  0.4458  0.5982
   24MOL   H12214428   0.326   3.800   3.611 -0.2839 -0.7008  0.8989
   24MOL   H12314429   0.363   3.623   3.592  0.7576  0.4853  0.5210
   24MOL   H12414430   1.199   3.305   4.559  0.5233 -0.7273  0.1606
   24MOL   H12514431   1.036   3.267   4.544  1.1293 -0.1043  1.1218
   24MOL   C12614432   1.187   3.192   4.385  0.3419  0.8889 -0.3718
   24MOL   O12714433   1.200   3.065   4.457  0.2619 -0.0462  0.7371
   24MOL   C12814434   1.093   2.975   4.471 -0.6291 -0.3902 -0.1133
   24MOL   C12914435   1.126   2.890   4.594  0.1626 -0.1475 -0.2294
   24MOL   C13014436   1.010   2.825   4.658 -0.1911  0.7064 -0.1110
   24MOL   C13114437   1.049   2.722   4.765  0.3731 -0.4983  0.0567
   24MOL   C13214438   1.126   2.606   4.719  0.4948  0.2932  0.3411
   24MOL   C13314439   1.151   2.497   4.825 -0.3946 -0.3186 -0.0035
   24MOL   C13414440   1.031   2.449   4.913  0.0803 -0.0478 -0.1944
   24MOL   C13514441   1.079   2.348   5.011  0.3984  0.3676 -0.4759
   24MOL   C13614442   1.331   3.231   4.334  0.4759  0.0097  0.4862
   24MOL   H13714443   1.126   3.173   4.297 -1.1927  1.2435  0.5968
   24MOL   H13814444   1.068   2.907   4.389  2.1111 -1.0574 -0.4437
   24MOL   H13914445   1.000   3.030   4.483 -1.2658 -1.6064  0.6332
   24MOL   H14014446   1.177   2.951   4.669 -2.5565  2.7221 -0.6010
   24MOL   H14114447   1.197   2.818   4.552  0.5765  0.3388 -0.3709
   24MOL   H14214448   0.942   2.895   4.706 -0.7911 -0.0223  0.1110
   24MOL   H14314449   0.952   2.764   4.588 -0.3097  0.2986  0.3396
   24MOL   H14414450   1.114   2.777   4.834  2.3225 -2.0756 -0.4923
   24MOL   H14514451   0.957   2.694   4.816 -0.4629 -0.7934 -1.5846
   24MOL   H14614452   1.059   2.561   4.646 -0.1573 -0.3528  1.3232
   24MOL   H14714453   1.222   2.628   4.672  0.8867 -1.6968  0.1290
   24MOL   H14814454   1.224   2.535   4.897 -0.1570 -0.2018 -0.3076
   24MOL   H14914455   1.202   2.417   4.772  0.2138  1.2437 -1.7989
   24MOL   H15014456   0.995   2.530   4.977  0.8854 -1.1787  1.7445
   24MOL   H15114457   0.949   2.404   4.858  0.2330  0.8297 -1.1516
   24MOL   H15214458   1.113   2.256   4.963 -0.1276  0.3718 -0.8622
   24MOL   H15314459   1.004   2.324   5.087  1.3084  0.5211  0.4900
   24MOL   H15414460   1.158   2.394   5.071  0.4423  0.5128 -0.6463
   24MOL   H15514461   1.339   3.332   4.295  1.0719 -0.0241  0.5166
   24MOL   H15614462   1.388   3.232   4.427 -0.5484  1.6227  1.1184
   24MOL   C15714463   1.412   3.132   4.247  0.0947  0.6999 -0.9511
   24MOL   O15814464   1.550   3.173   4.257 -0.3551 -0.6424  0.1033
   24MOL   C15914465   1.640   3.060   4.271  0.5812 -0.4232  0.3262
   24MOL   C16014466   1.781   3.101   4.234 -1.0243 -0.0040 -0.9100
   24MOL   C16114467   1.870   3.186   4.334  0.2852  0.7314  0.3874
   24MOL   C16214468   1.909   3.100   4.460 -0.2660  0.1362  0.0210
   24MOL   C16314469   1.970   3.195   4.569 -0.2667 -0.5985  0.0366
   24MOL   C16414470   2.051   3.116   4.664  0.1244 -0.7651 -0.5825
   24MOL   C16514471   2.106   3.195   4.778 -0.1201 -0.3381  0.2630
   24MOL   C16614472   2.232   3.135   4.842 -0.1924 -0.2749 -0.0142
   24MOL   C16714473   1.362   3.118   4.103 -0.2709  0.1259  0.0080
   24MOL   H16814474   1.405   3.037   4.299  1.1612  0.0457 -1.9856
   24MOL   H16914475   1.622   2.991   4.189 -0.1074 -0.1956  0.2877
   24MOL   H17014476   1.616   3.001   4.359 -1.1998  1.0303  0.8375
   24MOL   H17114477   1.767   3.161   4.144  2.1654  0.7465 -0.9785
   24MOL   H17214478   1.840   3.015   4.204 -0.3614 -0.5528  1.7864
   24MOL   H17314479   1.961   3.225   4.287  0.5287  1.2939  1.3166
   24MOL   H17414480   1.821   3.278   4.364 -0.0235  0.6404  0.1632
   24MOL   H17514481   1.822   3.057   4.510  1.2333 -0.7545  1.9332
   24MOL   H17614482   1.965   3.008   4.441  0.0911  0.0365  1.5147
   24MOL   H17714483   2.036   3.269   4.523  0.5468 -1.1154  0.3712
   24MOL   H17814484   1.888   3.239   4.627 -1.2750 -0.7522 -1.2429
   24MOL   H17914485   2.140   3.082   4.612 -0.2788 -1.9600 -0.5068
   24MOL   H18014486   2.008   3.030   4.715  2.1329 -0.3037  2.0168
   24MOL   H18114487   2.138   3.293   4.743  0.2993 -1.3751 -2.3385
   24MOL   H18214488   2.029   3.215   4.852 -2.0105  0.2689 -1.8010
   24MOL   H18314489   2.314   3.137   4.771  0.9293  1.7081  1.2770
   24MOL   H18414490   2.201   3.032   4.860  0.0143 -0.7906 -2.4195
   24MOL   H18514491   2.274   3.189   4.927 -1.3440  1.7164 -0.6744
   24MOL   H18614492   1.317   3.207   4.060 -1.3673 -0.0739  0.7419
   24MOL   H18714493   1.451   3.096   4.042  0.5503 -1.1340  1.6119
   24MOL   C18814494   1.251   3.010   4.078 -0.1180  0.7002 -0.7818
   24MOL   O18914495   1.321   2.883   4.087  0.0367  0.1131  0.5407
   24MOL   C19014496   1.251   2.783   4.155  0.6994  0.3717  0.0938
   24MOL   C19114497   1.336   2.660   4.180 -1.0205 -0.5237 -0.5889
   24MOL   C19214498   1.265   2.554   4.262  0.5672 -0.3289 -0.4326
   24MOL   C19314499   1.344   2.424   4.280  0.1089  0.9106 -0.0480
   24MOL   C19414500   1.293   2.328   4.390  0.0812  0.4640  0.3612
   24MOL   C19514501   1.381   2.208   4.405 -0.4954  0.1966  0.3616
   24MOL   C19614502   1.514   2.235   4.479  0.4742  0.1709 -0.4789
   24MOL   C19714503   1.586   2.101   4.490 -0.5768 -0.0766 -0.0635
   24MOL   C19814504   1.186   3.007   3.936 -0.6203 -0.8411  0.0000
   24MOL   H19914505   1.172   3.020   4.152 -1.8657 -1.6998 -2.2596
   24MOL   H20014506   1.214   2.810   4.253  0.9110 -0.1491  0.3195
   24MOL   H20114507   1.158   2.758   4.104 -0.4633 -1.9880  3.2033
   24MOL   H20214508   1.425   2.688   4.237 -1.6068  3.0776 -1.3076
   24MOL   H20314509   1.381   2.612   4.093 -0.2854 -0.9830  0.0323
   24MOL   H20414510   1.224   2.589   4.356 -0.4672 -0.4354 -0.8463
   24MOL   H20514511   1.174   2.519   4.214 -0.6224  0.7315  1.0293
   24MOL   H20614512   1.334   2.379   4.181 -1.9481  1.3487 -0.0688
   24MOL   H20714513   1.450   2.443   4.289 -0.1915  1.8836  1.7855
   24MOL   H20814514   1.272   2.380   4.484 -0.9020  0.6475  0.0532
   24MOL   H20914515   1.191   2.298   4.363  0.0764 -0.5787  1.4623
   24MOL   H21014516   1.399   2.177   4.302  0.3187  0.1133  0.5237
   24MOL   H21114517   1.321   2.126   4.444  2.7136 -2.9029 -0.9037
   24MOL   H21214518   1.583   2.309   4.438 -0.9598  2.2206  0.7389
   24MOL   H21314519   1.491   2.280   4.575  2.4281  0.7729 -0.2704
   24MOL   H21414520   1.652   2.086   4.404  0.1651  0.5989  0.3853
   24MOL   H21514521   1.523   2.013   4.500  0.2745 -0.5805  0.9131
   24MOL   H21614522   1.651   2.102   4.577 -1.8789 -0.0992  0.9196
   24MOL   H21714523   1.272   3.011   3.870  0.9306 -3.1078  1.7995
   24MOL   H21814524   1.134   2.912   3.926  0.1193 -1.3819  1.1376
   24MOL   C21914525   1.087   3.119   3.895 -0.6554 -0.8448 -0.0249
   24MOL   O22014526   1.163   3.233   3.888 -0.0109  0.1155 -0.3104
   24MOL   C22114527   1.135   3.330   3.782  0.1912 -0.0718  0.3627
   24MOL   C22214528   1.241   3.441   3.786  1.0551  0.3340 -0.0129
   24MOL   C22314529   1.231   3.534   3.917 -0.4663 -0.1655 -0.3830
   24MOL   C22414530   1.332   3.655   3.919 -0.1659  0.2597 -0.0408
   24MOL   C22514531   1.337   3.715   4.055  0.2901 -0.0926 -0.4099
   24MOL   C22614532   1.424   3.840   4.065 -0.1793  0.7258 -0.3974
   24MOL   C22714533   1.421   3.909   4.201  0.0125  0.1858  0.0105
   24MOL   C22814534   1.534   4.007   4.228 -0.0891  0.1130  0.2822
   24MOL   C22914535   0.969   3.142   4.003  0.0036 -0.0714 -0.2021
   24MOL   H23014536   1.041   3.089   3.801  0.1435 -1.8022 -0.1169
   24MOL   H23114537   1.035   3.372   3.789 -0.4706 -1.4816 -0.4952
   24MOL   H23214538   1.143   3.278   3.686  0.7391  3.1876 -1.4351
   24MOL   H23314539   1.230   3.494   3.691 -2.8471  0.6727  0.5615
   24MOL   H23414540   1.338   3.390   3.784  1.7893  1.6629  0.5673
   24MOL   H23514541   1.130   3.575   3.926 -0.4645  0.0668 -1.3717
   24MOL   H23614542   1.236   3.464   4.000  0.3656 -0.4315 -0.6487
   24MOL   H23714543   1.425   3.604   3.893 -0.5061 -0.6619  0.4849
   24MOL   H23814544   1.304   3.732   3.848  2.7183  1.6187  0.2035
   24MOL   H23914545   1.242   3.749   4.094 -0.5125  1.2884 -3.4126
   24MOL   H24014546   1.359   3.634   4.124  1.3850  0.4534 -0.1024
   24MOL   H24114547   1.395   3.912   3.989 -0.7968  2.0991  1.1158
   24MOL   H24214548   1.524   3.807   4.035 -0.8223 -1.9427  0.2764
   24MOL   H24314549   1.340   3.981   4.204  0.6786  1.0399 -1.6194
   24MOL   H24414550   1.413   3.828   4.273  1.3331  0.0180 -0.0136
   24MOL   H24514551   1.512   4.051   4.325 -3.2440 -2.2417  0.7079
   24MOL   H24614552   1.554   4.081   4.151 -0.1491 -1.4664 -1.2844
   24MOL   H24714553   1.625   3.946   4.230 -0.9188 -1.3419 -2.9416
   24MOL   H24814554   1.010   3.179   4.097 -3.3491 -1.3033  1.8297
   24MOL   H24914555   0.926   3.236   3.969  3.1310  1.3149 -0.5381
   24MOL   C25014556   0.852   3.044   4.022 -0.4294  0.4362  0.6380
   24MOL   O25114557   0.731   3.099   3.980 -0.2307  0.0164  0.2886
   24MOL   C25214558   0.716   3.126   3.836 -0.1471 -0.0851 -0.0321
   24MOL   C25314559   0.570   3.147   3.796  0.1747 -0.3947 -0.0082
   24MOL   C25414560   0.544   3.223   3.658  0.9410  0.3360  0.0477
   24MOL   C25514561   0.401   3.240   3.635  0.5983  0.3203 -0.7797
   24MOL   C25614562   0.380   3.299   3.493  0.5759 -0.5055 -0.2670
   24MOL   C25714563   0.235   3.337   3.453  0.3016 -0.5422 -0.2502
   24MOL   C25814564   0.235   3.401   3.306  0.2453 -0.0063 -0.0046
   24MOL   C25914565   0.088   3.420   3.260 -0.6370 -0.0163  0.1552
   24MOL   C26014566   0.833   2.995   4.169 -0.5974  0.2577  0.2410
   24MOL   H26114567   0.869   2.956   3.959  2.0003  0.7616  0.7697
   24MOL   H26214568   0.755   3.055   3.764  0.3564  1.3115 -1.1730
   24MOL   H26314569   0.775   3.217   3.823 -0.7617  0.8486  3.1592
   24MOL   H26414570   0.517   3.201   3.874  0.9576  0.2063  0.1188
   24MOL   H26514571   0.515   3.054   3.785  1.1086 -0.9422 -0.1031
   24MOL   H26614572   0.602   3.314   3.656  1.8294 -0.1695  1.6889
   24MOL   H26714573   0.580   3.149   3.587 -0.9098  0.0673 -0.6293
   24MOL   H26814574   0.356   3.141   3.626 -2.7403  1.4874  2.0345
   24MOL   H26914575   0.341   3.295   3.708 -1.1838 -1.7418 -0.6418
   24MOL   H27014576   0.438   3.390   3.484 -2.1866  1.2470 -0.7296
   24MOL   H27114577   0.415   3.234   3.413  0.1627  0.6051 -1.3581
   24MOL   H27214578   0.199   3.406   3.529  3.2657 -0.1512  0.8272
   24MOL   H27314579   0.178   3.244   3.460 -0.1398 -0.3520 -1.2203
   24MOL   H27414580   0.296   3.490   3.295  1.1017 -0.5961 -0.0006
   24MOL   H27514581   0.284   3.330   3.241 -0.4055  0.8967 -1.5116
   24MOL   H27614582   0.040   3.323   3.256 -0.9968  0.1662  0.0448
   24MOL   H27714583   0.082   3.453   3.156 -1.0098 -1.6515 -0.3514
   24MOL   H27814584   0.026   3.484   3.323 -1.3724  1.7190 -2.2394
   24MOL   H27914585   0.929   2.970   4.216  0.2635 -0.0960 -1.6683
   24MOL   H28014586   0.781   3.071   4.228 -1.8357  0.5910 -1.2708
   24MOL   C28114587   0.764   2.863   4.193 -0.0893  0.0591 -0.2689
   24MOL   O28214588   0.834   2.748   4.142 -0.6595  0.3278  0.2026
   24MOL   C28314589   0.813   2.628   4.215 -0.1766 -0.6018 -0.7303
   24MOL   C28414590   0.875   2.504   4.147 -0.7010 -0.1180 -0.2421
   24MOL   C28514591   0.783   2.437   4.042 -0.0336  0.0260 -0.1572
   24MOL   C28614592   0.718   2.537   3.947 -0.1240 -0.2010  0.2438
   24MOL   C28714593   0.662   2.477   3.821 -0.4746 -0.5294 -0.3444
   24MOL   C28814594   0.620   2.591   3.719 -0.4272 -0.8766  0.7302
   24MOL   C28914595   0.532   2.538   3.602  0.0052 -0.1968 -0.4452
   24MOL   C29014596   0.608   2.461   3.499  0.5314 -0.3228  0.1455
   24MOL   C29114597   0.626   2.851   4.143 -0.1242 -0.0717 -0.1516
   24MOL   H29214598   0.755   2.844   4.300  0.5183 -2.1354 -0.5903
   24MOL   H29314599   0.708   2.621   4.244 -0.6883 -2.0629 -2.8114
   24MOL   H29414600   0.873   2.633   4.305  0.6301 -2.9045 -1.1217
   24MOL   H29514601   0.892   2.425   4.220 -2.6881  0.2653  0.6866
   24MOL   H29614602   0.969   2.533   4.100 -0.6455  1.8558  1.0409
   24MOL   H29714603   0.842   2.360   3.992 -0.2582 -0.1732 -0.1165
   24MOL   H29814604   0.710   2.391   4.109  0.4602 -0.5355 -0.0002
   24MOL   H29914605   0.627   2.569   3.997  1.8576  2.0049  2.5433
   24MOL   H30014606   0.790   2.614   3.921  1.9406 -2.2812 -0.3734
   24MOL   H30114607   0.742   2.426   3.767 -1.5426 -2.3919 -0.2241
   24MOL   H30214608   0.580   2.416   3.860  0.5375 -0.8643  1.2725
   24MOL   H30314609   0.711   2.640   3.686 -1.3719  0.2641 -0.2588
   24MOL   H30414610   0.562   2.663   3.778  0.8871  0.3063  0.5929
   24MOL   H30514611   0.459   2.469   3.645 -0.9240 -0.3613 -2.2575
   24MOL   H30614612   0.476   2.622   3.560  1.3794  0.8819 -0.1962
   24MOL   H30714613   0.549   2.430   3.413  0.9232  0.6212 -0.4729
   24MOL   H30814614   0.650   2.372   3.547 -0.6033  0.2265  2.2044
   24MOL   H30914615   0.686   2.530   3.468  0.0765  0.3842  0.5678
   24MOL   H31014616   0.639   2.865   4.036  0.4017  1.7258  0.1309
   24MOL   H31114617   0.582   2.752   4.134 -2.3576  0.5824  2.6442
   24MOL   C31214618   0.522   2.944   4.202 -0.6272 -0.2816 -0.3874
   24MOL   O31314619   0.500   2.877   4.329  0.1059  0.2677  0.8461
   24MOL   C31414620   0.471   2.960   4.433  0.0583 -0.5056  0.3190
   24MOL   C31514621   0.473   2.904   4.575  0.2649 -0.6500  0.2316
   24MOL   C31614622   0.593   2.809   4.590 -0.3203 -0.1939  0.2104
   24MOL   C31714623   0.601   2.742   4.731 -0.1887  0.3009 -0.7069
   24MOL   C31814624   0.499   2.632   4.762  0.0093  0.3720 -0.7239
   24MOL   C31914625   0.531   2.564   4.897  0.2154 -0.0695 -0.6740
   24MOL   C32014626   0.636   2.452   4.890  0.0649  0.5037  0.9564
   24MOL   C32114627   0.685   2.402   5.028  0.1568  0.1913 -0.7587
   24MOL   C32214628   0.385   2.934   4.128  0.2114  0.3099  0.5226
   24MOL   H32314629   0.558   3.047   4.199 -0.2440 -0.3960  0.1687
   24MOL   H32414630   0.380   3.015   4.410  1.6142  1.2633 -1.8184
   24MOL   H32514631   0.540   3.043   4.422  3.6063 -3.1929  1.3422
   24MOL   H32614632   0.389   2.841   4.604  0.4928 -0.5374  1.1608
   24MOL   H32714633   0.471   2.982   4.651  1.8247 -0.6693  0.3154
   24MOL   H32814634   0.588   2.726   4.519 -1.8933  0.0137  0.0436
   24MOL   H32914635   0.684   2.863   4.565 -0.8696  1.3566  1.5216
   24MOL   H33014636   0.703   2.704   4.734  0.3587  1.6392 -1.6303
   24MOL   H33114637   0.613   2.820   4.805 -0.4806  0.3587 -0.7201
   24MOL   H33214638   0.401   2.677   4.774  0.4776  1.7810 -2.0892
   24MOL   H33314639   0.487   2.562   4.679  3.0469 -0.7047 -0.3341
   24MOL   H33414640   0.435   2.529   4.934  0.0366 -0.1353 -1.2017
   24MOL   H33514641   0.566   2.643   4.963 -0.3663  0.6247 -1.1955
   24MOL   H33614642   0.592   2.381   4.819 -1.8173  2.6307 -0.0836
   24MOL   H33714643   0.727   2.482   4.838  0.2525 -0.2814  0.8353
   24MOL   H33814644   0.606   2.345   5.076 -0.0731  2.2662  1.4228
   24MOL   H33914645   0.712   2.489   5.087 -0.1914 -0.9417  1.0925
   24MOL   H34014646   0.771   2.336   5.023  0.7071  0.8810 -0.5626
   24MOL   H34114647   0.313   3.002   4.173  1.1005  2.1147 -0.7443
   24MOL   H34214648   0.385   2.968   4.025 -1.0308  0.3791  0.5403
   24MOL   C34314649   0.313   2.801   4.119 -0.4010 -0.1804  0.4864
   24MOL   O34414650   0.226   2.806   4.005  0.0497 -0.4995 -0.2346
   24MOL   C34514651   0.273   2.759   3.885  0.3447  0.0233  0.8299
   24MOL   C34614652   0.176   2.804   3.774  0.2455  0.1214  0.7987
   24MOL   C34714653   0.188   2.708   3.648  0.4010 -0.4636 -0.6937
   24MOL   C34814654   0.159   2.561   3.683 -0.2407 -0.4762 -0.3877
   24MOL   C34914655   0.090   2.484   3.574  0.2794 -0.4354  0.1676
   24MOL   C35014656   0.073   2.333   3.603  0.0770 -0.6873  0.2361
   24MOL   C35114657   0.019   2.247   3.487 -0.4849 -0.3189 -0.0809
   24MOL   C35214658   0.131   2.228   3.385  0.3285  0.2937  1.1953
   24MOL   C35314659   0.220   2.776   4.242 -0.3646 -0.2467 -0.4007
   24MOL   H35414660   0.373   2.713   4.096 -0.0942 -0.2479  1.5358
   24MOL   H35514661   0.268   2.650   3.891 -0.2354  0.0499  0.8497
   24MOL   H35614662   0.372   2.803   3.873  0.6313 -0.9076 -0.2507
   24MOL   H35714663   0.213   2.901   3.738  0.2258 -0.4842 -0.9234
   24MOL   H35814664   0.072   2.813   3.803  0.0111  0.5404 -0.1627
   24MOL   H35914665   0.114   2.738   3.574  0.3073  0.9823 -0.0152
   24MOL   H36014666   0.284   2.725   3.598  1.1694 -0.6365  0.6863
   24MOL   H36114667   0.245   2.511   3.727 -2.4325 -0.9201  3.6793
   24MOL   H36214668   0.094   2.567   3.771  1.7877 -2.3351  1.2937
   24MOL   H36314669   7.765   2.527   3.558  0.7042  0.7988  0.7546
   24MOL   H36414670   0.148   2.496   3.483 -0.7234 -0.2557 -0.4573
   24MOL   H36514671   7.774   2.320   3.682  1.6589 -0.3318  1.7971
   24MOL   H36614672   0.167   2.287   3.633 -1.1757 -0.7942  4.2861
   24MOL   H36714673   7.761   2.146   3.509 -0.1807 -0.4882 -0.4055
   24MOL   H36814674   7.703   2.293   3.447  0.0972  1.7749  0.9086
   24MOL   H36914675   0.124   2.151   3.308  1.3068 -0.1581  1.5448
   24MOL   H37014676   0.224   2.207   3.438  0.9901  1.4235  0.5225
   24MOL   H37114677   0.153   2.323   3.335 -2.0724  0.9212  1.3022
   24MOL   H37214678   0.265   2.792   4.340 -1.4901 -0.5894  0.1732
   24MOL   H37314679   0.140   2.849   4.247 -0.7870 -0.7065 -0.3829
   24MOL   C37414680   0.167   2.625   4.240 -0.2733  0.7543  0.2282
   24MOL   O37514681   0.048   2.627   4.311 -0.4407  0.2440  0.0288
   24MOL   C37614682   7.706   2.610   4.224 -0.2906 -0.4399 -0.1872
   24MOL   C37714683   7.670   2.722   4.117 -0.5045  0.6750  0.5365
   24MOL   C37814684   7.585   2.657   4.001 -0.6795  0.3411 -0.2730
   24MOL   C37914685   7.541   2.752   3.886 -0.1363 -0.0439 -1.1607
   24MOL   C38014686   7.469   2.674   3.776 -0.4998  0.1142  0.1367
   24MOL   C38114687   7.422   2.757   3.653  0.2910  0.4687 -0.1308
   24MOL   C38214688   7.348   2.670   3.556  0.4295 -0.4228 -0.0015
   24MOL   C38314689   7.272   2.754   3.446 -0.4876  0.4971 -0.3970
   24MOL   C38414690   0.263   2.534   4.323  0.2140 -0.0120  0.0460
   24MOL   H38514691   0.158   2.581   4.141  1.6965  1.3741 -0.2533
   24MOL   H38614692   7.628   2.600   4.299 -1.3487  1.2821 -1.0224
   24MOL   H38714693   7.713   2.512   4.176  1.6140 -1.0804  1.3066
   24MOL   H38814694   7.758   2.762   4.067 -0.4365  0.0817  0.1774
   24MOL   H38914695   7.610   2.802   4.160  0.3751  0.3830  2.3773
   24MOL   H39014696   7.644   2.574   3.960  0.5976  1.3319 -0.4543
   24MOL   H39114697   7.487   2.625   4.039 -1.1316  2.9538  0.8517
   24MOL   H39214698   7.479   2.834   3.921  0.8274  0.0167  0.4431
   24MOL   H39314699   7.630   2.802   3.847  0.6100 -0.8423 -0.4856
   24MOL   H39414700   7.540   2.605   3.730 -1.7726 -0.2455 -1.3435
   24MOL   H39514701   7.386   2.617   3.818 -1.8685  0.2935 -2.2331
   24MOL   H39614702   7.505   2.801   3.598 -0.0099 -0.8140 -1.6485
   24MOL   H39714703   7.360   2.839   3.689  0.8551  1.2069 -0.8363
   24MOL   H39814704   7.413   2.590   3.521 -0.2674 -1.3396  0.8206
   24MOL   H39914705   7.271   2.615   3.610 -1.4897  0.3101 -1.9016
   24MOL   H40014706   7.336   2.816   3.382  2.1070  0.0514  1.6447
   24MOL   H40114707   7.211   2.827   3.498  1.0637  0.5708  1.3740
   24MOL   H40214708   7.204   2.686   3.396 -1.8513  0.8263  0.9905
   24MOL   H40314709   0.367   2.554   4.295  0.7679  1.1309  2.7420
   24MOL   H40414710   0.260   2.569   4.426  0.4692  1.9955 -0.6066
   24MOL   C40514711   0.230   2.382   4.309 -0.4853  0.1830 -0.2197
   24MOL   O40614712   0.299   2.303   4.400  0.1744  0.4373 -0.3964
   24MOL   C40714713   0.223   2.269   4.519  0.2001 -0.2534  0.4479
   24MOL   C40814714   0.305   2.223   4.637 -0.0206 -0.7325 -0.1328
   24MOL   C40914715   0.374   2.089   4.605 -0.9677  0.1517 -0.6723
   24MOL   C41014716   0.497   2.050   4.683 -0.1787 -0.0575 -0.1828
   24MOL   C41114717   0.542   1.909   4.677 -0.7214 -0.2789  0.0603
   24MOL   C41214718   0.655   1.878   4.771 -0.2618  0.3998 -0.2791
   24MOL   C41314719   0.684   1.725   4.782 -0.8371  0.6832 -0.2319
   24MOL   C41414720   0.704   1.653   4.649  0.3915 -0.0471 -0.0137
   24MOL   C41514721   0.263   2.335   4.166  0.0632  0.6260 -1.0343
   24MOL   H41614722   0.121   2.382   4.317 -0.5309  1.3258 -0.7512
   24MOL   H41714723   0.151   2.190   4.499  0.7314 -0.5159 -0.4810
   24MOL   H41814724   0.157   2.353   4.538 -1.0846 -1.1542 -0.0222
   24MOL   H41914725   0.239   2.204   4.722  0.9057  3.7374  1.7461
   24MOL   H42014726   0.364   2.310   4.667 -3.2692  1.7034 -0.4061
   24MOL   H42114727   0.298   2.011   4.613  0.4645 -1.1896  0.1676
   24MOL   H42214728   0.408   2.086   4.501 -0.7328 -0.2216 -0.5861
   24MOL   H42314729   0.579   2.115   4.653  0.5392 -1.2500 -0.8232
   24MOL   H42414730   0.484   2.085   4.786  1.9831  0.2422  0.0073
   24MOL   H42514731   0.465   1.834   4.692 -0.5907 -0.6794 -1.1715
   24MOL   H42614732   0.589   1.894   4.579 -1.3414  0.6202 -0.3745
   24MOL   H42714733   0.634   1.921   4.869  0.0512 -0.8503  0.3359
   24MOL   H42814734   0.740   1.932   4.729  0.6825 -1.0489 -0.2497
   24MOL   H42914735   0.769   1.716   4.850 -1.0732 -2.1399 -0.2765
   24MOL   H43014736   0.598   1.677   4.829 -0.7946 -0.0135 -0.8601
   24MOL   H43114737   0.782   1.701   4.590  2.8765 -2.0086  1.5576
   24MOL   H43214738   0.617   1.660   4.584 -1.2486  0.0815  2.1426
   24MOL   H43314739   0.730   1.548   4.663  1.7934  0.1083 -1.2716
   24MOL   H43414740   0.197   2.377   4.091 -0.0323  1.5212 -0.4597
   24MOL   H43514741   0.355   2.388   4.140 -0.0308  0.8124 -0.9915
   24MOL   C43614742   0.294   2.183   4.154  0.4610 -0.7648  0.2155
   24MOL   O43714743   0.352   2.157   4.031  0.0694 -0.0289  0.5132
   24MOL   C43814744   0.491   2.123   4.035 -0.0464 -0.3370  0.0376
   24MOL   C43914745   0.528   2.117   3.887  0.0353  0.0172  0.0186
   24MOL   C44014746   0.676   2.090   3.849 -0.1105  0.2715 -0.0390
   24MOL   C44114747   0.702   2.066   3.698 -0.2922 -0.1858  1.2426
   24MOL   C44214748   0.855   2.046   3.667 -0.2457  0.4616  0.1502
   24MOL   C44314749   0.948   2.158   3.705  0.4909 -0.5263  0.5910
   24MOL   C44414750   1.088   2.157   3.642  0.0940 -1.0700  0.1453
   24MOL   C44514751   1.175   2.040   3.659  0.3555 -0.7822  0.3395
   24MOL   C44614752   0.166   2.096   4.160 -0.0160 -0.3751  0.3170
   24MOL   H44714753   0.364   2.148   4.230  1.5052 -0.2562 -0.5054
   24MOL   H44814754   0.540   2.210   4.078 -3.1568  1.6817 -0.3236
   24MOL   H44914755   0.508   2.028   4.088  1.2900 -0.8183 -1.2219
   24MOL   H45014756   0.495   2.204   3.831  0.7472 -0.2329 -0.7872
   24MOL   H45114757   0.466   2.037   3.846  0.5494 -0.2903 -0.1676
   24MOL   H45214758   0.741   2.170   3.884 -1.0342 -0.0881  2.6394
   24MOL   H45314759   0.712   2.005   3.909 -3.3307 -1.6531 -0.7372
   24MOL   H45414760   0.636   1.985   3.664  0.6345 -0.8702  1.0605
   24MOL   H45514761   0.661   2.151   3.643 -0.0678  0.0006  1.3624
   24MOL   H45614762   0.883   1.950   3.709 -1.7004 -0.0050  0.0622
   24MOL   H45714763   0.866   2.035   3.559 -0.6400  0.9555  0.0548
   24MOL   H45814764   0.959   2.164   3.813  1.7067  3.5584  0.3471
   24MOL   H45914765   0.911   2.258   3.681  0.9457 -0.1289  1.5035
   24MOL   H46014766   1.089   2.167   3.533 -0.4886 -0.1276  0.2200
   24MOL   H46114767   1.139   2.247   3.678 -0.9579 -1.0166  1.4936
   24MOL   H46214768   1.282   2.059   3.657  0.7320 -2.8815 -0.8977
   24MOL   H46314769   1.158   1.951   3.598 -2.5883 -0.5322  0.6946
   24MOL   H46414770   1.170   2.015   3.765  1.0725 -0.4815  0.4449
   24MOL   H46514771   0.086   2.154   4.206 -0.2298  1.1968 -1.9339
   24MOL   H46614772   0.132   2.086   4.056  0.5025  3.0707 -0.2585
   24MOL   C46714773   0.178   1.960   4.230 -0.9146  0.2139 -0.0448
   24MOL   O46814774   0.293   1.889   4.194 -0.4284  0.3784  0.2543
   24MOL   C46914775   0.355   1.814   4.303 -0.0450  0.8374 -0.1596
   24MOL   C47014776   0.463   1.715   4.250 -0.3194 -0.4104 -0.5379
   24MOL   C47114777   0.598   1.791   4.216 -0.0186  0.1485  0.7708
   24MOL   C47214778   0.721   1.712   4.187 -0.5905 -0.5766 -0.5463
   24MOL   C47314779   0.828   1.801   4.128 -0.6553  0.2973  0.2752
   24MOL   C47414780   0.864   1.934   4.194 -0.4417  0.6505  0.4579
   24MOL   C47514781   1.006   1.974   4.158 -0.0544 -0.2855 -0.2992
   24MOL   C47614782   1.033   2.107   4.222 -0.0332 -0.6920  0.1854
   24MOL   C47714783   0.056   1.870   4.192 -0.5265 -0.3308  0.2308
   24MOL   H47814784   0.193   1.975   4.337 -3.2668 -0.0911  0.3495
   24MOL   H47914785   0.276   1.750   4.343 -1.8644  2.0906 -1.6706
   24MOL   H48014786   0.387   1.879   4.384  1.2805 -0.2884  0.2447
   24MOL   H48114787   0.418   1.671   4.161  0.2155  2.9217 -2.5378
   24MOL   H48214788   0.479   1.636   4.323 -3.5920 -1.6849 -1.1206
   24MOL   H48314789   0.577   1.841   4.121  1.4305  0.4252  0.5826
   24MOL   H48414790   0.614   1.859   4.300  0.8157 -0.3763  1.0422
   24MOL   H48514791   0.759   1.667   4.279 -2.4691 -0.1980  0.4384
   24MOL   H48614792   0.698   1.631   4.118  1.7215 -1.0579 -0.7796
   24MOL   H48714793   0.922   1.747   4.115 -0.8239  0.0508  0.0741
   24MOL   H48814794   0.794   1.827   4.028 -1.5288 -1.2870  0.1281
   24MOL   H48914795   0.840   1.939   4.300 -0.1738 -1.9847  0.6800
   24MOL   H49014796   0.791   1.999   4.145 -1.4906 -0.2510  0.7917
   24MOL   H49114797   1.084   1.903   4.183  0.2382  0.6623  1.5707
   24MOL   H49214798   1.014   1.986   4.050  0.8478  1.1342 -0.0842
   24MOL   H49314799   1.123   2.150   4.180  0.6515 -1.5923  0.7119
   24MOL   H49414800   1.056   2.087   4.327  2.7594 -0.6591 -0.3945
   24MOL   H49514801   0.955   2.180   4.202  0.3684 -0.0288  1.0470
   24MOL   H49614802   0.040   1.891   4.086 -0.2165  0.1978  0.2882
   24MOL   H49714803   0.086   1.766   4.207 -1.3049 -0.3728  1.5681
   24MOL   C49814804   7.714   1.914   4.285 -0.7893  0.2593  0.0696
   24MOL   O49914805   7.727   1.822   4.397  0.2250  0.6121 -0.3960
   24MOL   C50014806   7.733   1.884   4.520 -0.1438 -0.2630 -0.0707
   24MOL   C50114807   7.758   1.782   4.634 -0.3344 -0.1901  0.3775
   24MOL   C50214808   0.127   1.735   4.653  0.9652 -0.0587  0.9084
   24MOL   C50314809   0.136   1.648   4.775  0.5323 -0.1191 -1.0053
   24MOL   C50414810   0.281   1.620   4.824 -0.3184 -0.4861  0.6823
   24MOL   C50514811   0.279   1.550   4.959  0.0018 -0.4513  0.0343
   24MOL   C50614812   0.419   1.501   5.013  0.0393  0.0774  0.0453
   24MOL   C50714813   0.407   1.458   5.157  0.1337  0.0076  0.2915
   24MOL   C50814814   7.578   1.886   4.212 -0.1560 -0.5801 -0.4920
   24MOL   H50914815   7.719   2.021   4.310 -0.6023  0.2101  0.2475
   24MOL   H51014816   7.638   1.933   4.541 -0.8844 -0.2634 -3.2075
   24MOL   H51114817   0.037   1.960   4.523 -0.3204 -0.1285  1.4957
   24MOL   H51214818   7.691   1.700   4.609 -1.9314  0.7745  1.4353
   24MOL   H51314819   7.732   1.834   4.726  2.5043  0.0921  1.0830
   24MOL   H51414820   0.166   1.673   4.573 -0.4457 -0.8331  0.8078
   24MOL   H51514821   0.188   1.824   4.672  0.1732  0.1631  2.5032
   24MOL   H51614822   0.083   1.703   4.854  2.0183 -1.1946  0.7634
   24MOL   H51714823   0.083   1.553   4.770 -0.4616  0.3141  0.7389
   24MOL   H51814824   0.330   1.552   4.755 -0.5172  0.4394 -0.3785
   24MOL   H51914825   0.344   1.708   4.833  1.1410 -1.2550 -1.6309
   24MOL   H52014826   0.215   1.461   4.962 -0.5297 -0.0423  1.4370
   24MOL   H52114827   0.223   1.613   5.028  0.5348  0.8438 -0.7097
   24MOL   H52214828   0.445   1.423   4.943 -1.8691 -0.2109 -0.3578
   24MOL   H52314829   0.500   1.575   5.007  0.7003 -0.8295 -2.6804
   24MOL   H52414830   0.505   1.449   5.205  0.7438  0.0221 -0.9282
   24MOL   H52514831   0.361   1.360   5.169  1.3589 -0.6788 -0.5238
   24MOL   H52614832   0.365   1.534   5.224  1.2257 -0.2728  1.3168
   24MOL   H52714833   7.581   1.796   4.151 -2.0001 -2.0247  1.4560
   24MOL   H52814834   7.499   1.872   4.287 -0.7056 -0.6858 -1.0884
   24MOL   C52914835   7.540   1.998   4.120  0.7605 -0.3610 -0.4838
   24MOL   O53014836   7.513   2.101   4.212  0.1616  0.2311 -0.3545
   24MOL   C53114837   7.525   2.236   4.176  0.1868 -0.2837  0.3506
   24MOL   C53214838   7.434   2.314   4.278 -0.5504  0.1014 -0.0096
   24MOL   C53314839   7.289   2.278   4.268  0.0342 -0.2918 -0.1172
   24MOL   C53414840   7.207   2.296   4.400  0.8630  0.0932 -0.1440
   24MOL   C53514841   7.157   2.439   4.414  0.2921  0.1036 -0.8703
   24MOL   C53614842   7.076   2.490   4.540 -0.0988  0.5829 -0.1470
   24MOL   C53714843   6.946   2.423   4.557 -0.1139  0.1444 -0.1328
   24MOL   C53814844   6.952   2.292   4.627  0.0775 -0.4146 -0.3910
   24MOL   C53914845   7.422   1.962   4.040  0.2651  0.6065  0.7209
   24MOL   H54014846   7.630   2.027   4.066 -0.1441 -1.2578 -2.5507
   24MOL   H54114847   7.626   2.270   4.200  0.7171 -2.1191  0.7791
   24MOL   H54214848   7.518   2.252   4.068  0.0412  0.7076  0.5007
   24MOL   H54314849   7.445   2.420   4.255  3.1884 -0.3522 -0.6257
   24MOL   H54414850   7.469   2.307   4.381  2.0534 -0.7919 -0.9087
   24MOL   H54514851   7.246   2.338   4.188 -1.0207  2.4416  2.4182
   24MOL   H54614852   7.286   2.172   4.242  0.2062 -0.1410 -0.7619
   24MOL   H54714853   7.119   2.234   4.381  0.7990  0.2047 -0.2114
   24MOL   H54814854   7.254   2.257   4.490  0.0325 -2.2656 -0.7058
   24MOL   H54914855   7.243   2.505   4.411  2.4755 -2.6084 -0.1308
   24MOL   H55014856   7.095   2.467   4.329 -0.6230  0.6358 -0.0467
   24MOL   H55114857   7.053   2.596   4.524  1.0740  0.9485  0.6202
   24MOL   H55214858   7.137   2.478   4.629 -0.3228  0.0478 -0.0634
   24MOL   H55314859   6.876   2.492   4.604 -0.6850  1.3202 -2.6176
   24MOL   H55414860   6.898   2.416   4.459  1.2461  0.8234 -0.8498
   24MOL   H55514861   7.012   2.216   4.576  2.4073  0.9036  0.3227
   24MOL   H55614862   6.849   2.255   4.618  0.1294 -0.4428 -0.9242
   24MOL   H55714863   6.978   2.310   4.731  0.2869 -1.0956 -0.3269
   24MOL   H55814864   7.338   1.929   4.101 -1.9688  2.6113 -1.1951
   24MOL   H55914865   7.391   2.055   3.992 -2.3978 -1.5644 -1.9446
   24MOL   C56014866   7.448   1.853   3.928 -0.5467 -1.2096  0.3028
   24MOL   O56114867   7.566   1.893   3.856 -0.1160  0.0228  0.0426
   24MOL   C56214868   7.610   1.791   3.759 -0.2904 -0.5142  0.4850
   24MOL   C56314869   7.763   1.796   3.741 -0.4553 -0.5967 -0.1704
   24MOL   C56414870   0.031   1.928   3.672  0.1770 -0.4278 -0.4451
   24MOL   C56514871   0.181   1.952   3.656 -0.4091  0.1487  0.4503
   24MOL   C56614872   0.226   1.892   3.520  0.4262  1.2224  0.4401
   24MOL   C56714873   0.369   1.918   3.491 -0.1931 -0.9938  0.1397
   24MOL   C56814874   0.427   1.846   3.368  1.2115 -0.8110 -0.8456
   24MOL   C56914875   0.559   1.895   3.310  0.2087  0.5454  0.2732
   24MOL   C57014876   7.328   1.831   3.826  0.4763  0.0062 -0.2186
   24MOL   H57114877   7.475   1.757   3.973  1.1373 -0.1950  1.5120
   24MOL   H57214878   7.562   1.800   3.662  0.4884 -2.0470 -0.0528
   24MOL   H57314879   7.586   1.694   3.803  0.5695 -1.0878 -0.2997
   24MOL   H57414880   0.034   1.709   3.694 -0.0861  0.3819 -1.6754
   24MOL   H57514881   0.023   1.797   3.844  0.2690  0.5578 -0.4162
   24MOL   H57614882   7.741   1.946   3.585  0.0549  0.1551 -0.2395
   24MOL   H57714883   7.765   2.003   3.741 -1.9899 -1.1887 -0.8298
   24MOL   H57814884   0.202   2.059   3.653 -4.0690  0.9255 -0.7656
   24MOL   H57914885   0.242   1.921   3.740 -0.0694 -2.1344 -0.6053
   24MOL   H58014886   0.206   1.785   3.524  1.1793  1.0752  0.3089
   24MOL   H58114887   0.163   1.926   3.438 -1.5288 -0.5419  1.1647
   24MOL   H58214888   0.431   1.896   3.579  0.6827  1.5754  0.1929
   24MOL   H58314889   0.389   2.023   3.470  0.6669 -1.3200 -0.7265
   24MOL   H58414890   0.439   1.746   3.410 -0.6454 -0.7106 -0.0175
   24MOL   H58514891   0.364   1.856   3.280  0.9664  0.7017 -0.5227
   24MOL   H58614892   0.584   1.846   3.216 -3.9963 -1.3164  0.0478
   24MOL   H58714893   0.634   1.882   3.389 -2.3021 -2.8361  2.2577
   24MOL   H58814894   0.560   1.999   3.280  1.1875  0.7872  1.1040
   24MOL   H58914895   7.267   1.921   3.821  1.9123  1.0427  0.7317
   24MOL   H59014896   7.361   1.810   3.724  0.0407  0.1238 -0.3880
   24MOL   C59114897   7.238   1.720   3.871 -0.6433  0.4620 -0.7024
   24MOL   O59214898   7.315   1.594   3.872 -0.2689 -0.2612 -0.0130
   24MOL   C59314899   7.264   1.507   3.972 -0.1863  0.2856 -0.3262
   24MOL   C59414900   7.362   1.391   3.988  0.3965  0.3414  0.6191
   24MOL   C59514901   7.508   1.436   4.024  0.5999  0.1960 -0.8318
   24MOL   C59614902   7.529   1.467   4.169  0.0893  0.2149 -0.2635
   24MOL   C59714903   7.665   1.528   4.198  0.8497 -0.1276 -0.0904
   24MOL   C59814904   0.007   1.428   4.186 -1.0527 -0.1939 -0.5585
   24MOL   C59914905   0.146   1.485   4.237  0.2627  0.0297  0.3329
   24MOL   C60014906   0.263   1.377   4.202  0.0125  0.4876  0.2622
   24MOL   C60114907   7.098   1.697   3.795  0.6946 -0.2015  0.1749
   24MOL   H60214908   7.203   1.740   3.973  0.5162 -0.8995 -0.0100
   24MOL   H60314909   7.172   1.458   3.939  1.3614 -2.8874 -0.1150
   24MOL   H60414910   7.245   1.555   4.068  2.7705 -1.7225  1.3388
   24MOL   H60514911   7.368   1.336   3.894  2.5591  1.1338  0.2428
   24MOL   H60614912   7.333   1.326   4.070 -0.4001  0.8061  0.7113
   24MOL   H60714913   7.568   1.348   4.000 -2.4942 -2.5386  1.1085
   24MOL   H60814914   7.535   1.510   3.948 -0.3231  0.5647 -0.8115
   24MOL   H60914915   7.451   1.541   4.188  0.7977  0.8009  0.3870
   24MOL   H61014916   7.502   1.379   4.227  0.9068 -0.2979 -0.6595
   24MOL   H61114917   7.686   1.603   4.122  0.7429 -0.6624 -0.6492
   24MOL   H61214918   7.668   1.578   4.295  2.3373  0.8955 -0.6522
   24MOL   H61314919   0.022   1.421   4.078  2.3722  1.5549 -0.2843
   24MOL   H61414920   7.754   1.331   4.226 -0.2962 -0.5467 -0.8900
   24MOL   H61514921   0.180   1.578   4.193  1.3352 -1.4107 -1.9514
   24MOL   H61614922   0.143   1.500   4.345  4.3281  0.5118  0.4609
   24MOL   H61714923   0.365   1.406   4.226 -0.4892  0.4696  2.5734
   24MOL   H61814924   0.261   1.360   4.095 -1.8043 -0.8680  0.4953
   24MOL   H61914925   0.248   1.284   4.257  1.4282 -1.0132 -1.8156
   24MOL   H62014926   7.117   1.707   3.688  0.2083 -0.2346  0.0809
   24MOL   H62114927   7.040   1.607   3.813 -0.9957  0.5170 -1.4343
   24MOL   H62214928   7.034   1.783   3.816 -0.1285 -1.4091  2.8707
   25MOL     C114929   0.220   4.480   0.850 -0.4053 -0.3461  0.1631
   25MOL     O214930   0.213   4.347   0.885  0.3145  0.4482 -0.0217
   25MOL     C314931   0.339   4.290   0.930 -0.0883  0.0556 -0.4628
   25MOL     C414932   0.386   4.360   1.068  0.1644  0.3756  0.2890
   25MOL     C514933   0.478   4.269   1.142  0.0168 -0.0657 -0.1266
   25MOL     C614934   0.527   4.317   1.280 -0.3619 -0.0117 -0.5119
   25MOL     C714935   0.610   4.222   1.354 -0.3102  0.2752  0.3055
   25MOL     C814936   0.656   4.273   1.480  0.5184  1.1211 -0.0160
   25MOL     C914937   0.779   4.192   1.535 -0.4744 -0.0691  0.3460
   25MOL    C1014938   0.909   4.229   1.465  0.4946 -1.1136 -0.0600
   25MOL    C1114939   0.093   4.521   0.779  0.2879 -0.1964 -0.1462
   25MOL    H1214940   0.222   4.549   0.935 -1.4973 -0.7932  0.5541
   25MOL    H1314941   0.412   4.292   0.849  1.4767 -0.6537  0.8966
   25MOL    H1414942   0.313   4.185   0.936 -2.8098  0.7984  1.5046
   25MOL    H1514943   0.295   4.371   1.126 -0.4860 -0.0298 -0.6423
   25MOL    H1614944   0.428   4.458   1.044 -2.0862  1.9751  2.6273
   25MOL    H1714945   0.442   4.168   1.164 -0.5506  0.3005  0.6834
   25MOL    H1814946   0.559   4.252   1.072  1.0209  0.2373  0.9389
   25MOL    H1914947   0.581   4.412   1.273 -1.4472  0.7078  0.5912
   25MOL    H2014948   0.442   4.349   1.341 -0.8435 -0.6031 -0.8642
   25MOL    H2114949   0.549   4.135   1.379 -2.7943  1.8217 -0.1532
   25MOL    H2214950   0.689   4.196   1.284  1.2103  1.3313  1.6027
   25MOL    H2314951   0.579   4.253   1.554  1.2546 -0.5744  0.3202
   25MOL    H2414952   0.663   4.381   1.484  1.0644  1.0508  1.0670
   25MOL    H2514953   0.781   4.214   1.642  1.1348  1.1162  0.0868
   25MOL    H2614954   0.765   4.084   1.527 -0.2934  0.0402 -1.7718
   25MOL    H2714955   0.989   4.179   1.520  2.1274  1.3149 -0.1427
   25MOL    H2814956   0.934   4.335   1.472  0.0044 -1.0167  0.2417
   25MOL    H2914957   0.923   4.210   1.358  3.9477  0.8246 -0.0214
   25MOL    H3014958   0.009   4.496   0.843 -0.9375 -1.0267 -2.0520
   25MOL    H3114959   0.106   4.629   0.769 -1.4220 -0.2411 -3.2472
   25MOL    H3214960   0.303   4.509   0.785 -2.0103  2.4472 -0.7129
   25MOL    C3314961   0.059   4.456   0.644 -0.0181  0.4405  0.4150
   25MOL    O3414962   0.151   4.501   0.545 -0.0930 -0.5517  0.5194
   25MOL    C3514963   0.268   4.418   0.524 -0.7817  0.1474 -0.3903
   25MOL    C3614964   0.356   4.481   0.414 -0.3367 -0.0664  0.7943
   25MOL    C3714965   0.502   4.423   0.411  0.2273 -0.1485 -1.0373
   25MOL    C3814966   0.600   4.501   0.316  0.0386  0.7420 -0.0680
   25MOL    C3914967   0.560   4.536   0.171 -0.4269  0.4288  0.2490
   25MOL    C4014968   0.670   4.616   0.104  0.1741 -0.0811 -0.4338
   25MOL    C4114969   0.626   4.687   7.746  0.0406  0.1406  0.5000
   25MOL    C4214970   0.622   4.601   7.619 -0.4061  0.3311  0.1608
   25MOL    C4314971   7.693   4.506   0.599 -0.2562 -0.8197  0.0286
   25MOL    H4414972   0.077   4.349   0.656  0.7777  0.2166 -2.5538
   25MOL    H4514973   0.233   4.322   0.488  1.0056 -1.2613  1.4814
   25MOL    H4614974   0.335   4.391   0.606  0.0403  1.2945 -0.6715
   25MOL    H4714975   0.366   4.586   0.443  2.2282 -0.5381  1.8110
   25MOL    H4814976   0.303   4.479   0.319 -0.4841  0.8216  0.8514
   25MOL    H4914977   0.536   4.422   0.514  0.2132 -0.7260 -1.0399
   25MOL    H5014978   0.494   4.317   0.388 -1.3647 -0.4229  0.6754
   25MOL    H5114979   0.642   4.594   0.355  0.0320  0.8684 -0.3588
   25MOL    H5214980   0.690   4.440   0.322 -0.2944  0.4102  1.8113
   25MOL    H5314981   0.542   4.445   0.113 -0.9218  1.0045 -0.5032
   25MOL    H5414982   0.469   4.596   0.177 -1.5492 -1.4133  2.9798
   25MOL    H5514983   0.743   4.540   0.075 -1.2284 -1.6265  0.0209
   25MOL    H5614984   0.716   4.692   0.167 -1.2035 -1.3864  2.1965
   25MOL    H5714985   0.537   4.746   7.765  0.8195  1.5737 -0.2255
   25MOL    H5814986   0.704   4.761   7.728  0.6667 -0.1101  2.0615
   25MOL    H5914987   0.593   4.497   7.634 -0.3607  0.1129 -1.1472
   25MOL    H6014988   0.713   4.573   7.566  0.0220  1.1483  0.4577
   25MOL    H6114989   0.554   4.648   7.547  2.4355 -0.3377 -3.0869
   25MOL    H6214990   7.629   4.502   0.688  0.1716  1.1917  0.4433
   25MOL    H6314991   7.700   4.612   0.577 -2.4341 -0.4257  1.0566
   25MOL    C6414992   7.626   4.438   0.481 -0.1372 -0.0735 -0.1058
   25MOL    O6514993   7.548   4.532   0.409 -0.2269  0.1836  0.1610
   25MOL    C6614994   7.615   4.583   0.296  0.2655 -0.5952 -0.1337
   25MOL    C6714995   7.536   4.699   0.235  0.0851 -0.7930 -0.1400
   25MOL    C6814996   7.603   4.746   0.102  0.6593 -0.1088  0.0658
   25MOL    C6914997   7.525   4.854   0.022 -0.3012  0.4902  0.4167
   25MOL    C7014998   7.591   4.878   7.661 -0.0759 -0.2734  0.4772
   25MOL    C7114999   7.533   4.997   7.587  0.9132 -0.5415  0.4395
   25MOL    C7215000   7.623   5.050   7.469 -0.1835  0.1962 -0.4271
   25MOL    C7315001   7.646   4.957   7.353  1.0578  0.5354  0.3984
   25MOL    C7415002   7.535   4.319   0.532  0.5706 -0.0234 -0.2598
   25MOL    H7515003   7.703   4.390   0.419  1.7337 -0.0279  2.0992
   25MOL    H7615004   7.636   4.491   0.242  2.6523 -0.5074  0.5628
   25MOL    H7715005   7.718   4.608   0.322  0.4857 -2.8108  1.2812
   25MOL    H7815006   7.524   4.790   0.294  1.9834 -0.1785 -0.6760
   25MOL    H7915007   7.433   4.668   0.214 -0.1585  0.7017 -1.2284
   25MOL    H8015008   7.709   4.767   0.112  0.7221 -0.9755  1.2994
   25MOL    H8115009   7.609   4.650   0.051 -1.6758 -0.3627  0.1887
   25MOL    H8215010   7.418   4.833   0.015 -0.0414 -1.2043  1.2030
   25MOL    H8315011   7.548   4.940   0.085  1.9125 -1.6180  2.6177
   25MOL    H8415012   7.695   4.900   7.686  0.5902 -2.0874 -0.6608
   25MOL    H8515013   7.599   4.780   7.615  1.3901 -0.1591  0.4811
   25MOL    H8615014   7.528   5.082   7.654 -0.1979 -2.1965  2.5048
   25MOL    H8715015   7.435   4.966   7.551  2.0808 -1.7242 -1.8678
   25MOL    H8815016   7.569   5.138   7.435 -0.3826 -0.4199 -1.7241
   25MOL    H8915017   7.721   5.082   7.507  0.6662 -0.3317 -2.1498
   25MOL    H9015018   7.707   4.992   7.270  0.8718 -0.0569  0.0037
   25MOL    H9115019   7.549   4.923   7.318  0.8540 -1.0648  2.3942
   25MOL    H9215020   7.692   4.865   7.389 -0.0910 -1.2049 -2.3725
   25MOL    H9315021   7.477   4.367   0.611  0.9652  1.7356 -1.0188
   25MOL    H9415022   7.455   4.293   0.464  1.9883 -0.0036 -1.9758
   25MOL    C9515023   7.615   4.190   0.577  0.2016 -0.0174 -0.4982
   25MOL    O9615024   7.578   4.077   0.500 -0.4440  0.7435 -0.4208
   25MOL    C9715025   7.589   4.077   0.360  0.0758  0.2416  0.4893
   25MOL    C9815026   7.517   3.962   0.293  0.7573  0.4028  0.4299
   25MOL    C9915027   7.551   3.943   0.140 -0.4105  0.0388 -0.2248
   25MOL   C10015028   7.645   3.820   0.104 -0.4130  0.2960  0.3381
   25MOL   C10115029   7.689   3.803   7.735 -0.3874 -0.4666  0.0938
   25MOL   C10215030   0.045   3.882   7.703  0.1572  0.2642 -0.1565
   25MOL   C10315031   0.104   3.880   7.562 -0.7287 -0.0593 -0.4605
   25MOL   C10415032   0.009   3.938   7.457  0.4192 -0.2849 -0.2384
   25MOL   C10515033   7.586   4.160   0.726  0.2779 -0.0415 -0.2642
   25MOL   H10615034   7.720   4.211   0.561  0.0760  1.4989  0.6566
   25MOL   H10715035   7.697   4.079   0.342 -0.2818 -1.8172 -2.2943
   25MOL   H10815036   7.565   4.170   0.308 -1.0570 -0.4040 -0.1565
   25MOL   H10915037   7.411   3.987   0.295  0.4554 -0.7899 -0.4114
   25MOL   H11015038   7.536   3.865   0.340  0.1940  0.0124 -0.1372
   25MOL   H11115039   7.459   3.938   0.082 -1.8971 -1.2091  2.1925
   25MOL   H11215040   7.593   4.035   0.101 -0.6569  0.0702 -0.4189
   25MOL   H11315041   7.736   3.816   0.165  0.6734 -1.2687 -1.3229
   25MOL   H11415042   7.589   3.731   0.131 -0.6471 -0.3134 -2.0111
   25MOL   H11515043   7.709   3.696   7.726 -0.6168 -0.4590 -0.5461
   25MOL   H11615044   7.613   3.827   7.660  1.4178 -0.5076 -1.8201
   25MOL   H11715045   0.119   3.872   0.008  1.2971  0.1273 -1.2153
   25MOL   H11815046   0.010   3.985   7.712  2.0425  1.0082 -1.0519
   25MOL   H11915047   0.195   3.940   7.565 -0.7624 -0.0640  0.8206
   25MOL   H12015048   0.126   3.777   7.536  0.7696 -0.2771  1.5566
   25MOL   H12115049   7.763   4.045   7.464  0.6729 -0.1417 -1.5522
   25MOL   H12215050   7.691   3.882   7.468  0.8116 -0.5792  1.6592
   25MOL   H12315051   0.048   3.915   7.357  0.7732 -1.7882  0.2368
   25MOL   H12415052   7.609   4.245   0.790  0.0358 -0.0961 -0.1028
   25MOL   H12515053   7.478   4.149   0.730  0.3382 -0.9375 -0.8620
   25MOL   C12615054   7.654   4.037   0.780  0.1563  0.7722  0.2636
   25MOL   O12715055   7.594   4.007   0.908  0.7797  0.7446 -0.4185
   25MOL   C12815056   7.631   3.885   0.961  0.1383 -0.0434  0.1284
   25MOL   C12915057   7.522   3.841   1.064 -0.5698 -1.0067 -0.5906
   25MOL   C13015058   7.385   3.785   1.008  0.6465  0.5678  0.1374
   25MOL   C13115059   7.275   3.775   1.115 -0.3766  0.0595 -0.2839
   25MOL   C13215060   7.139   3.702   1.069  0.8311 -0.2837 -0.5489
   25MOL   C13315061   7.150   3.547   1.074  0.0390 -0.1401 -0.3677
   25MOL   C13415062   7.156   3.485   1.211  0.1325  0.5460  0.9814
   25MOL   C13515063   7.211   3.347   1.203 -0.1051  0.6622  0.5580
   25MOL   C13615064   0.034   4.044   0.788 -0.7777 -0.5128 -0.2140
   25MOL   H13715065   7.626   3.953   0.717 -1.4713  0.6832  1.0711
   25MOL   H13815066   7.726   3.886   1.016  0.7254 -0.1704 -0.8668
   25MOL   H13915067   7.635   3.809   0.884  1.2410 -0.6295  0.7443
   25MOL   H14015068   7.502   3.921   1.135  2.2327  0.4697 -1.4175
   25MOL   H14115069   7.571   3.769   1.129 -0.2603  0.7445  1.1530
   25MOL   H14215070   7.350   3.860   0.937 -3.6165 -1.6189 -0.2349
   25MOL   H14315071   7.413   3.697   0.950  3.1339  1.7733 -0.5715
   25MOL   H14415072   7.304   3.718   1.203  0.0803  0.5372 -0.1233
   25MOL   H14515073   7.257   3.878   1.148 -0.2488 -0.3795  1.1824
   25MOL   H14615074   7.048   3.732   1.122  0.0080 -2.2887 -0.7977
   25MOL   H14715075   7.114   3.737   0.969  1.0556  1.4153 -0.0398
   25MOL   H14815076   7.247   3.521   1.030  1.4779  1.1710  1.9029
   25MOL   H14915077   7.087   3.505   0.996  0.4752 -0.6413 -0.4496
   25MOL   H15015078   7.207   3.546   1.285  2.2662 -0.0200  0.0327
   25MOL   H15115079   7.057   3.480   1.255 -0.6263 -0.7468 -0.8154
   25MOL   H15215080   7.184   3.283   1.287 -1.9589 -0.6767 -1.0251
   25MOL   H15315081   7.319   3.353   1.198 -0.0816  0.7579  1.1059
   25MOL   H15415082   7.168   3.297   1.116 -0.1354  1.3680  0.1573
   25MOL   H15515083   0.079   4.142   0.801  0.6028 -1.2240  0.4943
   25MOL   H15615084   0.075   4.017   0.885  1.3703  2.4683 -0.2398
   25MOL   C15715085   0.113   3.980   0.675 -0.5122  0.7737  0.1668
   25MOL   O15815086   0.120   3.835   0.688 -0.4551 -0.0270  0.6703
   25MOL   C15915087   0.042   3.765   0.587 -0.3668 -0.1814 -0.0287
   25MOL   C16015088   0.080   3.613   0.583 -0.5507  0.1947 -0.2828
   25MOL   C16115089   7.740   3.521   0.536 -0.6249 -0.1317  0.5769
   25MOL   C16215090   7.718   3.509   0.385  0.0436  0.1215  0.2983
   25MOL   C16315091   0.063   3.472   0.294 -0.1579 -0.5370  0.2310
   25MOL   C16415092   0.106   3.325   0.326 -0.3404 -0.4903  0.5161
   25MOL   C16515093   0.227   3.272   0.250 -0.1998  0.7321 -0.2624
   25MOL   C16615094   0.262   3.121   0.257  0.3270 -0.6383  0.1944
   25MOL   C16715095   0.261   4.030   0.662  0.0144  1.0868 -0.1546
   25MOL   H16815096   0.060   4.004   0.583 -0.7525 -0.4985 -0.0357
   25MOL   H16915097   0.073   3.800   0.488 -0.7103 -0.0096 -0.0767
   25MOL   H17015098   7.710   3.780   0.606 -0.4376 -1.8213  0.9054
   25MOL   H17115099   0.097   3.573   0.683  0.7768  0.1059 -0.5416
   25MOL   H17215100   0.179   3.594   0.541 -0.1478 -0.0249  0.7514
   25MOL   H17315101   7.749   3.417   0.569 -2.5858 -0.3822  0.3930
   25MOL   H17415102   7.650   3.560   0.584  0.0406  1.9347  0.1768
   25MOL   H17515103   7.650   3.427   0.359  0.4041 -0.7907  2.1803
   25MOL   H17615104   7.673   3.603   0.351 -3.6381 -1.2441  1.0851
   25MOL   H17715105   0.050   3.484   0.187  0.1668  0.2303  0.2787
   25MOL   H17815106   0.140   3.544   0.319 -1.3022  0.6009  0.5307
   25MOL   H17915107   0.021   3.259   0.306  0.2178 -1.0511 -0.0145
   25MOL   H18015108   0.126   3.310   0.433 -1.5196 -2.1742  0.5219
   25MOL   H18115109   0.204   3.287   0.144 -1.1161 -0.0640 -0.1790
   25MOL   H18215110   0.316   3.328   0.278 -0.3857 -0.7347  3.5780
   25MOL   H18315111   0.265   3.082   0.358  2.2078 -0.9957  0.0202
   25MOL   H18415112   0.360   3.093   0.216  0.6962 -0.5851  1.0304
   25MOL   H18515113   0.188   3.057   0.210 -0.1688 -2.2428  3.0656
   25MOL   H18615114   0.255   4.136   0.690 -0.9690  0.5644  1.6853
   25MOL   H18715115   0.328   3.980   0.732 -0.9619 -0.5679 -0.3888
   25MOL   C18815116   0.327   4.007   0.526  0.0152 -1.3439  0.2328
   25MOL   O18915117   0.439   4.095   0.533 -0.1219  0.3937 -0.0148
   25MOL   C19015118   0.553   4.031   0.595  0.0103 -0.5419 -0.1917
   25MOL   C19115119   0.672   4.120   0.564 -0.3566 -0.0735  0.1952
   25MOL   C19215120   0.801   4.061   0.622  0.1998 -0.2669 -0.2628
   25MOL   C19315121   0.924   4.158   0.634 -0.5191  0.1397 -0.0099
   25MOL   C19415122   0.985   4.182   0.500 -0.7748 -0.2098  0.9839
   25MOL   C19515123   1.049   4.058   0.435  0.2699 -0.3412 -0.9108
   25MOL   C19615124   1.130   4.108   0.312 -0.0222  1.1420  0.0491
   25MOL   C19715125   1.161   3.985   0.219 -0.1815 -0.6271 -0.1423
   25MOL   C19815126   0.239   4.058   0.411 -0.5620 -0.2358 -0.7028
   25MOL   H19915127   0.349   3.901   0.510  0.2818 -0.9836 -1.8809
   25MOL   H20015128   0.537   4.028   0.703 -2.3554 -0.6074 -0.5240
   25MOL   H20115129   0.570   3.931   0.555 -0.3425 -0.6292 -0.1243
   25MOL   H20215130   0.662   4.216   0.615 -0.3176 -0.6231  1.2545
   25MOL   H20315131   0.672   4.147   0.459 -1.9637 -0.1685  0.1573
   25MOL   H20415132   0.795   4.015   0.720  0.8430 -1.7040 -0.8764
   25MOL   H20515133   0.818   3.975   0.557  0.3083 -1.3478  1.1926
   25MOL   H20615134   0.892   4.251   0.682  2.0080 -0.1691  2.4250
   25MOL   H20715135   0.997   4.118   0.704 -0.1174 -1.5297 -1.3672
   25MOL   H20815136   0.908   4.220   0.433  0.4422  1.4695  0.5183
   25MOL   H20915137   1.065   4.251   0.528 -0.6621 -0.8169  2.2166
   25MOL   H21015138   0.970   4.000   0.387 -0.2307 -2.1965  2.0209
   25MOL   H21115139   1.102   3.994   0.506 -0.8925 -1.4148 -0.9923
   25MOL   H21215140   1.067   4.173   0.251 -0.9641  0.3525  0.1780
   25MOL   H21315141   1.222   4.162   0.335 -0.9158  2.3288  0.8904
   25MOL   H21415142   1.068   3.951   0.175  0.3239 -0.7503 -1.1267
   25MOL   H21515143   1.216   3.906   0.271  0.7063  0.0214 -0.0867
   25MOL   H21615144   1.230   4.022   0.143 -0.0922 -0.4636  0.0175
   25MOL   H21715145   0.165   3.980   0.395  1.2386 -1.9455 -0.9002
   25MOL   H21815146   0.176   4.144   0.436  1.1874  1.0082 -0.5165
   25MOL   C21915147   0.316   4.069   0.272 -0.4665 -0.3915 -0.4289
   25MOL   O22015148   0.204   4.072   0.182 -0.0287  0.7185  0.4971
   25MOL   C22115149   0.143   4.195   0.161 -0.3507 -0.2816  0.4382
   25MOL   C22215150   0.197   4.254   0.031  0.4168  0.2476  0.1179
   25MOL   C22315151   0.126   4.390   0.011 -0.0223 -0.3146 -0.2747
   25MOL   C22415152   0.188   4.452   7.662  0.3869  0.0651  0.5684
   25MOL   C22515153   0.147   4.597   7.647 -0.0639  0.1085  0.8452
   25MOL   C22615154   0.204   4.663   7.520 -0.5930  0.9274 -0.5015
   25MOL   C22715155   0.184   4.818   7.512 -0.0422 -0.2781  0.6682
   25MOL   C22815156   0.301   4.903   7.570  0.5003  0.5106  0.0085
   25MOL   C22915157   0.400   3.939   0.243 -0.0337 -0.1795 -0.2094
   25MOL   H23015158   0.366   4.164   0.251  0.0724  0.1611  3.1014
   25MOL   H23115159   0.165   4.267   0.239 -4.6282 -0.5761  2.0914
   25MOL   H23215160   0.035   4.184   0.152 -0.2502  0.7884 -2.4543
   25MOL   H23315161   0.185   4.186   7.721 -0.1409 -0.4855  0.7815
   25MOL   H23415162   0.304   4.268   0.044  0.2692 -0.2502  2.0738
   25MOL   H23515163   0.021   4.369   7.764  0.1931 -1.9774  0.1942
   25MOL   H23615164   0.150   4.453   0.096  0.5947 -1.5017  0.4432
   25MOL   H23715165   0.296   4.453   7.676  0.1959  0.0311  2.1192
   25MOL   H23815166   0.157   4.389   7.579 -1.0359  0.9572  0.4087
   25MOL   H23915167   0.039   4.612   7.652 -0.0378  0.7069 -0.1735
   25MOL   H24015168   0.181   4.658   7.731 -1.1410  0.5372  0.9773
   25MOL   H24115169   0.172   4.610   7.431  2.7012 -0.5750 -0.8648
   25MOL   H24215170   0.307   4.633   7.506 -1.0398  0.7821 -3.9514
   25MOL   H24315171   0.180   4.848   7.407  1.4190 -1.0852  0.3723
   25MOL   H24415172   0.086   4.838   7.554 -0.5957 -3.0946  0.8181
   25MOL   H24515173   0.284   5.011   7.561  0.2608  0.4301 -0.4917
   25MOL   H24615174   0.400   4.885   7.528  0.2364  0.1039 -0.4378
   25MOL   H24715175   0.307   4.893   7.678  2.5124  0.9311 -0.0378
   25MOL   H24815176   0.479   3.925   0.317 -2.2704  0.8456  2.4379
   25MOL   H24915177   0.328   3.858   0.248  1.7167 -1.8454 -1.2395
   25MOL   C25015178   0.458   3.938   0.098 -0.6160 -0.2723 -0.5014
   25MOL   O25115179   0.497   3.802   0.073  0.0819 -0.6538 -0.6295
   25MOL   C25215180   0.395   3.734   7.770  0.4712 -0.3926 -0.3234
   25MOL   C25315181   0.426   3.588   7.766 -0.5685 -0.5568 -0.1613
   25MOL   C25415182   0.324   3.503   7.697  0.1403 -0.3981 -0.3288
   25MOL   C25515183   0.360   3.358   7.675 -0.4796  0.4707 -0.3172
   25MOL   C25615184   0.250   3.278   7.613  0.0446  1.0169  0.7386
   25MOL   C25715185   0.217   3.298   7.462  0.4067 -0.3242 -0.0066
   25MOL   C25815186   0.096   3.220   7.413  0.2569 -0.5801  0.0414
   25MOL   C25915187   0.096   3.214   7.261 -0.3781 -0.2746 -1.1929
   25MOL   C26015188   0.581   4.027   0.092 -0.5044 -0.1302  0.2987
   25MOL   H26115189   0.385   3.970   0.024 -0.2561  2.2490  0.1672
   25MOL   H26215190   0.375   3.769   7.669 -1.0727  1.3611  0.5690
   25MOL   H26315191   0.305   3.750   0.055  0.8712  0.4234  0.0762
   25MOL   H26415192   0.409   3.558   0.095 -1.6725 -0.6481 -0.3612
   25MOL   H26515193   0.527   3.565   7.732 -0.0950  2.5120 -0.9721
   25MOL   H26615194   0.227   3.504   7.748 -0.7389 -3.2341 -1.8490
   25MOL   H26715195   0.299   3.542   7.599  2.6003 -4.2267 -2.5831
   25MOL   H26815196   0.456   3.353   7.625 -0.4560  1.2015 -0.3491
   25MOL   H26915197   0.377   3.324   0.003  0.3980  0.7761 -0.3562
   25MOL   H27015198   0.273   3.172   7.623 -0.9541  0.3029 -3.6052
   25MOL   H27115199   0.157   3.280   7.670 -0.3991  1.1346  0.0098
   25MOL   H27215200   0.307   3.267   7.410 -0.2150 -2.3062  0.0715
   25MOL   H27315201   0.205   3.405   7.446 -1.6001 -0.7786 -1.7280
   25MOL   H27415202   0.104   3.118   7.452 -0.0821 -0.9117 -0.7402
   25MOL   H27515203   0.007   3.257   7.464 -0.9279 -1.2187 -1.5002
   25MOL   H27615204   0.140   3.302   7.213  3.3458 -0.3614  1.8738
   25MOL   H27715205   7.772   3.196   7.218 -2.2748  0.8659  2.4557
   25MOL   H27815206   0.169   3.138   7.233 -1.9207 -2.2714  0.1295
   25MOL   H27915207   0.557   4.128   0.127  0.8325  0.8400 -1.4685
   25MOL   H28015208   0.667   4.004   0.155  0.5217 -0.0901 -1.0669
   25MOL   C28115209   0.646   4.043   7.725  0.3575 -0.4794 -0.3597
   25MOL   O28215210   0.743   4.146   7.729  0.1997  0.5123 -0.3351
   25MOL   C28315211   0.878   4.116   7.752  0.1477  0.7742  0.8119
   25MOL   C28415212   0.958   4.242   0.011  0.0178 -0.4630 -0.2747
   25MOL   C28515213   0.973   4.330   7.662 -1.1008 -0.2773 -0.1535
   25MOL   C28615214   1.007   4.478   7.687 -0.4397  0.0438  0.0926
   25MOL   C28715215   1.023   4.576   7.568  0.5250 -0.4935 -0.2431
   25MOL   C28815216   1.167   4.575   7.508  0.0884 -1.0757  0.1141
   25MOL   C28915217   1.189   4.680   7.394  0.2072  0.1367  0.1849
   25MOL   C29015218   1.299   4.632   7.295  0.3088 -0.9312 -0.3579
   25MOL   C29115219   0.546   4.083   7.614  0.0534  0.2603  0.1790
   25MOL   H29215220   0.683   3.944   7.699  0.0838 -1.0762  1.5051
   25MOL   H29315221   0.914   4.064   7.663  0.0044 -0.0388  1.2273
   25MOL   H29415222   0.878   4.041   0.057  0.1792 -0.8933 -0.7304
   25MOL   H29515223   1.054   4.222   0.058 -0.2719  0.2673  0.6548
   25MOL   H29615224   0.899   4.300   0.083  0.5756  0.0612 -0.2410
   25MOL   H29715225   1.049   4.288   7.596 -1.7697 -0.8412 -0.5712
   25MOL   H29815226   0.874   4.322   7.617 -1.4407  1.2175  0.2921
   25MOL   H29915227   0.922   4.516   7.743  0.4212  2.5188 -0.2211
   25MOL   H30015228   1.098   4.482   7.746  0.1738 -2.4204 -0.6263
   25MOL   H30115229   0.954   4.543   7.490 -1.9717  4.1318 -0.1369
   25MOL   H30215230   1.006   4.679   7.600 -0.1119 -0.9813  1.0333
   25MOL   H30315231   1.187   4.471   7.481 -1.3801 -1.3686  0.0979
   25MOL   H30415232   1.232   4.582   7.595 -1.2474 -0.2410  1.0588
   25MOL   H30515233   1.094   4.698   7.343 -1.2636  0.5924  2.9582
   25MOL   H30615234   1.207   4.778   7.439 -0.3525  0.6097 -0.6172
   25MOL   H30715235   1.293   4.692   7.204 -1.3982  1.0633  1.0145
   25MOL   H30815236   1.274   4.530   7.267 -2.5897 -0.5635  0.7074
   25MOL   H30915237   1.397   4.632   7.343 -0.2724  2.7019  0.9778
   25MOL   H31015238   0.461   4.015   7.605 -0.1001  0.3229  1.1134
   25MOL   H31115239   0.491   4.174   7.638 -2.3914 -0.5975 -1.9030
   25MOL   C31215240   0.601   4.084   7.466  0.8879 -0.0707  0.3237
   25MOL   O31315241   0.524   4.155   7.375  0.1901  0.0165  0.7880
   25MOL   C31415242   0.539   4.300   7.385 -0.1090 -0.5719 -0.3546
   25MOL   C31515243   0.483   4.351   7.250 -0.3310 -0.0103 -0.2190
   25MOL   C31615244   0.478   4.502   7.242  0.7235  0.8995  0.2906
   25MOL   C31715245   0.443   4.548   7.098 -0.4560 -0.8789 -0.2590
   25MOL   C31815246   0.409   4.701   7.095  0.4655  0.1265  0.7521
   25MOL   C31915247   0.411   4.759   6.952  0.0905 -0.6512 -0.0118
   25MOL   C32015248   0.307   4.703   6.848  0.4672 -0.1226  0.1336
   25MOL   C32115249   0.162   4.746   6.869  0.5794  0.5077 -0.1775
   25MOL   C32215250   0.610   3.946   7.404 -0.2841 -0.3494  0.2307
   25MOL   H32315251   0.702   4.125   7.461  0.7155  0.2529 -0.7293
   25MOL   H32415252   0.645   4.326   7.393 -0.5455  1.1613 -0.2032
   25MOL   H32515253   0.497   4.347   7.473 -0.0839 -0.4957 -0.3835
   25MOL   H32615254   0.380   4.316   7.259  0.3088 -2.0800 -0.6877
   25MOL   H32715255   0.541   4.310   7.167 -0.8432 -0.2921 -0.4441
   25MOL   H32815256   0.402   4.542   7.309 -0.1122 -3.5028  2.1391
   25MOL   H32915257   0.577   4.545   7.259  0.2555  2.5118 -0.9110
   25MOL   H33015258   0.519   4.524   7.024 -0.1243 -3.6908  0.9340
   25MOL   H33115259   0.362   4.485   7.063  0.5295 -2.4529  0.2530
   25MOL   H33215260   0.320   4.737   7.146  0.2006  0.1714  0.2693
   25MOL   H33315261   0.489   4.741   7.158 -0.3455  0.1029  1.8084
   25MOL   H33415262   0.507   4.724   6.914 -0.6604 -2.5588 -0.2190
   25MOL   H33515263   0.408   4.868   6.949 -1.9853 -0.6566  1.2864
   25MOL   H33615264   0.333   4.746   6.751  1.2403 -1.9680 -0.5064
   25MOL   H33715265   0.312   4.595   6.841 -0.6559 -0.2691  1.3303
   25MOL   H33815266   0.110   4.697   6.786 -0.4034  1.0939  0.0768
   25MOL   H33915267   0.149   4.853   6.852  0.0409  0.3278 -0.9370
   25MOL   H34015268   0.118   4.715   6.964  0.7442 -0.0073 -0.2678
   25MOL   H34115269   0.542   3.870   7.443 -0.8611 -0.5715 -1.1858
   25MOL   H34215270   0.582   3.957   7.299 -1.4359 -0.5213  0.5140
   25MOL   C34315271   0.757   3.891   7.408 -0.4397 -0.4122 -0.1928
   25MOL   O34415272   0.839   3.980   7.326  0.2404 -1.1087 -0.0342
   25MOL   C34515273   0.976   3.966   7.325  0.5637 -0.2626 -0.3963
   25MOL   C34615274   1.028   4.083   7.240 -0.9056 -0.6329  0.0336
   25MOL   C34715275   1.003   4.223   7.300  0.3594 -0.0917  0.0586
   25MOL   C34815276   1.028   4.338   7.202  0.7454  0.0025 -0.0573
   25MOL   C34915277   0.911   4.382   7.107  0.3751  0.3375  0.4393
   25MOL   C35015278   0.933   4.516   7.046  0.0648 -0.3215  0.0855
   25MOL   C35115279   0.819   4.584   6.976  0.9361 -0.1402 -0.1417
   25MOL   C35215280   0.859   4.705   6.900  0.2461  0.6507 -0.6267
   25MOL   C35315281   0.765   3.745   7.347  0.0870  0.4643 -0.3878
   25MOL   H35415282   0.788   3.888   7.513 -1.7081 -2.3544  0.1565
   25MOL   H35515283   1.014   3.870   7.290  2.0288  0.0984  0.1879
   25MOL   H35615284   1.004   3.971   7.430 -1.9482  1.7692  0.2344
   25MOL   H35715285   0.976   4.072   7.145 -0.7758 -0.9010 -0.0074
   25MOL   H35815286   1.135   4.065   7.231 -0.2408  1.2107  3.4570
   25MOL   H35915287   0.897   4.240   7.319  0.3904  0.8659 -0.5653
   25MOL   H36015288   1.056   4.234   7.394 -1.1748 -3.2234  1.3482
   25MOL   H36115289   1.048   4.424   7.267  2.1856 -1.4673  1.5092
   25MOL   H36215290   1.125   4.336   7.152  0.2186  0.6000 -1.1270
   25MOL   H36315291   0.885   4.306   7.034  2.0931  1.1877 -1.0709
   25MOL   H36415292   0.821   4.391   7.168 -1.1611  0.9717 -1.8903
   25MOL   H36515293   1.016   4.507   6.976  0.6087 -1.6915  0.9004
   25MOL   H36615294   0.962   4.589   7.122 -1.4921 -0.8296  1.1994
   25MOL   H36715295   0.791   4.517   6.895  1.7068 -0.3294 -0.2525
   25MOL   H36815296   0.728   4.590   7.036  1.6589  0.4040  0.9182
   25MOL   H36915297   0.793   4.745   6.823  0.7875  1.5588 -0.6247
   25MOL   H37015298   0.950   4.682   6.845 -0.2561 -0.0933 -1.1685
   25MOL   H37115299   0.878   4.793   6.961  0.1809  1.0298 -1.1553
   25MOL   H37215300   0.758   3.752   7.238 -1.4553  1.3707 -0.2445
   25MOL   H37315301   0.865   3.715   7.379 -0.7319  0.5485  2.3563
   25MOL   C37415302   0.672   3.637   7.411 -0.1411  0.7484 -0.5326
   25MOL   O37515303   0.743   3.575   7.521  0.1767 -0.4672  0.0970
   25MOL   C37615304   0.790   3.661   7.627  0.1137 -0.3659  0.2766
   25MOL   C37715305   0.844   3.591   7.753  0.1977 -0.6888 -0.5312
   25MOL   C37815306   0.893   3.692   0.083 -0.6117 -0.4264  0.5704
   25MOL   C37915307   0.938   3.627   0.214 -0.7342 -0.4569 -0.5996
   25MOL   C38015308   0.826   3.554   0.303  0.2925  0.2047 -0.1287
   25MOL   C38115309   0.715   3.643   0.362 -1.0126 -0.1698 -0.1826
   25MOL   C38215310   0.608   3.570   0.439 -0.0505  0.1676  0.0475
   25MOL   C38315311   0.663   3.503   0.570  0.5344 -0.1043 -0.4660
   25MOL   C38415312   0.627   3.515   7.323  0.5269  0.2539 -0.5971
   25MOL   H38515313   0.586   3.673   7.467  0.1754 -1.7641  1.6610
   25MOL   H38615314   0.700   3.714   7.656  2.4444  3.1467  1.3847
   25MOL   H38715315   0.869   3.734   7.610 -0.1752  0.1671  1.2052
   25MOL   H38815316   0.923   3.527   7.714  0.2232 -0.6957 -0.4671
   25MOL   H38915317   0.780   3.515   0.024 -0.4990 -0.3539 -0.9535
   25MOL   H39015318   0.972   3.758   0.047  0.4066 -2.0379 -0.1727
   25MOL   H39115319   0.809   3.756   0.110  0.0997  1.7348 -2.0234
   25MOL   H39215320   1.021   3.558   0.203  0.0100  0.2574  0.4726
   25MOL   H39315321   0.988   3.698   0.279 -0.1701 -2.5377  1.3168
   25MOL   H39415322   0.775   3.476   0.246 -0.8286 -0.4957  1.7518
   25MOL   H39515323   0.884   3.498   0.376  0.8020 -0.7779 -1.2684
   25MOL   H39615324   0.663   3.695   0.281  0.3501  1.1528 -0.2155
   25MOL   H39715325   0.765   3.718   0.424 -0.1428 -0.0553 -1.0192
   25MOL   H39815326   0.518   3.627   0.461 -2.5912 -3.0604 -1.5875
   25MOL   H39915327   0.570   3.492   0.374  0.3113  1.4824 -1.7898
   25MOL   H40015328   0.733   3.421   0.552  1.4379  0.1788  1.6503
   25MOL   H40115329   0.578   3.460   0.624  1.5281 -2.7760 -0.9234
   25MOL   H40215330   0.707   3.579   0.633 -1.7364 -0.9017  2.1790
   25MOL   H40315331   0.709   3.457   7.281  0.1367 -1.8183  1.3828
   25MOL   H40415332   0.581   3.439   7.386 -0.4598 -0.9197 -2.7074
   25MOL   C40515333   0.536   3.544   7.204  0.1657  0.8680  0.1075
   25MOL   O40615334   0.445   3.646   7.238 -0.3639  0.1900  0.3749
   25MOL   C40715335   0.393   3.718   7.128  0.3513  0.3332  0.4553
   25MOL   C40815336   0.305   3.824   7.183  0.3510 -0.2624 -0.1664
   25MOL   C40915337   0.248   3.927   7.078 -0.5497 -0.7180 -0.4584
   25MOL   C41015338   0.354   4.035   7.049 -0.4204  0.2281  0.1297
   25MOL   C41115339   0.337   4.097   6.908  0.2539  0.0878  0.1904
   25MOL   C41215340   0.200   4.157   6.868  0.2010 -0.0606 -0.8162
   25MOL   C41315341   0.167   4.301   6.915  0.4330 -0.0936  0.2618
   25MOL   C41415342   0.049   4.351   6.830 -0.4890 -0.4752 -0.0882
   25MOL   C41515343   0.456   3.416   7.164 -0.6499 -0.0299 -0.4097
   25MOL   H41615344   0.593   3.579   7.118 -1.3171 -0.0008 -1.2622
   25MOL   H41715345   0.348   3.655   7.051  1.1936  0.7143 -0.3565
   25MOL   H41815346   0.480   3.769   7.087  0.4721 -0.4198 -0.2423
   25MOL   H41915347   0.360   3.887   7.253  0.2868  2.8222 -2.7878
   25MOL   H42015348   0.216   3.788   7.234 -0.3519  1.3012 -0.2652
   25MOL   H42115349   0.232   3.871   6.987  0.8592 -2.6263  0.4280
   25MOL   H42215350   0.151   3.966   7.105 -0.1986  0.5929 -1.0483
   25MOL   H42315351   0.343   4.112   7.125 -4.7047 -0.8460  0.6882
   25MOL   H42415352   0.457   3.999   7.061  0.0181  1.6582  0.7301
   25MOL   H42515353   0.405   4.180   6.890  0.1143 -0.1084 -1.2765
   25MOL   H42615354   0.361   4.021   6.834  1.5496  0.6669  0.0048
   25MOL   H42715355   0.124   4.092   6.910  0.4006  0.0928 -0.2019
   25MOL   H42815356   0.197   4.140   6.761 -2.9427  2.0540 -1.1401
   25MOL   H42915357   0.129   4.303   7.017  0.2184 -0.6083  0.1897
   25MOL   H43015358   0.253   4.367   6.901 -0.1657  1.0048  1.5551
   25MOL   H43115359   7.744   4.278   6.815  0.9075 -1.9828 -0.2854
   25MOL   H43215360   0.092   4.370   6.732  0.2582 -0.9669  0.1429
   25MOL   H43315361   0.010   4.443   6.873  3.2716  0.3876  1.6327
   25MOL   H43415362   0.394   3.384   7.248 -1.4782  1.3040 -0.4959
   25MOL   H43515363   0.394   3.450   7.081  0.9772 -0.2874 -1.7588
   25MOL   C43615364   0.538   3.302   7.102 -0.1364  0.0515 -0.0804
   25MOL   O43715365   0.637   3.352   7.008  0.3079  1.0658  0.0001
   25MOL   C43815366   0.769   3.315   7.014 -0.4399 -0.0258 -0.0212
   25MOL   C43915367   0.843   3.372   6.890  0.7084  0.2781 -0.7600
   25MOL   C44015368   0.826   3.523   6.865 -0.1378  0.1821  0.7264
   25MOL   C44115369   0.871   3.603   6.988  0.2117 -0.2831  0.3721
   25MOL   C44215370   0.914   3.750   6.961 -0.2574 -0.6725  0.4217
   25MOL   C44315371   0.789   3.830   6.918  0.0867  0.3193  0.0827
   25MOL   C44415372   0.816   3.974   6.889  0.5236 -0.6836  0.0456
   25MOL   C44515373   0.689   4.059   6.852  0.0944 -0.2480  0.0751
   25MOL   C44615374   0.466   3.193   7.026  0.1275 -0.1396 -0.4141
   25MOL   H44715375   0.577   3.252   7.190 -3.4648 -1.8628  0.3847
   25MOL   H44815376   0.820   3.352   7.103 -1.5922  0.2030  0.5648
   25MOL   H44915377   0.788   3.208   6.999 -1.4072  0.0584 -2.0085
   25MOL   H45015378   0.804   3.326   6.799  0.4763 -2.2236  0.5652
   25MOL   H45115379   0.947   3.339   6.889  0.1537 -1.5361 -0.9713
   25MOL   H45215380   0.883   3.549   6.775 -1.1715  0.3592  0.1203
   25MOL   H45315381   0.721   3.546   6.847 -0.0645  1.0074  1.3277
   25MOL   H45415382   0.799   3.590   7.069  2.0398 -1.2684  1.8737
   25MOL   H45515383   0.962   3.554   7.023  0.7699  0.3297 -0.1988
   25MOL   H45615384   0.952   3.803   7.048  1.4592 -0.2805 -0.5401
   25MOL   H45715385   0.988   3.743   6.880  0.4900 -0.8447  1.1151
   25MOL   H45815386   0.709   3.835   6.992  0.2392 -1.8338  0.4189
   25MOL   H45915387   0.747   3.779   6.832 -0.2143 -1.9135  1.5149
   25MOL   H46015388   0.888   4.030   6.948  0.7585 -1.6224  0.6703
   25MOL   H46115389   0.871   3.966   6.796  1.8471 -0.6597  0.8138
   25MOL   H46215390   0.599   4.006   6.884  0.3090 -1.1519 -0.7636
   25MOL   H46315391   0.680   4.059   6.743 -0.0297  1.4426  0.0684
   25MOL   H46415392   0.691   4.163   6.884  1.2426  0.0151 -0.8180
   25MOL   H46515393   0.366   3.183   7.069  0.4370  1.8216  0.8189
   25MOL   H46615394   0.453   3.217   6.920  0.9753 -0.9693 -0.7104
   25MOL   C46715395   0.528   3.050   7.026  0.1374 -0.2988 -0.8464
   25MOL   O46815396   0.514   3.007   6.894 -0.1002  0.5488 -0.7124
   25MOL   C46915397   0.628   2.949   6.838 -0.1982  0.2618  0.6104
   25MOL   C47015398   0.587   2.915   6.692  0.1646 -0.0447  0.2764
   25MOL   C47115399   0.493   2.793   6.685  0.0210  0.2984  0.1156
   25MOL   C47215400   0.413   2.781   6.558  0.3277  0.1013 -0.8353
   25MOL   C47315401   0.338   2.644   6.556 -0.1915 -0.9895  0.2337
   25MOL   C47415402   0.273   2.616   6.415  0.0431 -0.4174 -0.5174
   25MOL   C47515403   0.157   2.515   6.415 -0.2151 -0.0282 -0.3480
   25MOL   C47615404   0.040   2.556   6.506  0.0264  0.0838 -0.8007
   25MOL   C47715405   0.458   2.948   7.110 -0.4374  0.0165 -0.1743
   25MOL   H47815406   0.634   3.051   7.054  0.3007  0.8043 -1.4872
   25MOL   H47915407   0.657   2.852   6.877  1.7460  0.4538 -0.2748
   25MOL   H48015408   0.710   3.021   6.843 -0.7348  0.9459 -0.2185
   25MOL   H48115409   0.684   2.900   6.646  0.3916  1.5355  0.2043
   25MOL   H48215410   0.544   3.004   6.646  1.6052  1.0047  0.9349
   25MOL   H48315411   0.555   2.704   6.695  0.2204  0.2720 -1.1866
   25MOL   H48415412   0.423   2.788   6.768 -0.6597  2.6209 -0.2975
   25MOL   H48515413   0.339   2.861   6.549  2.2616  2.2218  1.4153
   25MOL   H48615414   0.469   2.798   6.466 -1.1433 -1.7533 -2.1214
   25MOL   H48715415   0.402   2.562   6.588  0.1382 -1.1080 -0.7146
   25MOL   H48815416   0.262   2.650   6.634  3.0645  0.2703  3.4360
   25MOL   H48915417   0.347   2.584   6.343  1.7364 -0.7268  1.3240
   25MOL   H49015418   0.229   2.708   6.375 -0.1470 -0.0062  0.6131
   25MOL   H49115419   0.116   2.529   6.315 -0.4299  0.0782 -0.2461
   25MOL   H49215420   0.194   2.414   6.431 -4.1265 -1.7830 -1.9032
   25MOL   H49315421   0.068   2.545   6.610  0.6524 -3.5537 -1.2794
   25MOL   H49415422   7.732   2.485   6.497  0.0782 -0.0146 -0.4925
   25MOL   H49515423   7.772   2.655   6.488 -1.6030 -0.0517  1.9558
   25MOL   H49615424   0.359   2.931   7.068 -0.9828 -0.6175  1.3290
   25MOL   H49715425   0.512   2.857   7.088  2.7352  1.6994  0.3278
   25MOL   C49815426   0.439   2.966   7.262  0.2715  0.2685  0.0109
   25MOL   O49915427   0.569   2.968   7.327  0.8151 -0.5203  0.2156
   25MOL   C50015428   0.576   3.064   7.439 -0.1332  0.3385 -0.2483
   25MOL   C50115429   0.718   3.069   7.487  0.0773  0.5081 -0.3114
   25MOL   C50215430   0.812   3.164   7.412  0.1550 -0.0824 -0.2273
   25MOL   C50315431   0.956   3.146   7.457 -0.5646 -0.4934 -0.2032
   25MOL   C50415432   1.047   3.249   7.397  0.1509  0.1268 -0.5771
   25MOL   C50515433   1.025   3.394   7.457 -0.4302  0.0510 -0.1372
   25MOL   C50615434   1.099   3.500   7.369  0.7106 -0.3172 -0.3604
   25MOL   C50715435   1.249   3.498   7.368 -0.4019 -0.1490  0.1451
   25MOL   C50815436   0.335   2.876   7.329 -0.4551  0.1798  0.0151
   25MOL   H50915437   0.409   3.071   7.268  1.3225  0.5148  1.3005
   25MOL   H51015438   0.497   3.025   7.503  0.5719  0.4861  0.7243
   25MOL   H51115439   0.527   3.159   7.414 -1.4075 -0.1603  0.2825
   25MOL   H51215440   0.757   2.968   7.483 -0.3455  0.3626 -0.8774
   25MOL   H51315441   0.732   3.099   7.591  0.3979 -0.7678  0.0185
   25MOL   H51415442   0.817   3.136   7.307  0.7320  2.1049 -0.7955
   25MOL   H51515443   0.773   3.265   7.408  1.4969  0.3575 -2.9340
   25MOL   H51615444   0.966   3.159   7.565 -1.7690 -0.5753 -0.0724
   25MOL   H51715445   0.984   3.042   7.438 -0.2751 -0.4227 -0.1715
   25MOL   H51815446   1.148   3.213   7.414  0.1769  0.7628  0.6681
   25MOL   H51915447   1.040   3.250   7.288  1.3375 -0.1608 -0.6566
   25MOL   H52015448   1.054   3.403   7.562 -0.1259  0.0211 -0.2169
   25MOL   H52115449   0.923   3.429   7.443 -0.9444 -1.4758 -0.2907
   25MOL   H52215450   1.073   3.490   7.264  0.4060  2.0076 -0.5186
   25MOL   H52315451   1.072   3.596   7.413  0.1820 -0.4350 -0.4187
   25MOL   H52415452   1.294   3.537   7.459 -0.7420 -0.5417  0.4803
   25MOL   H52515453   1.279   3.575   7.296 -0.2607 -0.7795 -0.4796
   25MOL   H52615454   1.294   3.403   7.336  0.4741  0.4778 -0.5310
   25MOL   H52715455   0.292   2.937   7.409  0.9823 -0.3227  1.1869
   25MOL   H52815456   0.251   2.858   7.263  0.1151 -1.4383 -0.2788
   25MOL   C52915457   0.400   2.736   7.374  0.4934 -0.8441 -0.3939
   25MOL   O53015458   0.440   2.669   7.255  0.3103  1.0309  0.4072
   25MOL   C53115459   0.566   2.601   7.268 -1.3036 -0.9848 -0.3141
   25MOL   C53215460   0.617   2.554   7.124  0.2686 -0.2866 -1.1392
   25MOL   C53315461   0.521   2.453   7.046 -0.5572  0.3436 -0.3920
   25MOL   C53415462   0.561   2.434   6.897  0.5474 -0.3020 -0.1187
   25MOL   C53515463   0.699   2.367   6.872 -0.3806  0.5898 -0.1723
   25MOL   C53615464   0.726   2.343   6.722 -1.0957  0.3231  0.7013
   25MOL   C53715465   0.878   2.320   6.687  0.1033  0.0108 -0.9069
   25MOL   C53815466   0.914   2.300   6.535  0.1595  0.3214 -0.1178
   25MOL   C53915467   0.294   2.648   7.446 -0.3372  0.1962  0.0326
   25MOL   H54015468   0.487   2.753   7.437  0.2610 -2.6052  0.4228
   25MOL   H54115469   0.634   2.678   7.307 -2.5470 -1.1528  2.2542
   25MOL   H54215470   0.568   2.509   7.326 -1.7076 -1.7813 -1.5476
   25MOL   H54315471   0.717   2.511   7.131  0.4531  0.2223 -0.5932
   25MOL   H54415472   0.631   2.640   7.059  2.0081 -0.6505 -1.2694
   25MOL   H54515473   0.523   2.355   7.094  2.9630  0.2122 -0.7022
   25MOL   H54615474   0.424   2.502   7.048  0.3869  2.2583 -0.3847
   25MOL   H54715475   0.491   2.368   6.847  0.0339  0.7946 -0.8610
   25MOL   H54815476   0.560   2.526   6.840 -1.8541 -0.2404  0.0052
   25MOL   H54915477   0.779   2.437   6.892  0.3459 -0.2740 -0.0209
   25MOL   H55015478   0.710   2.280   6.936 -1.6790 -0.2364 -1.0364
   25MOL   H55115479   0.685   2.426   6.664 -0.9213  0.4984  0.8286
   25MOL   H55215480   0.678   2.251   6.688 -0.1824  0.9974 -2.6591
   25MOL   H55315481   0.933   2.408   6.719 -1.1998  0.9950 -1.3298
   25MOL   H55415482   0.917   2.235   6.743  1.2971  0.7119 -0.6594
   25MOL   H55515483   0.863   2.214   6.491  0.2109 -0.5365  1.4509
   25MOL   H55615484   1.022   2.301   6.525  0.1396  2.1044 -0.2458
   25MOL   H55715485   0.879   2.387   6.481  2.2624 -0.1068 -2.2438
   25MOL   H55815486   0.210   2.698   7.496 -0.9982 -0.8324 -0.0457
   25MOL   H55915487   0.230   2.603   7.370  1.1256  0.0845 -1.1367
   25MOL   C56015488   0.353   2.542   7.543 -0.1011 -0.6157 -0.1830
   25MOL   O56115489   0.280   2.423   7.537  0.6308  0.2948  0.3528
   25MOL   C56215490   0.357   2.307   7.500  0.4483 -0.6291 -0.5139
   25MOL   C56315491   0.259   2.204   7.455  0.2342 -0.1394 -0.2648
   25MOL   C56415492   0.155   2.173   7.558  0.3886  0.1087 -0.3716
   25MOL   C56515493   0.197   2.058   7.649 -0.1804 -0.2276 -0.1129
   25MOL   C56615494   0.079   2.030   7.741 -0.4557 -0.0630  0.9920
   25MOL   C56715495   0.078   1.885   0.016 -0.0530 -0.7562 -0.1481
   25MOL   C56815496   7.742   1.856   0.125 -0.1150 -0.0894 -0.2477
   25MOL   C56915497   7.593   1.870   0.097  0.6118  0.2408  0.4957
   25MOL   C57015498   0.344   2.590   7.690  0.6284  0.0963 -0.1249
   25MOL   H57115499   0.458   2.518   7.524 -0.0155  0.7292 -1.5131
   25MOL   H57215500   0.411   2.262   7.584 -1.3181 -0.1071  0.9236
   25MOL   H57315501   0.422   2.331   7.415  0.7212 -2.1399 -0.7395
   25MOL   H57415502   0.305   2.111   7.420  0.0113 -1.0054  1.6999
   25MOL   H57515503   0.202   2.241   7.369 -0.3470 -1.1801 -0.3435
   25MOL   H57615504   0.127   2.254   7.626  1.2985  0.7064 -0.7032
   25MOL   H57715505   0.062   2.143   7.510  1.8155  0.7056 -3.6363
   25MOL   H57815506   0.229   1.972   7.590 -0.9524 -0.8721  0.4091
   25MOL   H57915507   0.283   2.091   7.708  0.6245 -1.1737 -0.7495
   25MOL   H58015508   0.109   2.098   0.047 -1.6672  0.1441  1.2759
   25MOL   H58115509   7.756   2.052   7.697  0.2744 -0.2296 -0.7513
   25MOL   H58215510   0.174   1.872   0.067 -0.5367  0.7996  1.2076
   25MOL   H58315511   0.078   1.810   7.711 -1.4637  0.6200 -1.4710
   25MOL   H58415512   7.753   1.751   0.155  0.6038  0.4312  1.3598
   25MOL   H58515513   7.759   1.915   0.215 -0.2539 -2.5131  1.4301
   25MOL   H58615514   7.539   1.857   0.191  0.7956  1.9324  0.8675
   25MOL   H58715515   7.539   1.831   0.011 -3.4356  1.9347  2.0946
   25MOL   H58815516   7.571   1.977   0.090 -2.1354 -0.2996  0.3941
   25MOL   H58915517   0.239   2.611   7.713 -0.0529 -2.1605 -1.0369
   25MOL   H59015518   0.371   2.513   7.762  0.6026  1.0588  0.9247
   25MOL   C59115519   0.439   2.702   7.726 -0.2210  0.4646 -0.0819
   25MOL   O59215520   0.564   2.643   7.710 -0.4976  0.1372 -0.2232
   25MOL   C59315521   0.664   2.740   7.675  0.1760  0.3539  0.3092
   25MOL   C59415522   0.796   2.670   7.673  0.5335  0.0249 -0.0517
   25MOL   C59515523   0.804   2.578   7.556  1.0022  0.5593 -0.0106
   25MOL   C59615524   0.934   2.494   7.557  0.2921  0.4076 -0.4953
   25MOL   C59715525   1.067   2.573   7.564 -0.0492  0.4932 -0.0567
   25MOL   C59815526   1.093   2.688   7.466  0.5605 -0.2318  0.5467
   25MOL   C59915527   1.217   2.779   7.500 -0.2743 -0.3435  0.3280
   25MOL   C60015528   1.198   2.884   7.610  0.7271 -0.3781 -0.6581
   25MOL   C60115529   0.426   2.769   0.096  0.0561  0.3961  0.5114
   25MOL   H60215530   0.435   2.784   7.654 -3.1645 -0.7635 -1.4081
   25MOL   H60315531   0.663   2.828   7.740 -0.0285  0.8892 -0.4048
   25MOL   H60415532   0.644   2.781   7.576 -0.4334 -0.2796  0.1673
   25MOL   H60515533   0.813   2.612   7.763  0.5349  1.9922  1.2526
   25MOL   H60615534   0.875   2.744   7.658  0.7107 -0.5384 -2.0858
   25MOL   H60715535   0.716   2.514   7.550  0.2060  1.5075  1.3970
   25MOL   H60815536   0.798   2.643   7.469 -1.1224 -0.0322 -0.3375
   25MOL   H60915537   0.931   2.406   7.622  1.9027  0.5102 -0.2541
   25MOL   H61015538   0.941   2.445   7.460 -0.6354 -1.8329  0.5396
   25MOL   H61115539   1.065   2.616   7.664  0.0318 -1.6168  0.8897
   25MOL   H61215540   1.149   2.502   7.575  1.0940  1.7702 -0.2368
   25MOL   H61315541   1.003   2.748   7.457  0.0034 -1.1052  0.2746
   25MOL   H61415542   1.105   2.640   7.369 -0.4583  0.0008  0.2966
   25MOL   H61515543   1.305   2.721   7.529  0.5996  1.1126  0.6161
   25MOL   H61615544   1.245   2.829   7.407 -0.2482  1.1241  1.1218
   25MOL   H61715545   1.171   2.835   7.703  3.4165  0.0737  0.4020
   25MOL   H61815546   1.120   2.960   7.601 -0.3509 -1.0599  2.2203
   25MOL   H61915547   1.299   2.923   7.623  0.0611  0.6063  1.9932
   25MOL   H62015548   0.440   2.706   0.184 -1.7771  3.8179  3.3338
   25MOL   H62115549   0.510   2.834   0.119 -0.4964  1.0351  0.7361
   25MOL   H62215550   0.332   2.815   0.124  0.8645  0.8792  2.4766
   26MOL     C115551   7.648   4.923   2.685  0.5344  0.4694 -1.1479
   26MOL     O215552   7.534   4.986   2.635 -0.2528 -0.1865  0.2692
   26MOL     C315553   7.549   5.071   2.528 -0.1670 -0.0011 -0.5371
   26MOL     C415554   7.610   5.210   2.569  0.3395  0.5823 -0.1622
   26MOL     C515555   7.640   5.313   2.460 -1.1792 -0.1308 -0.8065
   26MOL     C615556   7.722   5.428   2.509  0.6641 -0.1604 -0.5747
   26MOL     C715557   7.651   5.508   2.617  0.0373 -1.0667 -0.3270
   26MOL     C815558   7.718   5.644   2.654 -0.0959 -0.6197 -0.1580
   26MOL     C915559   7.652   5.704   2.781 -0.0349 -0.1310  0.4135
   26MOL    C1015560   7.685   5.853   2.811 -0.2686 -0.7710  0.5842
   26MOL    C1115561   7.612   4.860   2.828 -0.1062  1.0988  0.5530
   26MOL    H1215562   7.669   4.828   2.635 -0.6848 -1.0617  1.1490
   26MOL    H1315563   7.443   5.085   2.507 -0.0725 -0.1582 -1.1014
   26MOL    H1415564   7.610   5.029   2.448  2.6251 -0.0231  1.4986
   26MOL    H1515565   7.694   5.188   2.635  1.9173 -0.3350 -2.3798
   26MOL    H1615566   7.533   5.261   2.626 -1.2210  0.6230 -2.2607
   26MOL    H1715567   7.689   5.274   2.371 -1.6554 -0.5125 -0.8984
   26MOL    H1815568   7.542   5.340   2.420 -2.3057 -5.1582 -1.7676
   26MOL    H1915569   0.041   5.393   2.553 -0.0434 -1.3791 -0.0551
   26MOL    H2015570   7.736   5.497   2.425 -1.4861 -0.3936 -1.1607
   26MOL    H2115571   7.550   5.526   2.580  0.0149 -2.4170 -0.9469
   26MOL    H2215572   7.634   5.441   2.701 -0.3065 -1.8951 -1.0488
   26MOL    H2315573   7.698   5.707   2.567  1.5286 -0.6239 -0.5626
   26MOL    H2415574   0.049   5.642   2.684  0.0669  2.2555 -0.3215
   26MOL    H2515575   7.544   5.699   2.768  0.1989  0.9237 -2.3322
   26MOL    H2615576   7.673   5.647   2.872  0.9633  0.0718  0.3162
   26MOL    H2715577   0.014   5.867   2.843 -0.0437 -0.3784 -0.2870
   26MOL    H2815578   7.621   5.882   2.894 -0.0449 -2.5748  1.4211
   26MOL    H2915579   7.667   5.915   2.723 -0.5894 -1.7944 -0.0790
   26MOL    H3015580   7.552   4.923   2.895 -1.2789  1.4530 -0.7967
   26MOL    H3115581   7.549   4.772   2.811  0.3732  0.4635  2.0411
   26MOL    H3215582   7.735   4.988   2.686 -0.1283  1.3578 -0.0742
   26MOL    C3315583   7.743   4.833   2.904 -0.2148 -0.0999  0.6903
   26MOL    O3415584   0.068   4.759   2.833 -0.0987 -0.3192  0.4287
   26MOL    C3515585   0.198   4.781   2.883  0.3884  0.0224 -0.5473
   26MOL    C3615586   0.289   4.760   2.761  0.5664 -0.0268  0.6285
   26MOL    C3715587   0.420   4.840   2.795 -0.5834  0.0868  0.4612
   26MOL    C3815588   0.539   4.836   2.698  0.1957 -0.1926  0.0196
   26MOL    C3915589   0.656   4.916   2.749 -0.2874  0.0723 -0.1542
   26MOL    C4015590   0.799   4.886   2.699 -0.1569  0.1740  0.0452
   26MOL    C4115591   0.899   4.971   2.765  0.7305 -0.2439  0.4293
   26MOL    C4215592   0.910   5.115   2.701  0.4056 -0.5484 -0.0388
   26MOL    C4315593   7.710   4.766   3.042  0.5767  0.3117  0.3417
   26MOL    H4415594   0.007   4.934   2.918 -1.3038  0.1410  1.9441
   26MOL    H4515595   0.221   4.708   2.961 -0.1176 -1.8849 -2.1323
   26MOL    H4615596   0.210   4.883   2.918 -1.8984  1.2847 -3.2141
   26MOL    H4715597   0.249   4.811   2.673  0.3892  0.6712  1.1087
   26MOL    H4815598   0.309   4.655   2.743  1.5033  0.2094  0.2602
   26MOL    H4915599   0.394   4.945   2.808  2.0717  0.8195  0.1503
   26MOL    H5015600   0.455   4.792   2.886 -0.5984  0.0467  0.4455
   26MOL    H5115601   0.568   4.731   2.706  0.0252 -0.1263  1.7003
   26MOL    H5215602   0.505   4.861   2.597 -0.1648  0.8951  0.4053
   26MOL    H5315603   0.644   5.023   2.737  1.6020  0.3113 -0.0489
   26MOL    H5415604   0.660   4.907   2.858 -0.8233  0.1533 -0.1258
   26MOL    H5515605   0.803   4.883   2.590 -0.9942 -0.5409  0.0269
   26MOL    H5615606   0.820   4.783   2.728  1.6229  0.7625  0.9234
   26MOL    H5715607   0.871   4.980   2.870 -1.4533 -1.9479  0.0508
   26MOL    H5815608   0.993   4.916   2.757 -0.4355 -1.8547 -2.9204
   26MOL    H5915609   0.942   5.108   2.597 -1.2062 -0.3339 -0.5591
   26MOL    H6015610   0.993   5.156   2.758  0.2164 -1.0063  0.5809
   26MOL    H6115611   0.813   5.165   2.702  0.6417 -0.0882  0.1786
   26MOL    H6215612   7.657   4.672   3.025 -1.2019  1.2006  0.8588
   26MOL    H6315613   0.034   4.747   3.085  0.3758  0.4290  0.8507
   26MOL    C6415614   7.636   4.843   3.150  0.2069 -0.7075 -0.3439
   26MOL    O6515615   7.721   4.946   3.186  0.3097  0.1852  0.0761
   26MOL    C6615616   7.651   5.068   3.211 -0.9826  0.6522 -0.1081
   26MOL    C6715617   7.742   5.183   3.217 -0.2057  0.2309  0.2771
   26MOL    C6815618   0.068   5.190   3.333  0.1371 -1.3203  0.6460
   26MOL    C6915619   0.111   5.335   3.360  0.1819  0.1556 -0.3267
   26MOL    C7015620   0.207   5.355   3.481 -0.6772 -0.4023 -0.4099
   26MOL    C7115621   0.317   5.460   3.463  0.7774  0.2400 -0.4032
   26MOL    C7215622   0.425   5.427   3.361  0.6188  0.3030  0.4762
   26MOL    C7315623   0.548   5.520   3.356  0.1082 -0.0205  0.4225
   26MOL    C7415624   7.620   4.745   3.268 -0.0417 -0.4354 -0.4771
   26MOL    H7515625   7.539   4.881   3.119 -0.3350 -0.8072  1.1726
   26MOL    H7615626   7.604   5.055   3.308  0.8885  2.9437  1.1755
   26MOL    H7715627   7.570   5.086   3.140 -3.0187 -1.0462  1.7302
   26MOL    H7815628   7.678   5.272   3.218  0.6545  0.8353  1.5263
   26MOL    H7915629   0.012   5.175   3.118  1.3706 -0.5353  1.0397
   26MOL    H8015630   0.024   5.152   3.425 -0.3373 -0.0992  0.9242
   26MOL    H8115631   0.159   5.135   3.309  0.2777 -1.3284  1.1893
   26MOL    H8215632   0.147   5.384   3.269  1.0638  0.1574  0.0219
   26MOL    H8315633   0.025   5.398   3.385  1.2901  1.2364  0.7708
   26MOL    H8415634   0.142   5.380   3.566 -1.2072 -0.8942 -0.6698
   26MOL    H8515635   0.250   5.260   3.511  0.0990  0.5211  1.5398
   26MOL    H8615636   0.356   5.483   3.562 -1.1636 -2.7164  1.1042
   26MOL    H8715637   0.272   5.546   3.413  0.5866  1.3509  1.6252
   26MOL    H8815638   0.453   5.323   3.376  1.4446  0.5195  0.4835
   26MOL    H8915639   0.385   5.419   3.260  1.0542 -2.2677  0.4721
   26MOL    H9015640   0.580   5.560   3.452 -1.0841 -0.4868  1.0141
   26MOL    H9115641   0.549   5.598   3.280  2.5844 -0.9263 -0.5548
   26MOL    H9215642   0.625   5.450   3.322  0.2300  0.3925 -0.1601
   26MOL    H9315643   7.611   4.642   3.234  0.8067 -0.4090 -0.7887
   26MOL    H9415644   7.718   4.750   3.317 -0.6092  0.5049  0.6065
   26MOL    C9515645   7.533   4.790   3.390 -0.2447  0.0214  0.1656
   26MOL    O9615646   7.568   4.701   3.495  0.0774 -0.0400  0.4710
   26MOL    C9715647   7.673   4.743   3.577 -0.0819 -0.1988 -0.3756
   26MOL    C9815648   7.686   4.635   3.692  0.0773  0.4304 -0.5232
   26MOL    C9915649   0.008   4.669   3.804 -0.3361  0.0077  0.8464
   26MOL   C10015650   0.005   4.583   3.928  0.7773  0.2825  0.4467
   26MOL   C10115651   0.044   4.435   3.914 -0.3091  0.5845  0.2472
   26MOL   C10215652   0.006   4.351   4.041  0.2130 -0.5455  0.2906
   26MOL   C10315653   0.044   4.202   4.033  0.2022  0.3140  0.1534
   26MOL   C10415654   0.017   4.127   4.163  0.3001  0.2564 -0.3461
   26MOL   C10515655   7.383   4.765   3.356 -0.4427 -0.2853 -0.3116
   26MOL   H10615656   7.559   4.892   3.418 -0.1948  0.3549 -1.0577
   26MOL   H10715657   7.665   4.843   3.618  0.4791 -0.0700 -0.5682
   26MOL   H10815658   7.760   4.755   3.512  1.3436  0.0266  1.5377
   26MOL   H10915659   7.716   4.543   3.643 -0.0785  0.0661  0.0693
   26MOL   H11015660   7.588   4.618   3.737  1.0317 -4.5338 -0.0279
   26MOL   H11115661   0.105   4.647   3.759 -1.5805 -3.4160 -0.3170
   26MOL   H11215662   0.012   4.774   3.836 -0.1660  0.9433 -2.0548
   26MOL   H11315663   0.066   4.638   4.000  2.2429 -1.5032  0.6028
   26MOL   H11415664   7.678   4.577   3.969  0.2376 -1.3092 -1.0831
   26MOL   H11515665   7.753   4.398   3.834  0.4317  0.2665 -0.2139
   26MOL   H11615666   0.140   4.418   3.866  0.8067  1.4758  2.1098
   26MOL   H11715667   7.673   4.359   4.060  0.2233 -1.2893  0.6635
   26MOL   H11815668   0.065   4.386   4.126  1.0403  0.0865 -0.5374
   26MOL   H11915669   7.766   4.146   3.955 -1.1975  2.5504 -0.5518
   26MOL   H12015670   0.147   4.192   4.001 -0.0356  0.8519 -0.7733
   26MOL   H12115671   0.037   4.021   4.150  0.3802  0.5123 -2.5790
   26MOL   H12215672   7.691   4.154   4.196  0.6899  1.0846  0.1635
   26MOL   H12315673   0.086   4.169   4.236  0.6044  0.7447 -0.9112
   26MOL   H12415674   7.371   4.685   3.282 -1.0926 -0.8496  0.3972
   26MOL   H12515675   7.327   4.720   3.437 -2.2954 -1.2530 -2.0906
   26MOL   C12615676   7.314   4.905   3.308 -0.3946  0.0500 -0.4102
   26MOL   O12715677   7.279   4.985   3.424  0.6214 -0.0272 -0.0560
   26MOL   C12815678   7.259   5.122   3.409  0.1310 -0.4298 -0.7086
   26MOL   C12915679   7.121   5.156   3.465 -0.5627  0.4697  0.3192
   26MOL   C13015680   7.113   5.299   3.526 -0.0201 -0.4400  0.5364
   26MOL   C13115681   7.083   5.399   3.414  0.0821 -0.1768  0.1130
   26MOL   C13215682   7.048   5.543   3.448 -0.0407  0.7456  0.8002
   26MOL   C13315683   7.066   5.650   3.341  0.1553 -0.5296  0.8217
   26MOL   C13415684   6.963   5.617   3.231 -0.0572  0.2962 -0.5124
   26MOL   C13515685   6.938   5.729   3.131  0.2278  0.4090  0.4121
   26MOL   C13615686   7.178   4.882   3.234  0.5575  0.0836  0.6512
   26MOL   H13715687   7.372   4.968   3.241  2.5901 -0.0263  2.0043
   26MOL   H13815688   7.268   5.161   3.308  2.0473  0.7897 -0.1040
   26MOL   H13915689   7.333   5.180   3.465 -1.2278 -0.1661  0.8422
   26MOL   H14015690   7.094   5.092   3.548  1.0123  0.2719  0.6810
   26MOL   H14115691   7.043   5.135   3.392  0.3298 -1.5948 -0.0732
   26MOL   H14215692   7.032   5.300   3.599 -0.5455  0.7425 -0.0457
   26MOL   H14315693   7.203   5.323   3.583 -2.3773 -1.4151  4.8321
   26MOL   H14415694   7.172   5.409   3.352 -0.7448 -2.3225 -1.5055
   26MOL   H14515695   7.004   5.357   3.351 -0.0360 -1.7330  1.2616
   26MOL   H14615696   6.952   5.559   3.497  0.9741  3.8244  1.9519
   26MOL   H14715697   7.122   5.575   3.521 -0.4068  0.5494  1.2648
   26MOL   H14815698   7.167   5.650   3.301  0.0206  0.6093  0.4616
   26MOL   H14915699   7.048   5.749   3.383  1.6622  0.9912 -1.9949
   26MOL   H15015700   7.000   5.525   3.185 -1.8530 -1.1463  0.8580
   26MOL   H15115701   6.870   5.596   3.284  0.2870 -0.2537 -0.1152
   26MOL   H15215702   6.897   5.803   3.199  0.2958 -0.8668  1.8581
   26MOL   H15315703   6.868   5.700   3.052  2.2582 -1.4247 -0.7461
   26MOL   H15415704   7.027   5.772   3.087  1.4626 -1.0892  1.4153
   26MOL   H15515705   7.110   4.819   3.292 -1.0668 -1.5085 -2.7722
   26MOL   H15615706   7.122   4.973   3.256 -1.0820 -0.9776  0.9743
   26MOL   C15715707   7.185   4.844   3.083  0.5788  0.2883  0.1502
   26MOL   O15815708   7.183   4.966   3.011  0.1622  0.2129  0.0026
   26MOL   C15915709   7.242   4.956   2.879 -0.1134 -0.9054  0.0376
   26MOL   C16015710   7.214   5.083   2.793  0.3077 -0.4466 -0.3294
   26MOL   C16115711   7.291   5.200   2.863  0.0894  0.1355 -0.1709
   26MOL   C16215712   7.254   5.334   2.807  0.1204  0.1173  0.2287
   26MOL   C16315713   7.351   5.449   2.846 -0.6160  0.2329  0.3357
   26MOL   C16415714   7.341   5.493   2.994 -0.8826  0.2116 -0.1743
   26MOL   C16515715   7.428   5.609   3.020  0.2786 -0.3497  0.3939
   26MOL   C16615716   7.408   5.666   3.161 -0.5452  0.0182  0.2238
   26MOL   C16715717   7.072   4.750   3.044  0.4889  0.0233  0.2112
   26MOL   H16815718   7.286   4.803   3.078  0.3872 -0.2262  0.4579
   26MOL   H16915719   7.199   4.866   2.836 -0.3571 -1.5904  1.6816
   26MOL   H17015720   7.347   4.925   2.883 -0.2065 -1.0637  1.3096
   26MOL   H17115721   7.108   5.102   2.812  0.7268 -1.8362  3.9550
   26MOL   H17215722   7.235   5.073   2.687 -0.5448 -2.5978 -0.3158
   26MOL   H17315723   7.288   5.188   2.971  0.6156  1.4154 -0.0065
   26MOL   H17415724   7.397   5.191   2.839  0.3954  1.3177  0.6653
   26MOL   H17515725   7.252   5.327   2.698 -2.0328  2.2390  0.0775
   26MOL   H17615726   7.157   5.374   2.837 -0.7182 -0.2662 -1.9127
   26MOL   H17715727   7.452   5.414   2.824 -0.7940 -0.6725  0.9390
   26MOL   H17815728   7.338   5.534   2.779  0.3240  0.0877 -0.0422
   26MOL   H17915729   7.369   5.409   3.058 -0.8600  0.1387 -0.2801
   26MOL   H18015730   7.242   5.521   3.031 -0.1015 -0.0456  2.1564
   26MOL   H18115731   7.535   5.588   3.012  0.6645  0.9741  1.8348
   26MOL   H18215732   7.405   5.693   2.954 -2.0992 -1.2705  0.0092
   26MOL   H18315733   7.391   5.587   3.234  2.9832 -1.5293 -0.5552
   26MOL   H18415734   7.318   5.728   3.166 -1.2384 -0.8822 -0.6647
   26MOL   H18515735   7.482   5.732   3.206  0.1989 -0.5484 -0.1550
   26MOL   H18615736   6.979   4.786   3.087  0.4941 -0.1068  0.3315
   26MOL   H18715737   7.045   4.744   2.938  2.2007 -0.1804 -0.2326
   26MOL   C18815738   7.099   4.601   3.092 -0.4088 -0.3239 -0.3903
   26MOL   O18915739   7.207   4.551   3.013  0.3444 -0.1788 -0.1323
   26MOL   C19015740   7.283   4.449   3.086 -0.3733 -0.0504 -0.0955
   26MOL   C19115741   7.393   4.414   2.986 -0.1954 -0.4289 -0.3318
   26MOL   C19215742   7.347   4.381   2.841  0.7438  1.0077  0.1884
   26MOL   C19315743   7.453   4.315   2.764 -0.5931  0.4311 -0.3134
   26MOL   C19415744   7.395   4.250   2.638 -0.3558  0.2765  0.1937
   26MOL   C19515745   7.486   4.178   2.545  0.4584 -0.3653  0.4215
   26MOL   C19615746   7.412   4.117   2.426  0.4701 -0.7455 -0.0602
   26MOL   C19715747   7.499   4.058   2.310  0.5469  0.0125 -0.0903
   26MOL   C19815748   6.976   4.502   3.078  0.0456  0.8804 -0.1783
   26MOL   H19915749   7.128   4.608   3.197 -2.6543 -0.3690  0.2609
   26MOL   H20015750   7.331   4.489   3.176 -0.1801  0.5766 -0.4770
   26MOL   H20115751   7.226   4.362   3.120  0.9215  0.5416  3.8492
   26MOL   H20215752   7.445   4.334   3.040  1.2122  1.3141  0.9410
   26MOL   H20315753   7.463   4.496   2.968 -1.8561  0.8549 -1.0503
   26MOL   H20415754   7.255   4.323   2.838  1.2626  0.1701  0.2783
   26MOL   H20515755   7.333   4.478   2.793  1.3858 -0.2448 -2.5994
   26MOL   H20615756   7.538   4.382   2.749 -0.7343  0.7430  0.2837
   26MOL   H20715757   7.496   4.235   2.823  1.5688  0.4990 -1.7188
   26MOL   H20815758   7.301   4.196   2.649 -0.2105 -0.2378 -1.0248
   26MOL   H20915759   7.352   4.337   2.587 -0.0458  0.3188  0.0040
   26MOL   H21015760   7.542   4.097   2.592  0.0321 -2.4604 -2.5171
   26MOL   H21115761   7.557   4.253   2.510 -1.0561  0.4173 -1.0795
   26MOL   H21215762   7.341   4.042   2.463 -0.2878 -0.6282 -1.2220
   26MOL   H21315763   7.340   4.194   2.398  1.4979  0.9834  1.9267
   26MOL   H21415764   7.547   3.968   2.346 -2.0062 -0.6892  1.6688
   26MOL   H21515765   7.565   4.139   2.276 -0.7307  0.4386 -1.6312
   26MOL   H21615766   7.439   4.024   2.226 -0.5249 -0.7487  0.9671
   26MOL   H21715767   6.926   4.525   2.984  1.2096  0.2848 -0.9535
   26MOL   H21815768   6.997   4.396   3.069  1.5611  1.1822 -0.3277
   26MOL   C21915769   6.877   4.503   3.193  0.0347  0.6580  0.1864
   26MOL   O22015770   6.953   4.461   3.302  0.2153  0.4874  0.4992
   26MOL   C22115771   6.893   4.484   3.433  0.4445  0.4382  0.0563
   26MOL   C22215772   6.986   4.421   3.537 -0.0828  0.1402 -0.4806
   26MOL   C22315773   7.133   4.482   3.529  0.4382  0.0492  0.1889
   26MOL   C22415774   7.239   4.416   3.621  0.2194  0.0082  0.1591
   26MOL   C22515775   7.264   4.273   3.576  0.9652 -0.0084 -0.2129
   26MOL   C22615776   7.366   4.205   3.667 -0.2428  0.5937 -0.0154
   26MOL   C22715777   7.383   4.051   3.647 -0.1988 -0.0468 -0.0021
   26MOL   C22815778   7.496   3.992   3.738 -0.1256 -0.3366 -0.2356
   26MOL   C22915779   6.763   4.407   3.160  0.5774 -0.0199 -0.0680
   26MOL   H23015780   6.835   4.603   3.197 -3.6654 -0.7911 -0.2436
   26MOL   H23115781   6.799   4.430   3.437  0.7865 -0.1621  0.0604
   26MOL   H23215782   6.882   4.591   3.452  1.9160  0.4382  0.9993
   26MOL   H23315783   6.978   4.313   3.523 -1.2203  0.3716 -1.7320
   26MOL   H23415784   6.948   4.441   3.637 -1.5138  2.3423 -1.4218
   26MOL   H23515785   7.170   4.469   3.428  0.9755  0.2086  0.3632
   26MOL   H23615786   7.126   4.589   3.552 -0.1552  0.3077 -1.1412
   26MOL   H23715787   7.329   4.467   3.588 -0.3100  0.7977 -0.0579
   26MOL   H23815788   7.220   4.427   3.728 -0.6410  0.6150 -0.0495
   26MOL   H23915789   7.171   4.219   3.586  1.1722 -0.3582 -0.1812
   26MOL   H24015790   7.298   4.266   3.472 -1.2173 -2.2154 -0.8099
   26MOL   H24115791   7.332   4.232   3.767  3.5946  0.9079  1.2836
   26MOL   H24215792   7.463   4.255   3.664  0.0352 -0.0293 -1.7774
   26MOL   H24315793   7.289   4.005   3.678 -1.2006  2.1158  0.2305
   26MOL   H24415794   7.415   4.027   3.545  2.9250 -1.4913  1.2597
   26MOL   H24515795   7.596   4.034   3.722  0.7560 -2.0639  0.6124
   26MOL   H24615796   7.486   3.884   3.731  0.0097 -0.3688  0.0848
   26MOL   H24715797   7.473   4.004   3.843  1.8273 -0.8384  0.2730
   26MOL   H24815798   6.803   4.321   3.106  0.4445 -1.4196  2.0062
   26MOL   H24915799   6.736   4.351   3.249  2.2125  1.1755  1.2188
   26MOL   C25015800   6.651   4.473   3.090  0.8506  0.3462 -0.1706
   26MOL   O25115801   6.598   4.583   3.167  0.0557 -0.1481  0.5026
   26MOL   C25215802   6.502   4.670   3.103  0.4719 -0.2697  0.2029
   26MOL   C25315803   6.527   4.803   3.175 -0.5643  0.4534  0.0394
   26MOL   C25415804   6.464   4.801   3.315 -0.3517  0.2425  0.4704
   26MOL   C25515805   6.468   4.942   3.375  0.0362  0.1825  0.2777
   26MOL   C25615806   6.403   4.948   3.516  0.7737 -0.8765  0.2072
   26MOL   C25715807   6.263   5.005   3.498 -0.1315 -0.3587 -0.0021
   26MOL   C25815808   6.175   5.011   3.627 -0.1342 -0.6561 -0.4188
   26MOL   C25915809   6.027   5.054   3.596  0.0674 -0.4405  0.2285
   26MOL   C26015810   6.536   4.364   3.057 -0.2134 -0.5557 -1.0191
   26MOL   H26115811   6.679   4.509   2.991 -0.9853  1.7032 -0.2212
   26MOL   H26215812   6.399   4.640   3.124  0.1788  0.3226 -0.3680
   26MOL   H26315813   6.527   4.685   2.998  2.6660 -1.2139  0.5660
   26MOL   H26415814   6.468   4.877   3.121  1.0241  3.1407  1.8982
   26MOL   H26515815   6.633   4.827   3.171  0.0398 -2.4319 -2.6366
   26MOL   H26615816   6.360   4.773   3.295 -0.0333 -0.7226  0.1007
   26MOL   H26715817   6.514   4.730   3.381 -1.3234 -1.6490 -0.7777
   26MOL   H26815818   6.576   4.953   3.388  0.5935 -1.6526 -2.3196
   26MOL   H26915819   6.434   5.022   3.310  0.3348  0.8039  0.8821
   26MOL   H27015820   6.387   4.848   3.555  2.5700 -0.9478  0.8027
   26MOL   H27115821   6.457   5.010   3.588 -0.1258 -0.5528  0.6161
   26MOL   H27215822   6.214   4.946   3.421  0.8245  1.5011 -2.0983
   26MOL   H27315823   6.258   5.104   3.452 -0.7567 -0.7255 -0.7423
   26MOL   H27415824   6.172   4.917   3.682 -0.9992 -0.1009  0.5115
   26MOL   H27515825   6.209   5.085   3.700  0.3711 -1.6979  0.4135
   26MOL   H27615826   6.031   5.148   3.541 -0.9309 -1.0585 -0.9316
   26MOL   H27715827   5.976   5.078   3.690 -1.0286 -0.8779 -0.2447
   26MOL   H27815828   5.981   4.972   3.542  0.2070 -1.8469  2.2033
   26MOL   H27915829   6.551   4.287   3.133  0.9496  1.7515  1.1737
   26MOL   H28015830   6.445   4.410   3.097  2.0158  3.2620 -0.0122
   26MOL   C28115831   6.515   4.307   2.917  0.7078 -0.1623  0.1495
   26MOL   O28215832   6.633   4.241   2.878  0.3158 -0.5066 -0.2018
   26MOL   C28315833   6.617   4.147   2.773  0.1846  0.2503 -0.2983
   26MOL   C28415834   6.725   4.038   2.798  0.0771 -0.5318 -0.2750
   26MOL   C28515835   6.734   3.926   2.688 -0.1540  0.0196 -0.2744
   26MOL   C28615836   6.842   3.828   2.722  0.1322  0.4218  0.3436
   26MOL   C28715837   6.874   3.729   2.612 -0.1824 -0.1506  0.5931
   26MOL   C28815838   6.744   3.654   2.564 -0.3362 -0.4571  0.3085
   26MOL   C28915839   6.676   3.572   2.664  0.4535 -0.0592 -0.1219
   26MOL   C29015840   6.558   3.498   2.608 -0.1126  0.2113  0.1048
   26MOL   C29115841   6.471   4.421   2.818 -0.7047  0.7268 -0.7512
   26MOL   H29215842   6.439   4.230   2.930  0.5846 -0.4996 -2.3576
   26MOL   H29315843   6.641   4.200   2.681  1.4694 -0.6064 -0.4737
   26MOL   H29415844   6.518   4.102   2.766 -0.4049  1.5905 -0.6409
   26MOL   H29515845   6.709   3.994   2.897  1.6887 -2.9314 -1.0262
   26MOL   H29615846   6.822   4.087   2.806  0.2744 -1.0560  0.7083
   26MOL   H29715847   6.638   3.875   2.677  0.7044 -1.3514 -1.5399
   26MOL   H29815848   6.752   3.975   2.592  1.4679 -4.0584 -2.1745
   26MOL   H29915849   6.928   3.891   2.748  1.7347 -1.5191 -0.1859
   26MOL   H30015850   6.819   3.770   2.811  0.4537 -2.7091 -1.5627
   26MOL   H30115851   6.918   3.778   2.525  0.2426  1.6539  1.7812
   26MOL   H30215852   6.947   3.657   2.648 -0.6098 -0.1370  1.5138
   26MOL   H30315853   6.781   3.592   2.483  0.4970 -0.6267  0.8033
   26MOL   H30415854   6.666   3.718   2.524 -0.5001 -0.0406  1.2650
   26MOL   H30515855   6.744   3.494   2.698 -1.5458 -2.0826 -0.6224
   26MOL   H30615856   6.636   3.631   2.747 -1.3256 -0.8362 -0.4082
   26MOL   H30715857   6.586   3.415   2.544 -1.5776 -0.0539 -0.2103
   26MOL   H30815858   6.490   3.556   2.545  0.7269  0.0275 -0.9785
   26MOL   H30915859   6.508   3.459   2.697  1.5543  0.5364  1.2035
   26MOL   H31015860   6.536   4.509   2.825  0.1875 -0.0220  0.5465
   26MOL   H31115861   6.498   4.383   2.720 -0.2873 -1.0722  0.0486
   26MOL   C31215862   6.320   4.471   2.841 -0.0898  0.0825 -0.1261
   26MOL   O31315863   6.233   4.361   2.833  0.5107  0.5062 -0.4234
   26MOL   C31415864   6.110   4.373   2.907  0.1066  0.1804 -0.3458
   26MOL   C31515865   6.137   4.289   3.049 -0.2734 -0.6207  0.3509
   26MOL   C31615866   6.135   4.136   3.037  0.2592  0.0675 -0.0804
   26MOL   C31715867   6.135   4.058   3.171 -0.3308 -0.3337  0.3225
   26MOL   C31815868   6.003   4.066   3.248  0.3471  0.7495 -0.2585
   26MOL   C31915869   6.014   3.987   3.380  0.9306  0.8612 -0.8223
   26MOL   C32015870   6.107   4.062   3.479  0.6260 -0.0597 -0.5039
   26MOL   C32115871   6.140   3.989   3.612 -0.5747  0.6411  0.2650
   26MOL   C32215872   6.274   4.561   2.723 -0.3544 -0.3437  0.7688
   26MOL   H32315873   6.311   4.520   2.938 -0.5804 -1.2688  0.5318
   26MOL   H32415874   6.028   4.334   2.846  0.2100 -0.6809  0.0596
   26MOL   H32515875   6.087   4.477   2.933  1.3784  0.1489  0.9854
   26MOL   H32615876   6.063   4.326   3.120 -0.4975  1.1512 -0.7478
   26MOL   H32715877   6.237   4.310   3.088 -0.0962 -2.0166  0.6586
   26MOL   H32815878   6.047   4.105   2.982 -1.2706 -0.0184  2.3219
   26MOL   H32915879   6.216   4.107   2.971 -1.5387 -2.0370 -1.4163
   26MOL   H33015880   6.150   3.951   3.157  1.0547 -0.2712  1.1965
   26MOL   H33115881   6.223   4.084   3.231  1.4319  1.4479 -2.8986
   26MOL   H33215882   5.983   4.171   3.271  3.9113  1.3872  0.1712
   26MOL   H33315883   5.919   4.025   3.192  1.2618 -0.1371 -0.9940
   26MOL   H33415884   6.071   3.898   3.353  1.4587  1.2332 -0.9272
   26MOL   H33515885   5.915   3.969   3.424  1.3266  0.6236 -0.0225
   26MOL   H33615886   6.200   4.086   3.427  1.3121  4.6209  2.5730
   26MOL   H33715887   6.077   4.164   3.504  1.9738 -0.0684  1.2394
   26MOL   H33815888   6.043   3.966   3.659 -1.6517  2.9463 -0.7720
   26MOL   H33915889   6.198   4.050   3.681 -0.4554  0.0626  0.6809
   26MOL   H34015890   6.196   3.899   3.585  1.1399  1.1592  1.9696
   26MOL   H34115891   6.302   4.514   2.628  0.5590  0.1073  0.8074
   26MOL   H34215892   6.165   4.567   2.714 -0.1459  1.6879 -0.8911
   26MOL   C34315893   6.312   4.710   2.737  0.7312 -0.3080 -0.4948
   26MOL   O34415894   6.230   4.763   2.836  0.0921  0.2511 -0.3961
   26MOL   C34515895   6.275   4.874   2.906  0.2090  0.4786 -0.5330
   26MOL   C34615896   6.205   4.875   3.045  0.3420  0.1774 -0.5468
   26MOL   C34715897   6.056   4.900   3.036 -0.0384  0.3725 -0.4345
   26MOL   C34815898   5.999   4.970   3.162  0.1334 -0.4395  0.1125
   26MOL   C34915899   5.849   4.981   3.162 -0.5550 -0.0635  0.1629
   26MOL   C35015900   5.790   5.100   3.082 -0.1313  0.1915 -0.1849
   26MOL   C35115901   5.631   5.100   3.063  0.2458 -0.2418  0.2271
   26MOL   C35215902   5.598   4.965   2.983  0.4129  0.2134 -0.0057
   26MOL   C35315903   6.289   4.782   2.604 -0.1676 -0.0758 -0.6789
   26MOL   H35415904   6.415   4.721   2.772  0.3559 -2.2077  1.3360
   26MOL   H35515905   6.243   4.958   2.845 -0.0598 -0.4156 -1.6315
   26MOL   H35615906   6.383   4.867   2.920 -0.2886 -1.6245  3.1897
   26MOL   H35715907   6.263   4.948   3.101  1.4309 -1.8754  1.0775
   26MOL   H35815908   6.211   4.776   3.090 -2.8986  1.3316  2.7115
   26MOL   H35915909   6.027   4.958   2.949 -2.2502 -0.9950 -0.6542
   26MOL   H36015910   6.006   4.806   3.011 -0.2922  0.2013  0.6719
   26MOL   H36115911   6.037   4.919   3.250  0.9383 -0.9274 -0.5086
   26MOL   H36215912   6.047   5.067   3.148 -4.2021  2.2095  2.6830
   26MOL   H36315913   5.812   4.882   3.136 -1.7583  0.2960  0.4854
   26MOL   H36415914   5.822   4.998   3.266  0.1080  2.1496  0.0125
   26MOL   H36515915   5.834   5.126   2.986 -1.6655 -0.0316 -0.9622
   26MOL   H36615916   5.819   5.189   3.138  1.1630 -0.2022 -0.2197
   26MOL   H36715917   5.580   5.100   3.159 -1.9734  0.7814 -0.8906
   26MOL   H36815918   5.588   5.185   3.010  0.9998  0.8458  1.3325
   26MOL   H36915919   5.671   4.949   2.904 -0.6442  0.4438 -1.0428
   26MOL   H37015920   5.504   4.959   2.927  0.2778  0.0726  0.2314
   26MOL   H37115921   5.604   4.876   3.045  1.3175 -0.0138 -0.4173
   26MOL   H37215922   6.188   4.757   2.570 -0.7615  0.3963  0.7084
   26MOL   H37315923   6.276   4.890   2.615 -0.6586 -0.1027 -0.9639
   26MOL   C37415924   6.387   4.753   2.494 -0.7766 -0.1421  0.2690
   26MOL   O37515925   6.505   4.821   2.527 -0.0739 -0.2907 -0.3543
   26MOL   C37615926   6.617   4.743   2.547 -0.4436 -0.7822 -0.0538
   26MOL   C37715927   6.723   4.811   2.634  0.4357 -0.1375  0.2538
   26MOL   C37815928   6.672   4.814   2.777  0.1443 -0.2073  0.0109
   26MOL   C37915929   6.785   4.872   2.876 -0.0719  0.3844 -0.5970
   26MOL   C38015930   6.765   5.023   2.909 -0.1372  0.1178  0.5045
   26MOL   C38115931   6.855   5.059   3.027 -0.0355 -0.2186 -0.4062
   26MOL   C38215932   6.823   5.194   3.083 -0.1387  0.4308 -0.1850
   26MOL   C38315933   6.871   5.312   2.997 -0.3588  0.0093  0.5529
   26MOL   C38415934   6.340   4.830   2.368 -0.7489  0.2480 -0.4642
   26MOL   H38515935   6.398   4.647   2.469 -1.9589  0.1425 -1.6197
   26MOL   H38615936   6.669   4.730   2.452  0.8513  1.0579  0.3585
   26MOL   H38715937   6.598   4.642   2.584  2.9493 -1.5799 -0.2577
   26MOL   H38815938   6.733   4.914   2.600 -1.9065 -0.8953 -2.9429
   26MOL   H38915939   6.823   4.769   2.624  0.0713 -0.7914 -0.7537
   26MOL   H39015940   6.583   4.876   2.792 -0.6118 -0.8437 -1.7321
   26MOL   H39115941   6.645   4.712   2.806 -1.1729 -0.5864 -2.4027
   26MOL   H39215942   6.800   4.803   2.959  0.8224 -1.6402 -2.3957
   26MOL   H39315943   6.877   4.864   2.818  1.4822  0.2225  1.8002
   26MOL   H39415944   6.790   5.090   2.827 -1.0527  0.2016  0.2906
   26MOL   H39515945   6.662   5.039   2.942  0.0896  2.4335  0.1626
   26MOL   H39615946   6.961   5.065   3.005  0.0170 -0.4129 -0.1939
   26MOL   H39715947   6.837   4.991   3.110 -1.0363  2.1437  1.3867
   26MOL   H39815948   6.714   5.208   3.084  0.0958  2.5443 -1.4854
   26MOL   H39915949   6.852   5.209   3.187 -0.4847 -3.4870  0.5449
   26MOL   H40015950   6.821   5.399   3.040 -0.2625  2.4117 -3.9223
   26MOL   H40115951   6.835   5.309   2.894  2.7318 -1.4967 -0.5357
   26MOL   H40215952   6.979   5.319   2.995 -0.3518 -0.1346  0.4421
   26MOL   H40315953   6.244   4.784   2.345 -0.2092 -1.4026  0.4858
   26MOL   H40415954   6.313   4.933   2.391 -1.0475 -0.3739  2.1964
   26MOL   C40515955   6.432   4.830   2.246  0.0207 -0.5345 -0.2453
   26MOL   O40615956   6.456   4.963   2.213  0.3401 -0.5993 -0.1176
   26MOL   C40715957   6.564   5.031   2.290  0.5483 -0.0020  0.1833
   26MOL   C40815958   6.608   5.161   2.214 -0.2444  0.5305 -0.2808
   26MOL   C40915959   6.669   5.135   2.072  0.1458 -0.0424 -0.3107
   26MOL   C41015960   6.685   5.263   1.996  0.4728  0.3602 -0.0461
   26MOL   C41115961   6.778   5.368   2.062  0.5367 -0.0671 -0.0216
   26MOL   C41215962   6.754   5.504   1.994 -0.4291  0.0260  0.6610
   26MOL   C41315963   6.851   5.619   2.047  0.1484  0.9572  0.0768
   26MOL   C41415964   6.867   5.735   1.953  0.0656  0.0108  0.2091
   26MOL   C41515965   6.356   4.771   2.127 -0.2551  0.1742  0.1827
   26MOL   H41615966   6.521   4.767   2.245  0.3564 -0.0578 -1.0129
   26MOL   H41715967   6.648   4.962   2.293 -0.0840 -0.7832  0.1371
   26MOL   H41815968   6.525   5.053   2.389  2.0085 -0.5224  0.8789
   26MOL   H41915969   6.686   5.210   2.272  0.7018 -1.0869 -0.1440
   26MOL   H42015970   6.528   5.235   2.208 -0.4050  0.3007 -1.1481
   26MOL   H42115971   6.766   5.087   2.084  0.8217  0.9558 -1.7234
   26MOL   H42215972   6.611   5.078   1.999  2.9817  0.2124 -2.8468
   26MOL   H42315973   6.726   5.246   1.896  0.7922 -2.0292  0.4625
   26MOL   H42415974   6.589   5.305   1.967  1.0396 -0.5154 -3.3736
   26MOL   H42515975   6.749   5.380   2.166 -4.9721  1.0019 -1.5263
   26MOL   H42615976   6.885   5.349   2.053  1.0036  1.6451  1.5507
   26MOL   H42715977   6.655   5.542   2.020 -0.0138  1.4401  0.2180
   26MOL   H42815978   6.760   5.486   1.887  1.2120 -2.1939  1.0991
   26MOL   H42915979   6.817   5.645   2.147  0.8754  2.4155 -0.0367
   26MOL   H43015980   6.956   5.597   2.062  0.1510  1.6912  1.1811
   26MOL   H43115981   6.924   5.816   1.998  0.7813 -0.2605 -0.1987
   26MOL   H43215982   6.768   5.764   1.918 -0.6163 -1.3602  0.9359
   26MOL   H43315983   6.928   5.698   1.871  1.1117  2.0452  0.0469
   26MOL   H43415984   6.335   4.665   2.145 -3.1718  0.6499 -0.1471
   26MOL   H43515985   6.264   4.824   2.101 -0.6944 -0.5152  0.2965
   26MOL   C43615986   6.440   4.772   1.997  0.6223  0.4202  0.0844
   26MOL   O43715987   6.350   4.711   1.901 -0.1106  0.9603  0.0192
   26MOL   C43815988   6.264   4.787   1.822 -0.0759 -0.1534 -0.0343
   26MOL   C43915989   6.191   4.712   1.710  0.3531 -0.0240 -0.6127
   26MOL   C44015990   6.301   4.643   1.619 -0.0868  0.3088 -0.2089
   26MOL   C44115991   6.251   4.599   1.487  0.1342 -0.3267 -0.8261
   26MOL   C44215992   6.362   4.539   1.401 -0.0173  0.3229  0.4609
   26MOL   C44315993   6.321   4.542   1.262 -0.0196  0.1229 -0.1643
   26MOL   C44415994   6.435   4.495   1.164  0.7479  1.1497  0.5095
   26MOL   C44515995   6.412   4.555   1.027  0.0362  0.4990 -0.0677
   26MOL   C44615996   6.553   4.663   1.990 -0.2299 -0.2803  0.2307
   26MOL   H44715997   6.461   4.874   1.965 -0.8130  0.5451 -0.5144
   26MOL   H44815998   6.184   4.837   1.877  0.2527 -0.1313  0.4292
   26MOL   H44915999   6.318   4.868   1.772 -1.5669  0.0425 -1.3731
   26MOL   H45016000   6.133   4.775   1.642  0.4718  0.2415 -0.4713
   26MOL   H45116001   6.118   4.639   1.745  0.2825 -0.3926 -1.5294
   26MOL   H45216002   6.385   4.712   1.603  1.4847 -1.4621  0.2021
   26MOL   H45316003   6.348   4.564   1.677 -2.3118 -0.6146  0.3531
   26MOL   H45416004   6.157   4.545   1.490 -0.1224  0.0884 -1.3172
   26MOL   H45516005   6.223   4.695   1.444 -0.1357  0.2841  0.7036
   26MOL   H45616006   6.457   4.591   1.406 -0.2976  0.7907  0.9663
   26MOL   H45716007   6.382   4.436   1.430  1.1082 -0.2046 -2.0596
   26MOL   H45816008   6.289   4.642   1.234 -0.2391  0.0351 -0.2338
   26MOL   H45916009   6.235   4.477   1.246 -1.1011  1.4201  0.3168
   26MOL   H46016010   6.534   4.527   1.198  0.2614  3.2047  0.0682
   26MOL   H46116011   6.450   4.387   1.159  1.4413  1.1101  2.8329
   26MOL   H46216012   6.508   4.563   0.976  0.2140 -0.9238  0.0000
   26MOL   H46316013   6.359   4.649   1.036 -2.5002 -0.6034 -2.8000
   26MOL   H46416014   6.350   4.486   0.970  0.1648 -1.1763  1.7495
   26MOL   H46516015   6.632   4.688   2.061 -0.8768  0.7908  0.5811
   26MOL   H46616016   6.515   4.562   2.007 -0.0657 -0.2047  1.0884
   26MOL   C46716017   6.626   4.672   1.855  0.1983 -0.3062  0.0817
   26MOL   O46816018   6.738   4.587   1.854  0.0557 -0.4531  0.3040
   26MOL   C46916019   6.723   4.475   1.770  0.3231 -0.2632 -0.3085
   26MOL   C47016020   6.868   4.417   1.739  0.4235 -0.8013 -0.3201
   26MOL   C47116021   6.865   4.290   1.665 -0.1415 -0.2332 -0.3074
   26MOL   C47216022   7.009   4.228   1.663 -0.2781 -0.6846  0.0917
   26MOL   C47316023   6.998   4.076   1.629 -0.0906  0.1211 -0.1130
   26MOL   C47416024   7.133   4.011   1.596 -0.0843 -0.4367  0.4689
   26MOL   C47516025   7.120   3.871   1.537  0.1308  0.9723 -0.2006
   26MOL   C47616026   7.257   3.794   1.528  0.0265  0.0993  0.4155
   26MOL   C47716027   6.664   4.818   1.822 -0.4179 -0.4140 -0.5044
   26MOL   H47816028   6.557   4.636   1.778  0.6749  0.0430 -0.5098
   26MOL   H47916029   6.661   4.479   1.680 -2.7093  1.0434  1.7457
   26MOL   H48016030   6.677   4.406   1.841 -0.0594 -1.7690 -1.9789
   26MOL   H48116031   6.925   4.420   1.832 -0.6184  2.2584  0.2489
   26MOL   H48216032   6.914   4.500   1.685 -0.5296  2.1408  3.2072
   26MOL   H48316033   6.804   4.223   1.726  0.9381  0.9059  2.1292
   26MOL   H48416034   6.819   4.297   1.567  0.7234  0.4495 -0.6701
   26MOL   H48516035   7.075   4.273   1.589  1.0051 -1.6161  0.6507
   26MOL   H48616036   7.053   4.238   1.762 -1.0652  0.4491  0.3464
   26MOL   H48716037   6.964   4.018   1.714 -0.1123  0.0856 -0.1463
   26MOL   H48816038   6.917   4.052   1.560  0.7422  1.4376 -1.5837
   26MOL   H48916039   7.190   4.005   1.688  1.0052  2.9297  0.1050
   26MOL   H49016040   7.191   4.074   1.528 -0.0613 -1.2189 -0.2398
   26MOL   H49116041   7.050   3.812   1.596  0.7604  0.6104  0.1892
   26MOL   H49216042   7.070   3.876   1.440 -2.3127 -0.3998  0.9594
   26MOL   H49316043   7.240   3.688   1.509 -0.7858  0.3006  0.0050
   26MOL   H49416044   7.300   3.787   1.628  0.8846 -0.5628  0.0032
   26MOL   H49516045   7.322   3.836   1.452 -0.6861  0.8702  0.2237
   26MOL   H49616046   6.577   4.879   1.797 -0.9739 -1.3456 -0.8580
   26MOL   H49716047   6.712   4.853   1.913  0.1138  0.3916 -1.0880
   26MOL   C49816048   6.759   4.829   1.707  0.1585 -0.4530 -0.0003
   26MOL   O49916049   6.817   4.960   1.696 -0.8668  0.0310  0.5076
   26MOL   C50016050   6.910   4.992   1.794 -0.6842 -0.0573  0.5395
   26MOL   C50116051   6.984   5.109   1.732 -0.7218  0.3867 -0.8846
   26MOL   C50216052   7.112   5.161   1.803  0.2571  0.0438  0.3008
   26MOL   C50316053   7.202   5.253   1.718  0.3777 -0.4815  0.4267
   26MOL   C50416054   7.329   5.290   1.797 -0.5643 -0.1399  0.2907
   26MOL   C50516055   7.409   5.410   1.735 -0.6364  1.1614  0.1605
   26MOL   C50616056   7.335   5.548   1.751 -0.5000  0.2479  0.0728
   26MOL   C50716057   7.397   5.668   1.668  0.3386 -0.4665 -0.5736
   26MOL   C50816058   6.683   4.806   1.571 -0.2660  0.4151 -0.2645
   26MOL   H50916059   6.838   4.755   1.720 -1.8019 -2.5559  0.1631
   26MOL   H51016060   6.990   4.919   1.806  0.4372  0.9717 -0.5267
   26MOL   H51116061   6.865   5.024   1.887 -0.7946 -0.2666  0.5583
   26MOL   H51216062   6.916   5.185   1.693  0.4807  1.3449 -1.1200
   26MOL   H51316063   7.029   5.075   1.639  3.1672  0.5751  0.8610
   26MOL   H51416064   7.077   5.224   1.884 -0.4989 -1.1164  0.8959
   26MOL   H51516065   7.164   5.071   1.839 -0.5971 -1.2062 -1.5196
   26MOL   H51616066   7.234   5.194   1.632  0.4125 -0.8417  0.6868
   26MOL   H51716067   7.143   5.341   1.692  0.4200 -1.1053 -1.9572
   26MOL   H51816068   7.299   5.323   1.896  2.7186  1.3061  0.8727
   26MOL   H51916069   7.386   5.198   1.784 -1.1418 -0.3889 -0.5434
   26MOL   H52016070   7.422   5.394   1.628 -3.0751 -0.8369  0.1125
   26MOL   H52116071   7.509   5.412   1.778 -0.5285 -1.6573  0.1580
   26MOL   H52216072   7.229   5.542   1.729 -0.8199  0.1199  1.6100
   26MOL   H52316073   7.347   5.580   1.854  0.1479 -0.3654  0.1928
   26MOL   H52416074   7.371   5.769   1.700  0.3730 -0.7662  0.4407
   26MOL   H52516075   7.340   5.653   1.576 -2.7386 -0.2576  1.2018
   26MOL   H52616076   7.504   5.654   1.656  0.3605 -0.1627 -0.7326
   26MOL   H52716077   6.643   4.710   1.605  1.2329 -0.0440  0.2636
   26MOL   H52816078   6.596   4.871   1.562  0.8431  1.6750 -1.9926
   26MOL   C52916079   6.768   4.793   1.441  0.4186 -0.3184  0.2498
   26MOL   O53016080   6.681   4.784   1.329 -0.4888 -0.1663  0.5246
   26MOL   C53116081   6.646   4.910   1.280 -0.1876  0.0336 -0.0452
   26MOL   C53216082   6.527   4.881   1.182 -0.7436  0.4441  1.0107
   26MOL   C53316083   6.501   4.996   1.087  0.2540  0.1696  0.1345
   26MOL   C53416084   6.383   4.965   0.993 -0.0402  0.5276  0.3153
   26MOL   C53516085   6.330   5.086   0.916 -0.0027 -0.0354 -0.2453
   26MOL   C53616086   6.202   5.057   0.842  0.4641 -0.6508  0.2963
   26MOL   C53716087   6.208   4.954   0.725 -0.0563  0.2526  1.0501
   26MOL   C53816088   6.268   5.029   0.605 -0.4595  0.3797 -0.7293
   26MOL   C53916089   6.846   4.662   1.443  0.1384 -0.0097  0.0269
   26MOL   H54016090   6.836   4.878   1.432  0.7596 -0.6263 -0.0981
   26MOL   H54116091   6.613   4.979   1.358 -3.1916 -0.0707 -1.1519
   26MOL   H54216092   6.731   4.950   1.224 -1.5481  2.7227 -0.2471
   26MOL   H54316093   6.439   4.841   1.233 -0.8761  0.0724  0.5025
   26MOL   H54416094   6.562   4.792   1.129  1.5216  2.5255 -1.1556
   26MOL   H54516095   6.497   5.085   1.148  0.8468  0.5416 -0.3649
   26MOL   H54616096   6.596   5.006   1.034 -0.0309  4.3081  0.2813
   26MOL   H54716097   6.426   4.900   0.917  0.9061  1.7662 -0.2209
   26MOL   H54816098   6.297   4.921   1.044 -1.1171  2.2205 -0.0266
   26MOL   H54916099   6.314   5.162   0.993  0.5225  0.0984 -0.2659
   26MOL   H55016100   6.407   5.123   0.847  0.8154 -2.3943 -0.6484
   26MOL   H55116101   6.150   5.147   0.810  0.5591 -0.8659 -0.4702
   26MOL   H55216102   6.133   5.022   0.920 -0.4821  0.1368 -0.1750
   26MOL   H55316103   6.272   4.869   0.752  0.8762  0.3643 -0.7537
   26MOL   H55416104   6.112   4.916   0.689  0.1748  1.6494 -1.1304
   26MOL   H55516105   6.351   5.093   0.633 -1.2598  0.4867  1.4749
   26MOL   H55616106   6.194   5.095   0.560  0.0872  0.3619 -1.6701
   26MOL   H55716107   6.309   4.978   0.518 -1.8718  0.9584 -1.7588
   26MOL   H55816108   6.903   4.656   1.536  2.0879 -0.4460 -1.1599
   26MOL   H55916109   6.772   4.583   1.446 -0.4338  0.3668 -2.8951
   26MOL   C56016110   6.945   4.644   1.330  0.0926  0.3593 -0.2637
   26MOL   O56116111   6.886   4.582   1.215 -0.5112  0.2694 -0.7370
   26MOL   C56216112   6.910   4.646   1.099 -1.0553 -0.1045 -0.4936
   26MOL   C56316113   6.854   4.558   0.987 -0.1584  0.0465 -0.0418
   26MOL   C56416114   6.916   4.609   0.862  0.1179 -0.8324 -0.0714
   26MOL   C56516115   6.871   4.534   0.737 -0.0612 -0.5344  0.1868
   26MOL   C56616116   6.906   4.608   0.605 -0.1321  0.3105  0.4806
   26MOL   C56716117   7.050   4.592   0.559 -0.5867 -0.0517 -0.3575
   26MOL   C56816118   7.077   4.643   0.420  0.9477 -0.0516  0.4543
   26MOL   C56916119   7.225   4.649   0.380 -0.2366  0.0249  0.1051
   26MOL   C57016120   7.059   4.550   1.382 -0.7809  0.2751 -0.7165
   26MOL   H57116121   6.974   4.744   1.296  1.7535 -0.4418 -1.2671
   26MOL   H57216122   7.018   4.654   1.087 -1.0106 -2.1496 -1.6266
   26MOL   H57316123   6.859   4.742   1.104 -0.7024  0.1249 -1.2481
   26MOL   H57416124   6.745   4.558   0.979 -0.1422 -1.9090 -0.3752
   26MOL   H57516125   6.886   4.456   1.006 -1.2424 -0.2304  0.3507
   26MOL   H57616126   6.905   4.717   0.849  0.7021 -0.6478  0.9384
   26MOL   H57716127   7.022   4.587   0.876  0.4222  0.8328  0.2727
   26MOL   H57816128   6.930   4.443   0.730 -0.9144 -1.0657 -0.2736
   26MOL   H57916129   6.771   4.493   0.754 -0.3273 -0.4872 -1.2016
   26MOL   H58016130   6.841   4.570   0.526 -0.7075  0.2244  0.9901
   26MOL   H58116131   6.870   4.709   0.623  1.8138  1.5159 -2.1418
   26MOL   H58216132   7.073   4.486   0.556 -1.2028 -0.3349  2.8445
   26MOL   H58316133   7.119   4.641   0.628 -0.8751  0.7960 -0.6578
   26MOL   H58416134   7.016   4.592   0.346  1.7284 -0.5559  0.1573
   26MOL   H58516135   7.043   4.747   0.414 -1.1635 -0.7787 -0.7437
   26MOL   H58616136   7.224   4.702   0.285  1.7118  1.4470  0.8465
   26MOL   H58716137   7.258   4.546   0.378  0.5877  0.3059 -0.8158
   26MOL   H58816138   7.291   4.701   0.450  2.6395 -0.7226 -1.9676
   26MOL   H58916139   7.013   4.473   1.444  2.3763  0.1856  1.6181
   26MOL   H59016140   7.109   4.496   1.302  2.1612  0.4556  0.9120
   26MOL   C59116141   7.165   4.621   1.467  0.3287  0.0547  0.2441
   26MOL   O59216142   7.198   4.739   1.396 -0.0101  0.3164  0.3632
   26MOL   C59316143   7.175   4.862   1.466 -0.8444 -0.0972 -0.1833
   26MOL   C59416144   7.254   4.975   1.394  0.2862  0.1958  0.1428
   26MOL   C59516145   7.405   4.960   1.394 -0.2860 -0.5622 -0.6152
   26MOL   C59616146   7.483   5.079   1.339  0.2838  0.8631  0.7694
   26MOL   C59716147   7.617   5.081   1.405 -0.0369  0.1949 -0.1648
   26MOL   C59816148   7.705   5.197   1.359  0.3378 -0.3699  0.1001
   26MOL   C59916149   0.072   5.148   1.322 -0.7168 -0.0278  0.3779
   26MOL   C60016150   0.163   5.250   1.265  0.0047 -0.0165 -0.4449
   26MOL   C60116151   7.299   4.544   1.493  0.6137  0.1049  0.2830
   26MOL   H60216152   7.124   4.640   1.567  0.6767  0.7087  0.2650
   26MOL   H60316153   7.192   4.866   1.574  0.5995  1.7229 -0.4676
   26MOL   H60416154   7.068   4.879   1.454 -0.7275  0.1744 -0.8413
   26MOL   H60516155   7.222   5.075   1.425  0.4364  0.7296 -1.3903
   26MOL   H60616156   7.223   4.957   1.291 -0.9168  0.0072  0.5241
   26MOL   H60716157   7.410   4.957   1.503 -1.5625  1.1998 -0.4782
   26MOL   H60816158   7.442   4.865   1.356  2.0982  0.1680 -0.2259
   26MOL   H60916159   7.497   5.072   1.231 -1.4380 -1.6468  0.6737
   26MOL   H61016160   7.428   5.171   1.357  1.3109  1.8178 -0.8421
   26MOL   H61116161   7.602   5.102   1.511  0.5685 -0.4287  0.0556
   26MOL   H61216162   7.656   4.979   1.397  0.1986  0.4786 -3.3270
   26MOL   H61316163   7.715   5.284   1.423  0.6160  1.4489 -2.3613
   26MOL   H61416164   7.660   5.254   1.278 -1.1652 -0.3583  0.9252
   26MOL   H61516165   0.118   5.103   1.410 -3.3697  0.2977  1.9917
   26MOL   H61616166   0.060   5.074   1.243  1.5536  0.7086 -0.6901
   26MOL   H61716167   0.260   5.207   1.239 -0.2519 -1.8242  1.4873
   26MOL   H61816168   0.171   5.326   1.343  1.3547  0.0771 -0.6519
   26MOL   H61916169   0.133   5.295   1.170 -3.7526 -2.9288 -0.7302
   26MOL   H62016170   7.377   4.598   1.546  0.6857 -2.3136  2.7673
   26MOL   H62116171   7.277   4.454   1.551  5.2316 -0.7013  1.0308
   26MOL   H62216172   7.340   4.497   1.403 -1.1052 -0.2278 -0.3360
   27MOL     C116173   7.323   3.855   6.412  0.3058  0.3434 -0.4251
   27MOL     O216174   7.198   3.924   6.394 -0.0762  0.4442 -0.1690
   27MOL     C316175   7.090   3.865   6.466  0.2203 -0.6046  0.1169
   27MOL     C416176   6.957   3.946   6.471  0.1215  0.1856  0.3499
   27MOL     C516177   6.853   3.887   6.559 -0.0087  0.3463 -0.2590
   27MOL     C616178   6.726   3.977   6.560 -0.4969 -0.2578 -0.0380
   27MOL     C716179   6.617   3.921   6.666 -0.4573 -0.1291 -0.1006
   27MOL     C816180   6.483   3.992   6.662 -0.9419 -0.2417 -0.4725
   27MOL     C916181   6.478   4.128   6.741 -0.0143  0.4129  0.6045
   27MOL    C1016182   6.335   4.179   6.756  0.0923 -0.0605  0.4893
   27MOL    C1116183   7.423   3.954   6.354  0.3358 -0.1817  0.6313
   27MOL    H1216184   7.337   3.856   6.520  1.9511  2.3651 -0.6294
   27MOL    H1316185   7.131   3.840   6.564 -0.6484  0.6161  0.8157
   27MOL    H1416186   7.052   3.777   6.413 -2.0922  1.5248 -1.8686
   27MOL    H1516187   6.927   3.964   6.368 -2.5085 -0.8010  0.9218
   27MOL    H1616188   6.978   4.042   6.520  3.0669 -0.2101 -0.0285
   27MOL    H1716189   6.815   3.794   6.517 -0.3370  0.3676 -0.0042
   27MOL    H1816190   6.897   3.872   6.658  0.8349 -2.2047 -0.9834
   27MOL    H1916191   6.747   4.079   6.593 -4.3313  0.4423  0.4926
   27MOL    H2016192   6.686   3.975   6.459 -2.3067 -2.5875  0.6664
   27MOL    H2116193   6.596   3.816   6.645  1.5285 -0.2946 -1.3863
   27MOL    H2216194   6.651   3.930   6.769  1.2848  0.1895 -0.6791
   27MOL    H2316195   6.406   3.921   6.693 -0.1102 -0.8651  0.1862
   27MOL    H2416196   6.468   4.017   6.557  1.2675  1.0625 -0.5076
   27MOL    H2516197   6.514   4.108   6.842 -0.3695  0.8762  0.8256
   27MOL    H2616198   6.543   4.199   6.689 -0.0434 -0.4200 -0.5790
   27MOL    H2716199   6.298   4.224   6.664  1.7234  0.5852  0.1306
   27MOL    H2816200   6.341   4.257   6.832  1.8888  0.4680 -0.1554
   27MOL    H2916201   6.274   4.098   6.796 -2.4666  1.5954  0.0237
   27MOL    H3016202   7.393   3.960   6.250  0.8113  2.4078  0.6032
   27MOL    H3116203   7.410   4.051   6.404  3.7395 -0.3783  2.0589
   27MOL    H3216204   7.333   3.755   6.370  3.5112  0.2647  0.4277
   27MOL    C3316205   7.573   3.900   6.352  0.1330  0.0395 -0.1627
   27MOL    O3416206   7.635   3.878   6.479 -0.1730  0.3636 -0.3972
   27MOL    C3516207   7.608   3.754   6.535 -0.1396 -0.1235 -0.1169
   27MOL    C3616208   7.719   3.742   6.639  0.2058 -0.0245 -0.2940
   27MOL    C3716209   7.720   3.855   6.740 -0.4561  0.6665 -0.3492
   27MOL    C3816210   7.604   3.852   6.838 -0.5827 -0.5492 -0.7032
   27MOL    C3916211   7.627   3.977   6.928  0.1029 -0.6154 -0.4500
   27MOL    C4016212   7.536   3.969   7.049  0.0268  0.2190  0.3408
   27MOL    C4116213   7.525   4.103   7.129 -0.4388 -0.6573  0.4135
   27MOL    C4216214   7.644   4.197   7.130  0.4481 -0.4945 -0.2653
   27MOL    C4316215   7.670   3.993   6.282 -0.1001 -0.1569  0.4609
   27MOL    H4416216   7.573   3.807   6.297 -1.7295  0.6389 -1.2318
   27MOL    H4516217   7.603   3.665   6.472  0.5667 -0.4453  0.2783
   27MOL    H4616218   7.516   3.762   6.592  0.1596 -2.5861  0.7798
   27MOL    H4716219   0.039   3.755   6.586 -0.5957  0.8361 -1.5321
   27MOL    H4816220   7.719   3.647   6.692  0.7145 -0.1101 -0.4411
   27MOL    H4916221   0.044   3.847   6.787  0.2913  0.5330 -1.9111
   27MOL    H5016222   7.729   3.953   6.692  0.6940  1.6607  1.8154
   27MOL    H5116223   7.504   3.825   6.805 -0.2103  0.3519 -2.6065
   27MOL    H5216224   7.632   3.761   6.891 -2.3375 -0.8573 -0.2789
   27MOL    H5316225   7.733   3.980   6.955  0.2717  1.7260 -1.2065
   27MOL    H5416226   7.608   4.068   6.871  2.3139  0.2310  0.0745
   27MOL    H5516227   7.572   3.885   7.108  1.6951  0.9742  0.4218
   27MOL    H5616228   7.438   3.947   7.007 -0.4712 -1.1840  2.1733
   27MOL    H5716229   7.440   4.156   7.086 -1.0155 -1.2183  0.8577
   27MOL    H5816230   7.485   4.077   7.227 -0.2322 -3.3529 -0.1751
   27MOL    H5916231   7.623   4.260   7.216  1.7315 -2.6585  1.6988
   27MOL    H6016232   7.663   4.237   7.031  0.0893  2.4633  0.8347
   27MOL    H6116233   7.736   4.141   7.148  1.2688  0.2709 -2.0004
   27MOL    H6216234   7.650   4.012   6.177  0.2041  1.2535  0.6452
   27MOL    H6316235   7.667   4.092   6.327  2.2666  0.4357 -0.6313
   27MOL    C6416236   0.048   3.952   6.288 -0.3698  0.2405 -0.3793
   27MOL    O6516237   0.127   4.059   6.236  0.7324  0.0055 -0.4364
   27MOL    C6616238   0.180   4.143   6.338 -0.1459 -0.4428  0.6521
   27MOL    C6716239   0.295   4.239   6.282 -0.2012  1.2447  0.1730
   27MOL    C6816240   0.418   4.149   6.250  0.7453  0.1624 -0.2885
   27MOL    C6916241   0.533   4.236   6.200  0.2781 -0.1958  0.3792
   27MOL    C7016242   0.647   4.154   6.132 -0.2603 -0.4383  0.0440
   27MOL    C7116243   0.751   4.251   6.076 -0.0745  0.2496  0.2325
   27MOL    C7216244   0.863   4.163   6.019 -0.1829  0.1763  0.1257
   27MOL    C7316245   0.965   4.260   5.958  0.8196  0.5317 -0.3616
   27MOL    C7416246   0.069   3.829   6.199  0.3075 -0.7398  0.2952
   27MOL    H7516247   0.072   3.919   6.389 -1.2498  1.0265  0.0995
   27MOL    H7616248   0.218   4.086   6.422  0.5213  0.5204  1.0149
   27MOL    H7716249   0.095   4.196   6.381  0.1087 -0.0179  0.6362
   27MOL    H7816250   0.332   4.318   6.347 -0.8080  1.1500  0.6371
   27MOL    H7916251   0.251   4.295   6.199  1.7174 -1.3659 -2.7270
   27MOL    H8016252   0.439   4.097   6.343 -3.0464  0.7267  0.9720
   27MOL    H8116253   0.391   4.084   6.167  0.3627 -0.6508  0.4728
   27MOL    H8216254   0.506   4.299   6.115  1.7167  0.6513  0.5334
   27MOL    H8316255   0.582   4.294   6.278 -1.2023 -0.8849  1.8575
   27MOL    H8416256   0.694   4.101   6.215 -0.1336 -0.6896 -0.1870
   27MOL    H8516257   0.609   4.081   6.061  0.1500 -1.3637  0.7608
   27MOL    H8616258   0.785   4.304   6.165  0.5469 -0.5517  0.4788
   27MOL    H8716259   0.712   4.306   5.990 -1.7176 -0.6219  0.4012
   27MOL    H8816260   0.911   4.098   6.092  0.9970  0.8838 -0.0247
   27MOL    H8916261   0.820   4.095   5.945 -0.0289  0.1925  0.0206
   27MOL    H9016262   1.003   4.328   6.034  0.7473 -0.6182  0.7156
   27MOL    H9116263   0.924   4.316   5.874 -1.5731 -2.9628 -1.6581
   27MOL    H9216264   1.049   4.202   5.919  0.2169 -2.7316  2.9292
   27MOL    H9316265   0.006   3.743   6.223 -1.7713 -0.2270 -2.8999
   27MOL    H9416266   0.030   3.865   6.104 -1.7668 -0.3713  1.2505
   27MOL    C9516267   0.209   3.775   6.201  0.1647 -0.0721  0.0403
   27MOL    O9616268   0.207   3.664   6.110  0.4409  0.2063  0.0022
   27MOL    C9716269   0.235   3.694   5.968  0.3074  0.4912  0.1286
   27MOL    C9816270   0.215   3.557   5.901 -0.2093  0.1616 -0.0358
   27MOL    C9916271   0.334   3.463   5.908  0.3635  0.6184 -0.1211
   27MOL   C10016272   0.315   3.347   6.004 -0.0673 -0.2975 -0.0276
   27MOL   C10116273   0.455   3.277   6.033 -0.7613  0.5066 -0.6504
   27MOL   C10216274   0.439   3.146   6.103 -0.4316  0.5833  0.6164
   27MOL   C10316275   0.568   3.065   6.096  1.0333  0.0073  0.4185
   27MOL   C10416276   0.571   2.952   6.199 -0.5548 -0.1365  0.3117
   27MOL   C10516277   0.264   3.719   6.322  0.1224  0.2424 -0.2429
   27MOL   H10616278   0.268   3.857   6.160  1.9246 -1.7826 -0.9529
   27MOL   H10716279   0.335   3.733   5.945  1.7408 -2.2576  1.3901
   27MOL   H10816280   0.163   3.768   5.934  0.4979  0.7391  0.2629
   27MOL   H10916281   0.191   3.575   5.796 -1.2152  0.8033  0.2931
   27MOL   H11016282   0.120   3.506   5.922  1.4792 -5.3138 -4.4175
   27MOL   H11116283   0.347   3.408   5.815  1.3937  0.0393  0.3653
   27MOL   H11216284   0.430   3.513   5.913  0.9876 -0.5517 -0.3843
   27MOL   H11316285   0.261   3.376   6.094  1.1393  0.8887  0.3417
   27MOL   H11416286   0.259   3.276   5.944  1.9614 -2.3058  0.3601
   27MOL   H11516287   0.505   3.263   5.937  0.2859  1.1959 -0.2096
   27MOL   H11616288   0.519   3.346   6.087 -1.4255  0.2863  0.4461
   27MOL   H11716289   0.363   3.083   6.057  0.5576 -0.1875  0.0065
   27MOL   H11816290   0.413   3.160   6.208  1.5003 -0.1397  1.2035
   27MOL   H11916291   0.579   3.031   5.993 -0.4739  0.2372  0.1758
   27MOL   H12016292   0.648   3.139   6.108  0.5560  0.3735  1.4552
   27MOL   H12116293   0.560   3.009   6.291  0.5350  1.2485 -0.3973
   27MOL   H12216294   0.673   2.913   6.194 -0.2366  0.8150 -0.5852
   27MOL   H12316295   0.497   2.872   6.193 -0.8916  0.2354 -0.5711
   27MOL   H12416296   0.257   3.781   6.411 -0.7470 -1.0330  0.5989
   27MOL   H12516297   0.206   3.632   6.353  0.5685  1.1977  3.4567
   27MOL   C12616298   0.415   3.670   6.311 -0.0470  0.2889 -0.0664
   27MOL   O12716299   0.458   3.590   6.419  0.6387  0.7056 -0.2956
   27MOL   C12816300   0.430   3.448   6.402 -0.4273 -0.6560  0.3621
   27MOL   C12916301   0.468   3.379   6.536  0.3296  1.2127  0.1286
   27MOL   C13016302   0.618   3.387   6.564 -0.8009 -0.2542 -1.1617
   27MOL   C13116303   0.687   3.274   6.488 -0.7167  0.3341 -0.1370
   27MOL   C13216304   0.840   3.296   6.487  0.1215  0.0290 -0.4535
   27MOL   C13316305   0.903   3.190   6.390 -0.3264  0.4943  0.1111
   27MOL   C13416306   0.884   3.039   6.434  0.2004 -0.2776  0.3152
   27MOL   C13516307   0.979   2.951   6.354 -0.3679  0.0691  0.4409
   27MOL   C13616308   0.514   3.793   6.299 -0.4142  0.1463  0.0546
   27MOL   H13716309   0.423   3.618   6.216  1.8139  1.0044 -0.3277
   27MOL   H13816310   0.481   3.409   6.314 -0.3063  0.1448  0.0716
   27MOL   H13916311   0.324   3.445   6.381  0.3477 -1.3760 -3.8198
   27MOL   H14016312   0.435   3.276   6.518 -1.0145  1.5064  0.8201
   27MOL   H14116313   0.410   3.419   6.618  0.5054  2.3128 -0.2764
   27MOL   H14216314   0.660   3.484   6.538  1.9374 -0.1724  3.0355
   27MOL   H14316315   0.638   3.361   6.668 -0.5835 -1.2531 -1.4425
   27MOL   H14416316   0.667   3.181   6.540  0.4087  0.1512 -0.0202
   27MOL   H14516317   0.653   3.267   6.385 -1.5262  0.9877  0.0728
   27MOL   H14616318   0.867   3.400   6.467 -0.5242 -0.3723 -3.7001
   27MOL   H14716319   0.886   3.284   6.585  1.4247 -2.0708 -1.2741
   27MOL   H14816320   1.008   3.217   6.380 -0.4817  0.7906 -0.7543
   27MOL   H14916321   0.855   3.207   6.294 -0.4571 -0.9989 -0.0990
   27MOL   H15016322   0.921   3.036   6.536 -0.7743  2.4542  0.7749
   27MOL   H15116323   0.785   2.996   6.420  0.4984 -0.4206 -1.5200
   27MOL   H15216324   0.991   2.859   6.410 -1.3681 -0.5184 -0.2948
   27MOL   H15316325   1.076   2.999   6.336  0.2681 -0.2534  2.7415
   27MOL   H15416326   0.937   2.937   6.255  1.4583  1.5477 -0.5924
   27MOL   H15516327   0.483   3.876   6.235  0.6147 -0.2223 -0.9485
   27MOL   H15616328   0.500   3.842   6.396 -3.8715  1.5877 -1.0760
   27MOL   C15716329   0.656   3.748   6.269 -0.3001  0.1780 -0.1401
   27MOL   O15816330   0.743   3.846   6.309 -0.2946  0.3349 -0.7045
   27MOL   C15916331   0.824   3.815   6.423 -0.2840  0.0064  0.5697
   27MOL   C16016332   0.911   3.940   6.462  0.3861 -0.0722  0.1858
   27MOL   C16116333   1.019   3.900   6.568  0.2676 -0.7163  0.2274
   27MOL   C16216334   1.096   4.020   6.619  0.5892 -0.8602  0.0395
   27MOL   C16316335   1.216   3.982   6.711  0.5603  0.6032 -0.0635
   27MOL   C16416336   1.301   4.109   6.743  0.0208  0.4044  0.6032
   27MOL   C16516337   1.399   4.074   6.853 -0.1857 -0.1319  0.2201
   27MOL   C16616338   1.503   4.178   6.869  0.2370  0.1060 -0.0630
   27MOL   C16716339   0.680   3.720   6.122  0.6797  0.1381 -0.3543
   27MOL   H16816340   0.676   3.651   6.315 -0.4608  0.3671  0.3376
   27MOL   H16916341   0.883   3.732   6.385 -0.4716 -0.1004  0.5129
   27MOL   H17016342   0.759   3.780   6.503 -0.9198  0.3783  0.2211
   27MOL   H17116343   0.850   4.026   6.488  1.7244  1.1467 -0.6085
   27MOL   H17216344   0.973   3.979   6.381  0.7599  0.5954  0.7826
   27MOL   H17316345   0.983   3.850   6.657  3.2183 -1.3768  1.1182
   27MOL   H17416346   1.086   3.827   6.523  1.9631 -0.8334  2.8754
   27MOL   H17516347   1.128   4.093   6.544 -1.0413  0.4783  0.6210
   27MOL   H17616348   1.023   4.079   6.673  1.1302  0.4874 -0.6630
   27MOL   H17716349   1.187   3.943   6.809 -0.3039  0.1400 -0.5082
   27MOL   H17816350   1.282   3.902   6.678  0.6160  1.7506 -2.8855
   27MOL   H17916351   1.233   4.186   6.780 -0.6648  0.2215 -0.2870
   27MOL   H18016352   1.348   4.144   6.651 -0.7339 -3.2418 -1.2362
   27MOL   H18116353   1.349   4.074   6.950  3.0389  0.5319  1.9408
   27MOL   H18216354   1.444   3.976   6.835  1.4603  0.5929  0.3748
   27MOL   H18316355   1.452   4.272   6.889 -1.6212 -0.2686 -2.7432
   27MOL   H18416356   1.570   4.181   6.783 -0.0818 -0.9570 -0.3578
   27MOL   H18516357   1.568   4.143   6.949 -1.3212 -0.9257  0.7728
   27MOL   H18616358   0.602   3.659   6.074 -0.0007 -0.7500  1.8361
   27MOL   H18716359   0.674   3.822   6.083 -3.0414  0.9679  2.0732
   27MOL   C18816360   0.803   3.643   6.066  0.3586 -0.0752 -0.0430
   27MOL   O18916361   0.805   3.679   5.922 -0.2188  0.4615 -1.1882
   27MOL   C19016362   0.862   3.809   5.892 -0.6666 -0.3352 -0.5189
   27MOL   C19116363   1.007   3.785   5.853 -0.2757  0.2681  0.4657
   27MOL   C19216364   1.025   3.714   5.723  0.3954 -0.2121  0.4838
   27MOL   C19316365   1.174   3.689   5.682 -0.7211  0.9770  0.1770
   27MOL   C19416366   1.247   3.820   5.629 -1.1839 -0.5084  0.3943
   27MOL   C19516367   1.354   3.777   5.526 -0.0962  0.2256  0.1820
   27MOL   C19616368   1.457   3.889   5.520 -1.4366  0.2132 -0.5276
   27MOL   C19716369   1.549   3.867   5.401  1.0416  0.5437 -0.4207
   27MOL   C19816370   0.814   3.492   6.094 -0.0196  0.3789  0.4598
   27MOL   H19916371   0.891   3.690   6.110  0.6672  0.8471 -1.6418
   27MOL   H20016372   0.799   3.858   5.818 -1.5158  0.1019  0.4824
   27MOL   H20116373   0.869   3.878   5.976 -0.7022  0.4150 -1.1334
   27MOL   H20216374   1.049   3.719   5.929 -2.0034 -0.3629  0.8977
   27MOL   H20316375   1.068   3.875   5.856 -0.1638  0.3038 -1.9429
   27MOL   H20416376   0.983   3.614   5.739  0.7037 -0.9015 -2.6846
   27MOL   H20516377   0.974   3.765   5.642  0.9294  2.1948  1.6434
   27MOL   H20616378   1.234   3.631   5.753  0.7881  2.0297 -0.2268
   27MOL   H20716379   1.168   3.626   5.594  0.0884 -1.5233  1.8542
   27MOL   H20816380   1.174   3.893   5.596  1.2005  0.6414 -2.5215
   27MOL   H20916381   1.299   3.868   5.713  1.1724 -1.9340 -0.1954
   27MOL   H21016382   1.306   3.755   5.431  0.2442  0.1959  0.0143
   27MOL   H21116383   1.408   3.685   5.549  1.1515  1.1056  0.8703
   27MOL   H21216384   1.410   3.986   5.507 -0.7353  0.8016  1.1814
   27MOL   H21316385   1.505   3.900   5.617 -1.6053  0.2669 -0.4497
   27MOL   H21416386   1.584   3.765   5.390 -0.8270 -0.1694  0.0982
   27MOL   H21516387   1.629   3.942   5.404 -0.5106  2.3204 -2.0447
   27MOL   H21616388   1.499   3.882   5.305  0.5006 -0.7995 -0.3498
   27MOL   H21716389   0.788   3.466   6.197  0.0548  0.6457  0.5461
   27MOL   H21816390   0.731   3.444   6.041 -0.8233  0.0214  1.9878
   27MOL   C21916391   0.956   3.434   6.059 -0.5960 -0.1716 -0.6041
   27MOL   O22016392   0.936   3.298   6.049  0.3635 -0.5713 -0.3200
   27MOL   C22116393   0.934   3.254   5.912  0.2708 -0.6438 -0.4080
   27MOL   C22216394   0.936   3.101   5.903 -0.6475  0.0641  0.8350
   27MOL   C22316395   1.045   3.036   5.990 -0.3226  0.8452 -0.5577
   27MOL   C22416396   1.044   2.882   5.978  0.4327  0.3955 -0.6276
   27MOL   C22516397   0.906   2.816   6.007  0.0757 -0.1973  0.0740
   27MOL   C22616398   0.918   2.662   6.018 -0.7158  0.8886 -0.4787
   27MOL   C22716399   0.776   2.598   6.017 -0.4544  0.3362 -0.3022
   27MOL   C22816400   0.757   2.486   6.120  0.4540  0.4079 -0.4035
   27MOL   C22916401   1.061   3.467   6.168 -0.2427  0.5286  0.2947
   27MOL   H23016402   0.999   3.481   5.970  1.8330  0.0344  0.6580
   27MOL   H23116403   1.030   3.287   5.872  0.3094  0.9294  0.9254
   27MOL   H23216404   0.852   3.304   5.860  1.5568  0.6271 -1.2607
   27MOL   H23316405   0.935   3.065   5.800  1.3140 -0.2413  0.9012
   27MOL   H23416406   0.840   3.066   5.942 -0.9663 -0.1307 -0.1131
   27MOL   H23516407   1.143   3.064   5.952 -0.7650  1.4813 -1.2673
   27MOL   H23616408   1.029   3.070   6.092  2.3256 -0.6542  0.3965
   27MOL   H23716409   1.076   2.856   5.878 -0.3902  1.0807 -1.0797
   27MOL   H23816410   1.119   2.835   6.041  1.8677  1.5531 -1.4507
   27MOL   H23916411   0.855   2.862   6.092  3.0703  0.5630  1.5409
   27MOL   H24016412   0.838   2.832   5.923  1.0310  1.4689 -0.4013
   27MOL   H24116413   0.971   2.641   6.111 -0.4997  1.3335 -0.4970
   27MOL   H24216414   0.963   2.628   5.924  0.5183  0.1787  0.3527
   27MOL   H24316415   0.708   2.677   6.049  0.8122  0.4815  2.1997
   27MOL   H24416416   0.761   2.556   5.918  1.8842  0.4926 -0.7441
   27MOL   H24516417   0.795   2.506   6.220 -0.6174 -1.2864  0.3734
   27MOL   H24616418   0.810   2.401   6.076 -3.7447 -1.9071 -1.2649
   27MOL   H24716419   0.651   2.463   6.135  0.5233 -0.2575 -0.8975
   27MOL   H24816420   1.084   3.574   6.179 -0.3914  0.6357 -0.3978
   27MOL   H24916421   1.017   3.435   6.262 -0.3669 -1.0968 -0.3060
   27MOL   C25016422   1.198   3.396   6.145  0.7455  0.5806 -0.4086
   27MOL   O25116423   1.284   3.452   6.250 -0.0750  0.0187  0.2708
   27MOL   C25216424   1.291   3.375   6.365 -0.2402  0.0962 -0.0350
   27MOL   C25316425   1.379   3.449   6.471 -0.4095  0.3799  0.0124
   27MOL   C25416426   1.298   3.553   6.545 -0.2079 -1.0887  0.3139
   27MOL   C25516427   1.374   3.607   6.663  0.2876  0.8497  0.5756
   27MOL   C25616428   1.290   3.639   6.775 -0.3031 -0.2298 -0.6505
   27MOL   C25716429   1.359   3.694   6.897 -0.1344 -0.0528  0.3458
   27MOL   C25816430   1.261   3.706   7.011  0.3348 -0.2271  0.0843
   27MOL   C25916431   1.311   3.801   7.124 -0.8830  0.1228  0.8150
   27MOL   C26016432   1.258   3.447   6.018  0.2236 -0.1353 -0.1794
   27MOL   H26116433   1.179   3.289   6.156 -1.6127  1.0305  0.2626
   27MOL   H26216434   1.335   3.276   6.348  0.8162  0.3775  0.9736
   27MOL   H26316435   1.192   3.347   6.399 -0.9228  0.8464 -1.3697
   27MOL   H26416436   1.474   3.478   6.425 -0.4732 -1.6389 -1.4835
   27MOL   H26516437   1.394   3.370   6.545 -1.4209  1.2110  1.1178
   27MOL   H26616438   1.279   3.638   6.480  1.9901 -0.1382  0.8745
   27MOL   H26716439   1.202   3.503   6.561 -0.3792 -0.0662  2.6444
   27MOL   H26816440   1.439   3.527   6.697 -0.6636 -0.5877 -0.8842
   27MOL   H26916441   1.449   3.681   6.634 -0.0045  1.1864  0.6674
   27MOL   H27016442   1.207   3.703   6.744  0.6875 -0.1520 -3.3193
   27MOL   H27116443   1.232   3.552   6.805  0.4924 -0.7958 -0.7382
   27MOL   H27216444   1.422   3.780   6.876  1.1751 -1.2269 -0.6846
   27MOL   H27316445   1.443   3.629   6.923  1.2386  0.1439 -3.3822
   27MOL   H27416446   1.166   3.746   6.975 -0.5576 -1.2288  1.3279
   27MOL   H27516447   1.256   3.609   7.059  0.6694 -0.5008 -0.4359
   27MOL   H27616448   1.263   3.801   7.223 -1.5428 -2.1202  0.5160
   27MOL   H27716449   1.304   3.903   7.085  0.1465 -0.3699 -0.6596
   27MOL   H27816450   1.417   3.778   7.132 -0.6956  0.8489  0.4957
   27MOL   H27916451   1.196   3.440   5.929 -1.6787  1.8857  0.9460
   27MOL   H28016452   1.249   3.554   6.034  1.4819 -0.0453 -0.0518
   27MOL   C28116453   1.410   3.417   5.991 -0.1537 -0.0367  0.5136
   27MOL   O28216454   1.459   3.493   5.886 -0.4628 -0.2262 -0.5551
   27MOL   C28316455   1.567   3.584   5.928 -0.5093 -0.3778 -1.0413
   27MOL   C28416456   1.626   3.660   5.805  0.2225  0.0228 -0.7684
   27MOL   C28516457   1.705   3.560   5.713 -0.5192 -0.3741  0.8621
   27MOL   C28616458   1.771   3.637   5.593 -0.1204  0.0326  0.3737
   27MOL   C28716459   1.849   3.550   5.495 -0.2599 -0.5451  0.2581
   27MOL   C28816460   1.917   3.612   5.377 -0.1442 -0.8815  0.6902
   27MOL   C28916461   2.023   3.721   5.401  0.0327  0.2032 -0.3608
   27MOL   C29016462   2.159   3.673   5.441  0.3425 -0.2228  0.5272
   27MOL   C29116463   1.439   3.267   5.972  0.0797  0.4111  0.4898
   27MOL   H29216464   1.460   3.455   6.080  0.4233  2.1237 -0.6936
   27MOL   H29316465   1.650   3.522   5.963 -1.4180 -1.2315 -0.3799
   27MOL   H29416466   1.528   3.651   6.006  1.8074  0.0675 -0.2012
   27MOL   H29516467   1.705   3.730   5.831 -0.7084  0.8174 -0.0482
   27MOL   H29616468   1.545   3.706   5.747  0.8216  0.4774 -1.2483
   27MOL   H29716469   1.786   3.514   5.770  0.1031 -0.6667 -0.2403
   27MOL   H29816470   1.647   3.474   5.681 -0.6083  0.2042 -0.5428
   27MOL   H29916471   1.683   3.677   5.543  0.2133 -0.8843 -0.9815
   27MOL   H30016472   1.826   3.725   5.627 -0.0172  0.2815 -0.4383
   27MOL   H30116473   1.916   3.477   5.540  0.9554 -0.6651 -1.6797
   27MOL   H30216474   1.779   3.474   5.461 -0.7219 -1.2355  2.6739
   27MOL   H30316475   1.831   3.656   5.327  0.0485  0.3963  1.4616
   27MOL   H30416476   1.960   3.533   5.314  0.8293  0.9575 -1.0006
   27MOL   H30516477   2.027   3.788   5.316 -1.3879 -0.6549 -1.1154
   27MOL   H30616478   1.984   3.783   5.481  1.5296  0.2869  0.3282
   27MOL   H30716479   2.236   3.746   5.465 -0.2631  0.7251 -0.3508
   27MOL   H30816480   2.202   3.603   5.370  0.0119  1.1865 -1.1041
   27MOL   H30916481   2.135   3.620   5.533 -0.9485  0.2900  0.4943
   27MOL   H31016482   1.375   3.207   6.036  1.3539 -1.0612  0.4116
   27MOL   H31116483   1.421   3.253   5.866 -2.2102  0.5242  0.8423
   27MOL   C31216484   1.586   3.227   6.005 -0.6440 -0.2060  0.7756
   27MOL   O31316485   1.603   3.102   5.933 -0.1061  0.4852 -0.2909
   27MOL   C31416486   1.733   3.049   5.908 -0.0065  1.0515  0.2743
   27MOL   C31516487   1.708   2.897   5.877  0.0310 -0.2015  0.5395
   27MOL   C31616488   1.846   2.815   5.890 -0.2765 -0.2804  0.5243
   27MOL   C31716489   1.821   2.663   5.871 -0.0249 -0.5311 -0.0003
   27MOL   C31816490   1.953   2.581   5.850  0.0665  0.4584  0.2753
   27MOL   C31916491   1.936   2.433   5.881  0.0215  0.3957  0.0698
   27MOL   C32016492   2.055   2.343   5.844 -0.1009  0.0142  0.2958
   27MOL   C32116493   2.030   2.188   5.850 -0.3202  0.2063  0.3692
   27MOL   C32216494   1.609   3.202   6.154  0.6865  0.0616 -0.0523
   27MOL   H32316495   1.662   3.297   5.969 -1.6062 -1.7128 -4.7749
   27MOL   H32416496   1.792   3.066   5.998 -0.2011 -1.0991  0.8255
   27MOL   H32516497   1.777   3.100   5.822  1.3598  0.1793  0.4375
   27MOL   H32616498   1.667   2.881   5.777  0.5621 -2.9864  0.7300
   27MOL   H32716499   1.650   2.850   5.956  0.6091 -1.5594  0.1673
   27MOL   H32816500   1.919   2.852   5.818 -0.8727 -1.2565 -0.5962
   27MOL   H32916501   1.902   2.829   5.983  0.6125 -3.3949  0.5278
   27MOL   H33016502   1.769   2.619   5.956  0.0299 -0.2813  0.1608
   27MOL   H33116503   1.749   2.648   5.790 -1.5354  0.4125  1.1590
   27MOL   H33216504   1.980   2.590   5.745  1.0977  1.4368  0.6192
   27MOL   H33316505   2.030   2.617   5.919  1.6111  2.2569 -2.3269
   27MOL   H33416506   1.848   2.394   5.829  0.6654 -1.3554  0.2602
   27MOL   H33516507   1.914   2.419   5.987 -0.3599 -2.6058 -0.3503
   27MOL   H33616508   2.076   2.356   5.738 -2.1161 -0.9673 -0.2422
   27MOL   H33716509   2.141   2.378   5.902  2.3427 -2.0525 -1.9178
   27MOL   H33816510   1.949   2.178   5.777  0.4205 -0.6393 -0.3512
   27MOL   H33916511   1.997   2.147   5.945  0.1880  0.1728  0.5321
   27MOL   H34016512   2.116   2.132   5.813 -1.3916 -0.4808 -1.1303
   27MOL   H34116513   1.521   3.200   6.218  0.9037  0.5281  0.2687
   27MOL   H34216514   1.636   3.097   6.161 -0.2168 -0.1628  0.1439
   27MOL   C34316515   1.721   3.276   6.226  0.0036  0.2658 -0.0429
   27MOL   O34416516   1.842   3.242   6.162 -0.2964  0.2506  0.9438
   27MOL   C34516517   1.919   3.349   6.113 -0.5290  0.6213 -0.0883
   27MOL   C34616518   2.033   3.286   6.018  0.3261 -0.0549 -0.1030
   27MOL   C34716519   2.134   3.384   5.971 -0.4482 -0.7225 -0.0418
   27MOL   C34816520   2.247   3.334   5.885 -0.9124 -0.4769  0.2741
   27MOL   C34916521   2.331   3.445   5.810  0.6374  0.3420 -0.6829
   27MOL   C35016522   2.397   3.401   5.681  0.3057  0.2226 -0.1461
   27MOL   C35116523   2.508   3.493   5.628  0.5000  0.0648 -0.1381
   27MOL   C35216524   2.576   3.431   5.505 -1.0199 -0.1539  0.3115
   27MOL   C35316525   1.717   3.237   6.372 -0.1921  0.5084  0.4667
   27MOL   H35416526   1.701   3.383   6.227 -0.6447  0.1436  0.3709
   27MOL   H35516527   1.963   3.413   6.190  2.0859  0.8993 -1.7623
   27MOL   H35616528   1.858   3.417   6.054 -0.8351  0.6623  0.2725
   27MOL   H35716529   1.999   3.219   5.939  1.7310 -0.2424 -0.5623
   27MOL   H35816530   2.093   3.228   6.089  0.1600 -1.2491 -0.9274
   27MOL   H35916531   2.080   3.458   5.912  0.1938 -1.2925 -1.3704
   27MOL   H36016532   2.176   3.429   6.061 -2.0164 -2.9004  1.8525
   27MOL   H36116533   2.312   3.276   5.951 -1.7060 -2.6364 -0.7853
   27MOL   H36216534   2.224   3.250   5.819 -0.1083  1.5027 -2.6133
   27MOL   H36316535   2.263   3.526   5.784 -3.1225 -1.8961  1.7859
   27MOL   H36416536   2.404   3.477   5.885 -0.9462 -2.7464  2.3296
   27MOL   H36516537   2.314   3.385   5.612 -0.8980  0.8415  1.1342
   27MOL   H36616538   2.437   3.300   5.695  1.8665  0.5162 -2.3001
   27MOL   H36716539   2.453   3.581   5.596 -1.0838 -1.0630 -0.5758
   27MOL   H36816540   2.582   3.528   5.700  1.1761 -0.0226 -0.7771
   27MOL   H36916541   2.647   3.496   5.454 -1.1650  0.0800  0.4032
   27MOL   H37016542   2.491   3.411   5.439 -2.1276  3.2422  0.5994
   27MOL   H37116543   2.625   3.336   5.526  0.2781  0.5763  0.6114
   27MOL   H37216544   1.615   3.229   6.410 -0.0409 -1.5480  0.4875
   27MOL   H37316545   1.752   3.134   6.380 -0.4398  0.3220 -0.7906
   27MOL   C37416546   1.803   3.320   6.469 -0.5809  0.1259  0.2522
   27MOL   O37516547   1.797   3.258   6.598 -0.4409  0.2254 -0.3954
   27MOL   C37616548   1.894   3.158   6.618 -0.2636  0.5501 -0.3299
   27MOL   C37716549   1.857   3.090   6.760  0.3012 -0.1665 -0.0470
   27MOL   C37816550   1.716   3.020   6.768  0.2935 -0.5913 -0.2925
   27MOL   C37916551   1.687   2.964   6.902 -0.5590  0.1120  0.0193
   27MOL   C38016552   1.551   2.889   6.910 -0.1976 -0.0767 -0.4371
   27MOL   C38116553   1.543   2.807   7.038  0.5714 -0.4183 -0.3657
   27MOL   C38216554   1.445   2.695   7.035  0.1875  0.1402 -0.1966
   27MOL   C38316555   1.410   2.647   7.172  0.0020  0.1993  0.7642
   27MOL   C38416556   1.751   3.468   6.490  0.0007 -0.2732  0.3935
   27MOL   H38516557   1.907   3.334   6.441  0.0489 -0.4946  2.2226
   27MOL   H38616558   1.997   3.190   6.633  0.3278 -1.3687 -0.1465
   27MOL   H38716559   1.893   3.076   6.547  1.3669 -0.5428  0.8698
   27MOL   H38816560   1.854   3.160   6.844 -0.6163 -0.6605  0.3309
   27MOL   H38916561   1.935   3.017   6.783 -0.2336 -0.8695 -0.4560
   27MOL   H39016562   1.634   3.085   6.738  1.9889  1.6795 -0.1844
   27MOL   H39116563   1.716   2.938   6.696 -0.5548 -0.5437 -0.3448
   27MOL   H39216564   1.769   2.903   6.939 -0.1994  0.5142 -0.1122
   27MOL   H39316565   1.680   3.054   6.962  0.1074 -0.1547  0.5074
   27MOL   H39416566   1.470   2.961   6.907 -0.8849 -0.8669 -0.8194
   27MOL   H39516567   1.538   2.823   6.825  0.7114 -0.3524 -0.3655
   27MOL   H39616568   1.502   2.873   7.115  0.9499  0.8499 -1.2420
   27MOL   H39716569   1.634   2.762   7.077  0.1901 -0.2231  0.7748
   27MOL   H39816570   1.351   2.724   6.988  0.5145  0.0740 -0.8992
   27MOL   H39916571   1.466   2.611   6.969 -0.4486  1.4855 -2.1591
   27MOL   H40016572   1.493   2.633   7.241 -0.9086 -1.1837  1.5994
   27MOL   H40116573   1.368   2.546   7.174 -0.0424  0.2380  2.3365
   27MOL   H40216574   1.346   2.720   7.220  0.3522  1.1203 -0.1614
   27MOL   H40316575   1.703   3.502   6.398  1.8223 -1.5404 -1.0518
   27MOL   H40416576   1.662   3.477   6.553 -2.0804  1.2747 -2.6382
   27MOL   C40516577   1.858   3.567   6.538  0.2345  0.5902  0.0137
   27MOL   O40616578   1.972   3.543   6.458 -0.1358 -0.0034  0.0871
   27MOL   C40716579   2.060   3.652   6.445 -0.7179  0.0148  0.8975
   27MOL   C40816580   2.190   3.597   6.375 -0.2687 -0.2232  0.7467
   27MOL   C40916581   2.249   3.477   6.445 -0.1312  0.0395  0.0235
   27MOL   C41016582   2.385   3.419   6.385  0.0706 -0.3199 -0.5705
   27MOL   C41116583   2.504   3.514   6.400  0.2951 -0.1712 -0.5707
   27MOL   C41216584   2.611   3.477   6.299  0.7681  0.0508  0.4189
   27MOL   C41316585   2.740   3.561   6.319 -0.5966 -0.1821 -0.3737
   27MOL   C41416586   2.852   3.516   6.224 -0.2245  0.3264  0.1698
   27MOL   C41516587   1.875   3.561   6.687 -0.0612  0.4358  0.3188
   27MOL   H41616588   1.829   3.666   6.501 -0.6876  0.1324 -0.4955
   27MOL   H41716589   2.093   3.689   6.542 -0.8986 -0.8560  1.2960
   27MOL   H41816590   2.012   3.734   6.391  0.8330 -1.1079 -2.3425
   27MOL   H41916591   2.259   3.680   6.392  0.2608 -0.9719  2.3331
   27MOL   H42016592   2.172   3.578   6.270 -0.9741  0.1943  0.7863
   27MOL   H42116593   2.259   3.501   6.550  1.3248  0.4990 -0.2062
   27MOL   H42216594   2.173   3.399   6.437  1.4912 -1.6056  0.2515
   27MOL   H42316595   2.405   3.318   6.421 -1.7942 -0.7904 -0.8195
   27MOL   H42416596   2.377   3.407   6.277  0.9610  0.2689 -0.7099
   27MOL   H42516597   2.489   3.622   6.402  3.6884  0.3339 -0.1176
   27MOL   H42616598   2.548   3.490   6.497  2.2931  0.6674 -1.2461
   27MOL   H42716599   2.583   3.482   6.194  2.8824 -0.6572 -0.2144
   27MOL   H42816600   2.639   3.374   6.321 -1.1571 -0.4999  0.3588
   27MOL   H42916601   2.722   3.668   6.309  0.9987  0.2064  0.7817
   27MOL   H43016602   2.783   3.551   6.419  2.7985 -1.8205 -1.9523
   27MOL   H43116603   2.948   3.561   6.250  0.8694 -1.2829 -0.9612
   27MOL   H43216604   2.834   3.537   6.118 -1.0662  1.1460  0.4701
   27MOL   H43316605   2.864   3.408   6.222 -1.4807  0.1817 -1.5603
   27MOL   H43416606   1.887   3.457   6.720 -2.0989 -0.2470 -0.9921
   27MOL   H43516607   1.976   3.593   6.711  0.7875 -0.9106 -1.3603
   27MOL   C43616608   1.773   3.648   6.766  0.0394 -0.1148  0.1847
   27MOL   O43716609   1.829   3.779   6.758  0.0683  0.0652  0.1401
   27MOL   C43816610   1.741   3.879   6.700  0.0334  0.1723 -0.2353
   27MOL   C43916611   1.810   4.005   6.653 -0.4918  0.3427  0.0519
   27MOL   C44016612   1.911   3.981   6.537  0.3883  0.0910 -0.1386
   27MOL   C44116613   1.997   4.105   6.509  0.1378 -0.0408  0.3021
   27MOL   C44216614   2.090   4.082   6.387 -0.1128  0.1965  0.1623
   27MOL   C44316615   2.144   4.206   6.330 -0.4156 -0.9025  0.3675
   27MOL   C44416616   2.231   4.190   6.204  0.3690 -0.9359  0.2544
   27MOL   C44516617   2.366   4.127   6.238  0.2020  0.0333  0.1159
   27MOL   C44616618   1.769   3.611   6.913  0.6241  0.0036 -0.6278
   27MOL   H44716619   1.673   3.644   6.722 -0.0673 -2.0626  0.5230
   27MOL   H44816620   1.685   3.836   6.618 -0.5337 -0.0523  0.2675
   27MOL   H44916621   1.659   3.899   6.769 -0.1021 -0.0698 -0.3267
   27MOL   H45016622   1.859   4.064   6.731  1.7111 -1.6866  0.2579
   27MOL   H45116623   1.732   4.071   6.614 -1.7739  0.2860  2.4422
   27MOL   H45216624   1.963   3.886   6.544  0.3090  0.0125 -0.5812
   27MOL   H45316625   1.845   3.954   6.455  1.4162  0.3050 -1.0520
   27MOL   H45416626   1.936   4.193   6.492 -0.7571 -0.0656  3.2621
   27MOL   H45516627   2.047   4.149   6.595 -2.2508  1.9399  0.7203
   27MOL   H45616628   2.173   4.019   6.417 -1.5766 -1.8871 -0.0391
   27MOL   H45716629   2.030   4.026   6.316 -1.6192  1.8486  0.0921
   27MOL   H45816630   2.204   4.268   6.397  0.4780 -0.4554 -0.8102
   27MOL   H45916631   2.058   4.271   6.312  0.6619  0.5735  0.3687
   27MOL   H46016632   2.178   4.130   6.130  1.2840  0.2303 -1.4001
   27MOL   H46116633   2.236   4.291   6.161  2.1674  0.5366  3.7570
   27MOL   H46216634   2.407   4.167   6.331  0.4387  0.5738 -0.2176
   27MOL   H46316635   2.437   4.162   6.164  1.0886 -0.9817  0.4864
   27MOL   H46416636   2.363   4.019   6.247 -2.8013  0.0726  0.2275
   27MOL   H46516637   1.861   3.641   6.963 -1.0529  0.2732  2.4450
   27MOL   H46616638   1.693   3.666   6.968  1.3601 -0.5652  1.0100
   27MOL   C46716639   1.725   3.472   6.950  0.1087  0.4333  0.4538
   27MOL   O46816640   1.593   3.458   6.887  0.1831 -0.2597  0.1857
   27MOL   C46916641   1.574   3.323   6.864  0.2517 -0.2289 -0.8911
   27MOL   C47016642   1.426   3.297   6.869  0.7399  0.1338  0.5589
   27MOL   C47116643   1.369   3.301   7.013 -0.6814 -0.4945  0.6759
   27MOL   C47216644   1.220   3.256   7.039  0.1625  0.2408 -0.1131
   27MOL   C47316645   1.201   3.105   7.024  0.1956 -0.5158  0.1567
   27MOL   C47416646   1.065   3.053   7.060  0.4740  0.0530  0.0070
   27MOL   C47516647   1.059   2.900   7.070 -0.1721  0.1119 -0.7141
   27MOL   C47616648   0.925   2.840   7.113  0.3550 -0.4506  0.7184
   27MOL   C47716649   1.714   3.464   7.104 -0.0577  0.2588  0.4451
   27MOL   H47816650   1.807   3.406   6.920  1.1490  2.1480 -0.6242
   27MOL   H47916651   1.617   3.255   6.938  0.5153 -1.8427 -2.5005
   27MOL   H48016652   1.631   3.299   6.774  2.2982 -1.4516  0.6575
   27MOL   H48116653   1.419   3.200   6.821 -0.5017 -1.0847  3.0746
   27MOL   H48216654   1.366   3.359   6.804  1.5518  2.0615  1.5988
   27MOL   H48316655   1.436   3.252   7.084 -0.3305 -0.1889  0.5601
   27MOL   H48416656   1.383   3.405   7.045  2.4046 -0.3778 -0.8485
   27MOL   H48516657   1.188   3.303   7.132 -1.7699 -1.5456  0.1565
   27MOL   H48616658   1.159   3.310   6.967  1.3117 -0.3436 -1.5638
   27MOL   H48716659   1.206   3.076   6.919 -1.2388 -0.0218 -0.0635
   27MOL   H48816660   1.280   3.046   7.070  0.4826  0.3856  0.8376
   27MOL   H48916661   0.995   3.094   6.987 -0.3877 -1.6406 -0.1436
   27MOL   H49016662   1.019   3.084   7.154  0.3914  1.1952 -0.4050
   27MOL   H49116663   1.070   2.863   6.968 -0.2395 -3.5345  0.5148
   27MOL   H49216664   1.134   2.857   7.137  0.0647  1.5426 -0.0315
   27MOL   H49316665   0.845   2.908   7.082 -0.9058 -1.6166  1.3441
   27MOL   H49416666   0.909   2.818   7.219 -0.6140  2.3992  1.2076
   27MOL   H49516667   0.896   2.752   7.056  1.2919 -0.2583 -0.0565
   27MOL   H49616668   1.628   3.527   7.127 -0.7654 -0.6638  0.4100
   27MOL   H49716669   1.677   3.364   7.130 -0.3996 -0.0203 -1.0010
   27MOL   C49816670   1.839   3.492   7.191 -0.1694  0.2230 -0.1610
   27MOL   O49916671   1.948   3.414   7.136 -0.5497  0.0284  0.2111
   27MOL   C50016672   2.064   3.497   7.132 -0.5387  0.0324  0.6644
   27MOL   C50116673   2.179   3.415   7.077  0.6301 -0.1911 -0.1639
   27MOL   C50216674   2.188   3.383   6.929  0.2734  0.8352  0.7669
   27MOL   C50316675   2.293   3.276   6.904  1.1918  0.3242  1.3758
   27MOL   C50416676   2.298   3.221   6.760  0.5525  0.1657 -0.4135
   27MOL   C50516677   2.423   3.140   6.719  0.1802 -0.3940  0.2041
   27MOL   C50616678   2.406   3.044   6.602  0.5779  0.7130  0.2551
   27MOL   C50716679   2.531   2.956   6.569  0.0349 -0.0978 -0.0349
   27MOL   C50816680   1.829   3.459   7.341 -0.2877 -0.7651  0.1810
   27MOL   H50916681   1.862   3.598   7.197 -0.7521  0.2445  2.0774
   27MOL   H51016682   2.084   3.551   7.224  1.2691 -0.2619  0.4568
   27MOL   H51116683   2.048   3.581   7.065  1.3858  2.2443  2.8881
   27MOL   H51216684   2.178   3.331   7.146  1.1093  1.2621  1.6818
   27MOL   H51316685   2.269   3.475   7.091  0.5051 -0.2781  1.0496
   27MOL   H51416686   2.093   3.347   6.889  0.7515 -0.5581  0.8571
   27MOL   H51516687   2.213   3.475   6.878 -0.5643  0.1508 -0.9060
   27MOL   H51616688   2.388   3.317   6.939  0.8274 -0.5767  3.5481
   27MOL   H51716689   2.276   3.196   6.977 -1.8886  0.2222  0.6076
   27MOL   H51816690   2.209   3.158   6.757  0.5088  0.2328 -0.5369
   27MOL   H51916691   2.279   3.307   6.695  0.5809  1.8774  1.7974
   27MOL   H52016692   2.455   3.084   6.807  0.3096 -2.4377 -1.1287
   27MOL   H52116693   2.506   3.207   6.697  1.7779 -2.4464 -0.1864
   27MOL   H52216694   2.333   2.969   6.636  2.2854 -2.6173 -3.0097
   27MOL   H52316695   2.362   3.094   6.516  0.1436 -1.5363 -0.8743
   27MOL   H52416696   2.612   3.026   6.546  0.2485 -0.4397 -0.3372
   27MOL   H52516697   2.518   2.912   6.470  0.4999 -1.5120  0.5106
   27MOL   H52616698   2.570   2.889   6.646 -0.6328  1.7125  1.9310
   27MOL   H52716699   1.804   3.353   7.344 -1.2817 -0.5031  1.4196
   27MOL   H52816700   1.928   3.476   7.383  1.4399 -1.9153 -3.1684
   27MOL   C52916701   1.724   3.529   7.433  0.5115 -0.5836 -0.3641
   27MOL   O53016702   1.738   3.669   7.435 -0.1378  0.1431  0.4538
   27MOL   C53116703   1.661   3.743   7.347  0.5079 -0.2291  0.4978
   27MOL   C53216704   1.706   3.891   7.334 -0.4811  0.3422 -0.5956
   27MOL   C53316705   1.840   3.911   7.254  0.0766  0.0718  0.0653
   27MOL   C53416706   1.879   4.051   7.217 -0.1384  0.2197  0.1487
   27MOL   C53516707   1.919   4.146   7.331  0.2326 -0.3698 -0.6330
   27MOL   C53616708   1.962   4.290   7.285  0.3262 -0.3838 -0.0543
   27MOL   C53716709   2.017   4.368   7.397 -0.4128 -1.1687  0.2142
   27MOL   C53816710   2.081   4.499   7.361  0.0134  0.0126  0.4594
   27MOL   C53916711   1.754   3.481   7.577  0.1387 -0.1865  0.2228
   27MOL   H54016712   1.624   3.493   7.408  0.6536 -1.4923  0.3423
   27MOL   H54116713   1.657   3.696   7.249 -3.5515 -0.9008  0.9234
   27MOL   H54216714   1.560   3.740   7.387  1.6335  2.1862  3.7772
   27MOL   H54316715   1.719   3.938   7.431  1.6336  1.4814 -1.4050
   27MOL   H54416716   1.629   3.953   7.288 -1.2524  1.4809  2.1445
   27MOL   H54516717   1.916   3.862   7.314 -0.4204 -0.5488  0.1954
   27MOL   H54616718   1.825   3.856   7.161 -0.1069  1.5020 -0.7772
   27MOL   H54716719   1.965   4.039   7.150  0.0305  0.8549  0.2474
   27MOL   H54816720   1.803   4.100   7.157 -0.5145  0.1458  0.5598
   27MOL   H54916721   1.843   4.144   7.409  0.1066 -0.0271 -0.7451
   27MOL   H55016722   2.002   4.096   7.380  0.0651 -1.8001 -1.7476
   27MOL   H55116723   1.879   4.346   7.244  1.5152  0.3162 -1.5452
   27MOL   H55216724   2.035   4.279   7.205  1.2218 -0.4872  0.7675
   27MOL   H55316725   1.935   4.381   7.468 -1.0737 -2.8495 -0.2010
   27MOL   H55416726   2.089   4.296   7.435 -2.2306 -2.3904  1.4668
   27MOL   H55516727   2.173   4.492   7.303 -0.2890  1.7698 -0.2527
   27MOL   H55616728   2.122   4.556   7.445  1.5708  1.1654 -1.0500
   27MOL   H55716729   2.013   4.567   7.310  0.0530  1.0488  1.7719
   27MOL   H55816730   1.770   3.374   7.579  1.0513 -0.0906 -1.5877
   27MOL   H55916731   1.856   3.510   7.600  1.4071 -1.0480 -3.9976
   27MOL   C56016732   1.647   3.525   7.683 -0.3814 -0.4520 -0.5593
   27MOL   O56116733   1.699   3.485   0.034  0.0260 -0.1010  0.4710
   27MOL   C56216734   1.783   3.583   0.085 -0.2306  0.2960  0.1750
   27MOL   C56316735   1.858   3.526   0.209  0.0015 -0.0390 -0.2117
   27MOL   C56416736   1.949   3.416   0.165  0.1003  0.1479  0.5003
   27MOL   C56516737   2.050   3.368   0.264 -1.5042 -0.6265  1.1423
   27MOL   C56616738   2.151   3.277   0.197  0.6344 -0.0333 -0.1492
   27MOL   C56716739   2.254   3.230   0.298 -0.6934 -0.3532 -0.0754
   27MOL   C56816740   2.365   3.129   0.249  0.0576 -0.6974  0.4641
   27MOL   C56916741   2.306   2.995   0.217  0.2644  0.5414  0.3907
   27MOL   C57016742   1.519   3.438   7.673  0.6226 -0.5049  0.2540
   27MOL   H57116743   1.629   3.632   7.672 -3.1608 -0.8511 -0.1084
   27MOL   H57216744   1.720   3.668   0.110 -1.4067 -0.8798  1.3362
   27MOL   H57316745   1.857   3.624   0.018 -1.8510  1.8350 -0.7057
   27MOL   H57416746   1.778   3.490   0.273 -1.5736  2.2329 -0.8308
   27MOL   H57516747   1.905   3.608   0.265  1.2183 -1.7681  1.3660
   27MOL   H57616748   1.888   3.326   0.155  0.8899 -0.3872  0.4129
   27MOL   H57716749   1.989   3.437   0.065  1.2630  0.9835  1.1341
   27MOL   H57816750   2.106   3.445   0.315 -1.3605 -0.3927  0.6346
   27MOL   H57916751   2.002   3.312   0.344 -2.5178 -1.1382  0.1990
   27MOL   H58016752   2.106   3.192   0.146 -0.9645  0.5149  0.3320
   27MOL   H58116753   2.199   3.340   0.121 -1.3220  2.4643  0.6102
   27MOL   H58216754   2.198   3.183   0.379 -2.0067 -0.1174 -0.8348
   27MOL   H58316755   2.295   3.322   0.339  0.3608 -1.2319  0.8552
   27MOL   H58416756   2.422   3.162   0.163 -0.9854 -0.9547 -0.3484
   27MOL   H58516757   2.440   3.121   0.327 -2.3820  0.0845  3.0097
   27MOL   H58616758   2.238   2.954   0.292 -0.3826 -0.4671 -0.7379
   27MOL   H58716759   2.372   2.918   0.177 -0.9288 -0.3208  0.0679
   27MOL   H58816760   2.230   3.015   0.142  0.2976  0.4474  0.3322
   27MOL   H58916761   1.490   3.433   7.568  0.8936  2.3751 -0.0001
   27MOL   H59016762   1.540   3.335   7.702  1.0481 -0.5196 -0.1106
   27MOL   C59116763   1.385   3.505   7.731 -0.0707  0.4554  0.7087
   27MOL   O59216764   1.365   3.635   7.677  0.3306  0.2611  0.4136
   27MOL   C59316765   1.242   3.703   7.707  0.1753 -0.8409  0.1193
   27MOL   C59416766   1.224   3.821   7.609  0.0614 -1.2752 -0.3304
   27MOL   C59516767   1.345   3.929   7.626 -0.0096  0.9315 -0.1309
   27MOL   C59616768   1.324   4.049   7.535  0.6772 -0.3534 -0.0399
   27MOL   C59716769   1.411   4.171   7.574 -0.0740  0.1487  0.0683
   27MOL   C59816770   1.430   4.272   7.456  0.2955  0.4566 -0.1309
   27MOL   C59916771   1.493   4.223   7.329 -0.4116  0.6235 -0.2700
   27MOL   C60016772   1.505   4.334   7.223 -0.3888 -0.4528 -0.0312
   27MOL   C60116773   1.387   3.508   0.106 -0.6799 -0.0908 -0.0016
   27MOL   H60216774   1.306   3.433   7.707  1.9000 -0.3937 -3.7171
   27MOL   H60316775   1.239   3.734   0.037 -0.8862 -0.9159  0.1204
   27MOL   H60416776   1.150   3.646   7.699 -0.3962 -0.0543  0.9931
   27MOL   H60516777   1.127   3.859   7.639  0.3206 -0.8379 -0.0312
   27MOL   H60616778   1.231   3.796   7.503  0.9944 -0.7407 -0.4068
   27MOL   H60716779   1.349   3.958   7.731 -0.6385  0.4869  0.0201
   27MOL   H60816780   1.437   3.872   7.609 -0.6330  0.5061 -2.3332
   27MOL   H60916781   1.340   4.021   7.431  2.7180 -1.4217  0.5412
   27MOL   H61016782   1.219   4.077   7.538  1.0820  1.0472  1.8361
   27MOL   H61116783   1.372   4.216   7.665  2.3695 -0.7929  1.6170
   27MOL   H61216784   1.505   4.128   7.608  0.7439 -0.7675 -3.1500
   27MOL   H61316785   1.480   4.361   7.495  0.2931  0.1116  0.6828
   27MOL   H61416786   1.330   4.314   7.440 -0.7185 -2.2629 -1.2443
   27MOL   H61516787   1.594   4.189   7.354 -1.3696 -1.9989  0.1929
   27MOL   H61616788   1.432   4.148   7.279 -1.8867  2.6596 -1.5666
   27MOL   H61716789   1.545   4.288   7.133 -0.4178 -0.2493 -0.1497
   27MOL   H61816790   1.559   4.426   7.246  1.6452 -1.2834 -1.3471
   27MOL   H61916791   1.401   4.363   7.206  0.0785 -0.8860 -3.9294
   27MOL   H62016792   1.291   3.542   0.147 -0.2592 -2.1959  2.8986
   27MOL   H62116793   1.400   3.406   0.142  0.1147 -0.4761 -1.3326
   27MOL   H62216794   1.474   3.557   0.150 -1.0032 -0.7527  1.3929
   28MOL     C116795   0.148   7.172   4.726 -0.1551  0.4475  0.4897
   28MOL     O216796   0.279   7.214   4.722  0.3936 -0.0900  0.7012
   28MOL     C316797   0.315   7.341   4.778 -0.0029  0.0766 -0.1435
   28MOL     C416798   0.464   7.376   4.748  0.1046 -0.0189 -0.1318
   28MOL     C516799   0.502   7.501   4.825  0.3343  0.8998  0.1357
   28MOL     C616800   0.630   7.565   4.774  0.0831 -0.0920 -0.0408
   28MOL     C716801   0.647   7.711   4.811 -0.6942  0.2028 -0.5992
   28MOL     C816802   0.792   7.757   4.773 -0.4850 -0.7260  0.1318
   28MOL     C916803   0.817   0.127   4.777 -0.8697 -0.6726  0.2987
   28MOL    C1016804   0.734   0.208   4.679  0.2609 -0.1417  0.1426
   28MOL    C1116805   0.141   7.016   4.709 -0.2593  0.2885 -0.1794
   28MOL    H1216806   0.102   7.203   4.820 -1.0655 -0.1174  0.2405
   28MOL    H1316807   0.294   7.348   4.884 -0.8702  0.3781 -0.3300
   28MOL    H1416808   0.240   7.412   4.743 -1.3578 -0.5915  1.3697
   28MOL    H1516809   0.472   7.397   4.642  2.9283 -1.0591 -0.1817
   28MOL    H1616810   0.530   7.291   4.766  0.1608 -0.1751 -1.0658
   28MOL    H1716811   0.422   7.575   4.820 -0.7132 -0.1499  0.9346
   28MOL    H1816812   0.516   7.483   4.932  1.1398 -1.0248 -0.2748
   28MOL    H1916813   0.711   7.495   4.794  0.2532 -0.0403 -0.5384
   28MOL    H2016814   0.620   7.565   4.665 -1.1891 -0.4174  0.0701
   28MOL    H2116815   0.572   7.768   4.755 -0.6624 -0.6209 -1.5035
   28MOL    H2216816   0.616   7.726   4.914 -2.0483 -0.1853 -0.9341
   28MOL    H2316817   0.830   7.725   4.676  3.6517  1.4285  0.9004
   28MOL    H2416818   0.854   7.708   4.848 -1.2879 -0.7602  0.7770
   28MOL    H2516819   0.824   0.165   4.878 -0.4820 -0.2537  0.1147
   28MOL    H2616820   0.918   0.139   4.737 -0.6739 -2.1300  0.3164
   28MOL    H2716821   0.734   0.317   4.691  0.2264 -0.2647  1.3311
   28MOL    H2816822   0.628   0.183   4.682  0.5237 -1.1298  1.1774
   28MOL    H2916823   0.776   0.188   4.581 -0.7991 -0.0142 -0.3461
   28MOL    H3016824   0.186   6.978   4.617  2.3128 -1.2331  1.6425
   28MOL    H3116825   0.201   6.968   4.787 -1.2834  0.7736  0.9107
   28MOL    H3216826   0.089   7.213   4.644 -0.4946  1.8144  1.3997
   28MOL    C3316827   7.772   6.972   4.709  0.9790  0.3934 -0.1194
   28MOL    O3416828   7.730   6.983   4.843 -0.5876  0.5623  0.1300
   28MOL    C3516829   7.589   6.992   4.872  0.1712 -0.1242 -0.7414
   28MOL    C3616830   7.563   7.038   5.016  0.3752 -0.4544 -0.1882
   28MOL    C3716831   7.419   7.042   5.067  0.3393  0.0554  0.6853
   28MOL    C3816832   7.399   7.132   5.188 -0.3864 -0.2563 -0.4444
   28MOL    C3916833   7.257   7.153   5.235  0.1673  0.8694  0.3198
   28MOL    C4016834   7.233   7.244   5.360 -0.4808 -0.5026 -0.0268
   28MOL    C4116835   7.128   7.187   5.456  0.1778  0.1767 -0.3120
   28MOL    C4216836   6.993   7.170   5.388 -0.1078  0.2752  0.1028
   28MOL    C4316837   7.743   6.824   4.669  0.1160 -0.5357  0.4620
   28MOL    H4416838   7.709   7.033   4.644  2.1220  2.7356  0.9109
   28MOL    H4516839   7.541   6.895   4.860 -1.4114  0.4463  0.7720
   28MOL    H4616840   7.541   7.071   4.815  0.9185 -0.7600 -2.2733
   28MOL    H4716841   7.618   7.126   5.049  1.0748 -1.3587  1.0924
   28MOL    H4816842   7.615   6.957   5.068 -0.1263  0.5321  1.9186
   28MOL    H4916843   7.348   7.077   4.993  0.5527  0.3342  0.6104
   28MOL    H5016844   7.390   6.938   5.083 -1.3292  0.0227 -2.2692
   28MOL    H5116845   7.470   7.097   5.263  1.0838 -2.4523 -2.8138
   28MOL    H5216846   7.427   7.233   5.159  0.0417 -0.1099  0.4474
   28MOL    H5316847   7.195   7.195   5.157  0.8286  2.0511  0.4274
   28MOL    H5416848   7.218   7.052   5.250 -2.6269  1.9663  0.7080
   28MOL    H5516849   7.213   7.346   5.325 -0.4033 -0.1834  0.8528
   28MOL    H5616850   7.328   7.249   5.413  0.8511 -0.6547 -2.2909
   28MOL    H5716851   7.170   7.100   5.507  0.7828 -0.3166 -1.6345
   28MOL    H5816852   7.100   7.256   5.536 -0.5227  0.6585 -0.9651
   28MOL    H5916853   7.001   7.090   5.315 -1.5817 -1.1441  1.4419
   28MOL    H6016854   6.957   7.257   5.333 -0.0178  0.3332  0.1372
   28MOL    H6116855   6.913   7.145   5.458 -0.7100  0.3825 -0.5518
   28MOL    H6216856   7.638   6.804   4.649  0.1777  0.7220 -1.2430
   28MOL    H6316857   7.772   6.813   4.565  1.0655  1.3278  0.5226
   28MOL    C6416858   0.029   6.709   4.752 -0.5410 -0.3684 -0.7534
   28MOL    O6516859   0.172   6.727   4.766 -0.0811 -0.3320 -0.1758
   28MOL    C6616860   0.242   6.653   4.862  0.6002  0.0791  0.1240
   28MOL    C6716861   0.341   6.743   4.940 -0.3815 -0.0745 -0.6214
   28MOL    C6816862   0.267   6.819   5.060  0.0542  0.0749  0.3387
   28MOL    C6916863   0.349   6.918   5.140  0.7272 -0.4501 -0.1003
   28MOL    C7016864   0.384   7.046   5.060 -0.4736 -0.3576 -0.0261
   28MOL    C7116865   0.460   7.137   5.162  0.2244  0.1818 -0.0645
   28MOL    C7216866   0.497   7.279   5.121  0.2946 -0.1796  0.1656
   28MOL    C7316867   0.587   7.350   5.227  0.4348  0.1202  0.3738
   28MOL    C7416868   0.011   6.560   4.711 -0.3053 -0.4496  0.3835
   28MOL    H7516869   7.771   6.710   4.856  0.9502 -1.5793 -0.2564
   28MOL    H7616870   0.286   6.562   4.822  0.9516  0.0187  0.6501
   28MOL    H7716871   0.163   6.622   4.931  1.5703 -2.7414  0.0300
   28MOL    H7816872   0.400   6.812   4.880  0.5476  1.9511  2.5103
   28MOL    H7916873   0.419   6.679   4.982  0.3250  1.2659  0.1133
   28MOL    H8016874   0.179   6.868   5.019  0.6605 -1.0914 -2.4353
   28MOL    H8116875   0.230   6.750   5.136 -0.4070 -2.2784 -1.9794
   28MOL    H8216876   0.292   6.949   5.227 -0.5983  2.1108 -1.8163
   28MOL    H8316877   0.447   6.873   5.159  1.4947 -0.5136 -3.7371
   28MOL    H8416878   0.447   7.026   4.974 -0.0723  1.9935 -0.3169
   28MOL    H8516879   0.297   7.106   5.034  0.4408  1.4700  1.0499
   28MOL    H8616880   0.546   7.088   5.207  0.6428  1.2489  0.3172
   28MOL    H8716881   0.388   7.153   5.242 -1.2872 -1.0189 -1.1593
   28MOL    H8816882   0.557   7.285   5.030  1.3948  2.1151  0.9907
   28MOL    H8916883   0.406   7.339   5.120 -0.7170 -1.6804 -0.0985
   28MOL    H9016884   0.546   7.346   5.328  1.4740  1.3471  0.8632
   28MOL    H9116885   0.591   7.453   5.191  0.7909 -0.0841 -0.1801
   28MOL    H9216886   0.685   7.305   5.239  0.7139  0.3997 -0.8158
   28MOL    H9316887   0.036   6.539   4.606  0.5597 -2.1239  0.9072
   28MOL    H9416888   0.077   6.494   4.766 -0.2817  0.9930  2.1149
   28MOL    C9516889   7.630   6.525   4.722 -0.5698 -0.2317  0.4422
   28MOL    O9616890   7.598   6.523   4.859 -0.4602  0.2764  0.7375
   28MOL    C9716891   7.485   6.600   4.899 -0.5101 -0.4591 -0.1502
   28MOL    C9816892   7.520   6.653   5.038  0.0669 -0.0649 -0.2750
   28MOL    C9916893   7.509   6.540   5.143 -0.9245 -0.9991  0.4851
   28MOL   C10016894   7.516   6.582   5.289  0.5071 -0.4755 -0.3487
   28MOL   C10116895   7.498   6.460   5.372 -0.0596 -0.2372 -0.6150
   28MOL   C10216896   7.532   6.472   5.523  0.4332 -0.5406  0.2827
   28MOL   C10316897   7.505   6.339   5.598 -0.5784  0.3896 -0.3636
   28MOL   C10416898   7.604   6.315   5.713 -0.7626 -0.2599  1.0470
   28MOL   C10516899   7.589   6.385   4.673 -0.0926 -0.1705  0.7243
   28MOL   H10616900   7.568   6.598   4.669 -0.7167 -1.2932 -0.8542
   28MOL   H10716901   7.393   6.541   4.902 -0.4777 -0.6057 -1.7873
   28MOL   H10816902   7.479   6.693   4.843 -0.1635  1.1616  2.4017
   28MOL   H10916903   7.445   6.729   5.060  0.8798  0.3956  0.9816
   28MOL   H11016904   7.609   6.716   5.045 -0.8680  1.1296  0.9613
   28MOL   H11116905   7.429   6.467   5.131 -1.5289 -0.0730 -1.1785
   28MOL   H11216906   7.592   6.471   5.130 -1.7971 -2.1284  0.7699
   28MOL   H11316907   7.616   6.624   5.298 -0.2265  1.7626 -2.0342
   28MOL   H11416908   7.439   6.658   5.302 -1.4561 -2.3953 -0.5570
   28MOL   H11516909   7.391   6.439   5.374 -0.2747  0.8282 -0.5519
   28MOL   H11616910   7.561   6.379   5.337  1.3346  1.8699 -3.1558
   28MOL   H11716911   7.475   6.556   5.564 -0.4841 -1.0098 -0.0209
   28MOL   H11816912   7.635   6.508   5.522  0.7756 -1.3444 -4.8836
   28MOL   H11916913   7.397   6.326   5.611 -0.2571 -1.9911  0.1843
   28MOL   H12016914   7.533   6.259   5.530  0.1742 -1.9298  2.5770
   28MOL   H12116915   7.576   6.228   5.772  3.1712 -1.8010  0.8072
   28MOL   H12216916   7.604   6.401   5.780  1.0477  0.3467  0.2983
   28MOL   H12316917   7.707   6.301   5.679 -1.1589  1.0700 -0.7613
   28MOL   H12416918   7.637   6.308   4.734  1.8480  1.1479  0.8890
   28MOL   H12516919   7.482   6.387   4.698 -0.3770  1.9092 -0.5857
   28MOL   C12616920   7.595   6.366   4.519  0.2934 -0.1608  0.3129
   28MOL   O12716921   7.535   6.481   4.467  0.3816 -0.5932 -0.3919
   28MOL   C12816922   7.572   6.506   4.336 -0.4893  0.0969 -0.2472
   28MOL   C12916923   7.582   6.657   4.313  0.0350 -0.9039 -0.7293
   28MOL   C13016924   7.596   6.685   4.164  0.2064 -0.6043  0.2030
   28MOL   C13116925   7.625   6.829   4.124  0.0706  1.0335 -0.0064
   28MOL   C13216926   7.633   6.856   3.971 -0.3755  0.3062  0.6290
   28MOL   C13316927   7.765   6.844   3.904 -0.9078  0.4789 -0.1300
   28MOL   C13416928   7.754   6.886   3.754 -0.6321  0.6788 -0.5621
   28MOL   C13516929   0.114   6.857   3.680  0.2151 -0.1088 -0.0212
   28MOL   C13616930   7.519   6.245   4.460 -0.1518 -0.2153 -0.2383
   28MOL   H13716931   7.699   6.371   4.488 -0.7773  0.5918 -3.3623
   28MOL   H13816932   7.486   6.462   4.285 -0.4585 -1.5500  1.0491
   28MOL   H13916933   7.667   6.459   4.310  0.1144  0.1264  1.7892
   28MOL   H14016934   7.674   6.694   4.357 -1.3006  1.1103  0.4071
   28MOL   H14116935   7.492   6.706   4.349  1.1900  0.4776  0.2863
   28MOL   H14216936   7.680   6.623   4.131  1.0016  0.8406 -0.5715
   28MOL   H14316937   7.505   6.658   4.111  0.0991  0.2674 -0.0623
   28MOL   H14416938   7.537   6.886   4.152  0.5511  0.9079  1.7704
   28MOL   H14516939   7.711   6.863   4.180  2.7505 -3.0801 -1.3866
   28MOL   H14616940   7.564   6.791   3.916 -0.8779  1.3390  0.0080
   28MOL   H14716941   7.587   6.955   3.961 -2.4733 -0.7828 -1.0531
   28MOL   H14816942   0.020   6.739   3.904  0.2600  0.7416 -2.9122
   28MOL   H14916943   0.058   6.911   3.956 -0.9209  0.8101 -0.5327
   28MOL   H15016944   7.675   6.829   3.705 -0.7464 -1.0690  1.5824
   28MOL   H15116945   7.741   6.993   3.738  0.6432  1.4161  2.8607
   28MOL   H15216946   0.196   6.907   3.731 -1.0374  1.4427  0.5259
   28MOL   H15316947   0.110   6.886   3.575 -1.4726  1.5297  0.4604
   28MOL   H15416948   0.146   6.753   3.680  0.5701 -0.0021  0.4218
   28MOL   H15516949   7.430   6.240   4.523 -0.1144 -0.7575 -0.2302
   28MOL   H15616950   7.469   6.271   4.366 -1.0813  2.6557  0.9850
   28MOL   C15716951   7.599   6.112   4.464 -0.3959 -0.7115 -0.7057
   28MOL   O15816952   7.645   6.096   4.594  0.6347 -0.0347  0.2090
   28MOL   C15916953   7.675   5.964   4.646 -0.4268 -0.2552  0.2179
   28MOL   C16016954   7.720   5.986   4.791  0.0961  0.1199  0.0947
   28MOL   C16116955   0.073   6.066   4.796  0.0386  0.1289  0.1832
   28MOL   C16216956   0.109   6.105   4.942 -0.6566  0.0789  0.8788
   28MOL   C16316957   0.257   6.117   4.953 -0.7474  1.2035 -0.5042
   28MOL   C16416958   0.315   6.230   4.860  0.8504  0.2525 -0.3725
   28MOL   C16516959   0.470   6.234   4.868 -0.6651  0.6894 -0.1158
   28MOL   C16616960   0.523   6.254   5.008  0.8025  0.2789  0.1900
   28MOL   C16716961   7.714   6.081   4.370 -0.0231 -0.0455  0.1832
   28MOL   H16816962   7.522   6.036   4.447 -2.5276  1.2821 -0.2120
   28MOL   H16916963   7.757   5.915   4.593 -0.4779 -0.4029  0.2777
   28MOL   H17016964   7.586   5.901   4.644 -0.0781 -0.7305 -0.9763
   28MOL   H17116965   7.726   5.892   4.846  2.5393  0.6096  0.7082
   28MOL   H17216966   7.645   6.044   4.845  0.8165 -0.3422  1.6440
   28MOL   H17316967   0.154   6.015   4.744 -0.6804 -0.6361 -0.1995
   28MOL   H17416968   0.061   6.159   4.740 -2.2132 -1.4029 -1.9837
   28MOL   H17516969   0.062   6.201   4.961  1.6875  1.3591  0.3220
   28MOL   H17616970   0.076   6.033   5.017 -0.1316 -1.1453 -0.0399
   28MOL   H17716971   0.291   6.146   5.052 -0.8945  1.6733 -0.5901
   28MOL   H17816972   0.309   6.024   4.932  0.4145  1.7454 -0.0430
   28MOL   H17916973   0.272   6.326   4.890  0.3464 -0.3892  1.0312
   28MOL   H18016974   0.286   6.202   4.759 -1.3919 -1.1940  0.6239
   28MOL   H18116975   0.517   6.146   4.824 -1.0579  1.2578 -1.7305
   28MOL   H18216976   0.503   6.318   4.807  0.4067 -0.2658 -0.8749
   28MOL   H18316977   0.527   6.158   5.059 -1.7138 -0.6546 -1.2553
   28MOL   H18416978   0.461   6.332   5.050  0.1331  1.0118 -2.0642
   28MOL   H18516979   0.622   6.299   5.013  0.9109  0.1421 -0.6787
   28MOL   H18616980   0.029   6.117   4.420  0.3693 -1.3531  0.4524
   28MOL   H18716981   7.714   5.972   4.372 -2.0066 -0.0466  2.7864
   28MOL   C18816982   7.717   6.129   4.220  0.6191 -0.9556 -0.0658
   28MOL   O18916983   7.589   6.092   4.157 -0.4618  0.1918  0.5943
   28MOL   C19016984   7.556   6.181   4.056 -0.3904 -0.4423  0.1012
   28MOL   C19116985   7.405   6.212   4.053 -0.3540 -0.2793  0.6952
   28MOL   C19216986   7.317   6.089   4.049  0.6801  0.0042 -0.4993
   28MOL   C19316987   7.190   6.093   4.140 -0.6604 -0.1489  0.0578
   28MOL   C19416988   7.087   6.204   4.090  0.4004  0.2818 -0.4146
   28MOL   C19516989   6.951   6.160   4.149 -0.6377  0.4045  0.2519
   28MOL   C19616990   6.879   6.046   4.077  0.5534 -0.2916  0.2661
   28MOL   C19716991   6.745   6.002   4.130 -0.3534  0.7113 -0.0343
   28MOL   C19816992   0.053   6.066   4.129 -0.2497  0.2492 -0.1293
   28MOL   H19916993   7.731   6.237   4.225 -1.1977 -0.6994 -0.1161
   28MOL   H20016994   7.601   6.279   4.071 -0.6411 -0.5555  1.7162
   28MOL   H20116995   7.601   6.153   3.961  0.0550  3.0854 -0.7809
   28MOL   H20216996   7.373   6.270   3.967  0.0018  0.7299  1.2270
   28MOL   H20316997   7.372   6.281   4.131 -0.2234  0.5663 -0.0009
   28MOL   H20416998   7.278   6.085   3.947  1.9062  0.6775 -1.0028
   28MOL   H20516999   7.381   6.002   4.066 -0.5412 -0.9061 -0.4666
   28MOL   H20617000   7.147   5.993   4.133 -0.4003 -0.3262  0.9565
   28MOL   H20717001   7.223   6.120   4.240  0.5342  0.0837 -0.3890
   28MOL   H20817002   7.118   6.305   4.118  0.5942 -0.0384  0.5501
   28MOL   H20917003   7.070   6.208   3.983 -3.3005 -1.8636  0.0234
   28MOL   H21017004   6.887   6.245   4.126 -0.1463  0.7806  0.2784
   28MOL   H21117005   6.950   6.139   4.256 -1.1112  0.4387  0.2548
   28MOL   H21217006   6.863   6.059   3.970 -1.2578  0.9329  0.6638
   28MOL   H21317007   6.939   5.955   4.074  3.2593  1.4171  0.2182
   28MOL   H21417008   6.658   6.064   4.108  0.5946  1.2065 -2.5549
   28MOL   H21517009   6.740   6.006   4.239  0.4652 -0.8401  0.0649
   28MOL   H21617010   6.726   5.898   4.104  0.0931 -0.1430  2.8562
   28MOL   H21717011   0.037   5.959   4.124  1.2312  0.0004  0.2895
   28MOL   H21817012   0.035   6.107   4.029  0.3606  2.2108  0.5347
   28MOL   C21917013   0.198   6.093   4.175 -0.1217  0.2726  0.0408
   28MOL   O22017014   0.213   6.235   4.188 -0.0097  0.3972 -0.2076
   28MOL   C22117015   0.299   6.275   4.292  0.7154  0.7874  0.2140
   28MOL   C22217016   0.292   6.430   4.309  0.7315  0.1194  0.4410
   28MOL   C22317017   0.334   6.509   4.189  0.4599 -0.3254  0.9726
   28MOL   C22417018   0.264   6.648   4.160 -0.1833  0.4740  0.0442
   28MOL   C22517019   0.296   6.759   4.258 -0.1998 -0.2317 -0.4352
   28MOL   C22617020   0.245   6.899   4.235  0.6730 -0.2524  0.0349
   28MOL   C22717021   0.316   7.002   4.320 -0.2606 -0.3170 -0.4188
   28MOL   C22817022   0.262   7.144   4.298 -0.4463  0.0171 -0.7021
   28MOL   C22917023   0.299   6.042   4.073 -0.3046 -0.5246  0.6731
   28MOL   H23017024   0.216   6.041   4.269  1.3201  0.6810 -0.0031
   28MOL   H23117025   0.404   6.248   4.280  0.9094  0.0125  3.2428
   28MOL   H23217026   0.261   6.219   4.378 -1.2822  2.4512  0.4574
   28MOL   H23317027   0.361   6.460   4.389 -1.3351  0.9844  1.9486
   28MOL   H23417028   0.193   6.463   4.341 -0.1853  1.1103 -3.2156
   28MOL   H23517029   0.442   6.519   4.201  0.4155 -0.4572  1.5144
   28MOL   H23617030   0.309   6.448   4.102 -0.0496  0.2551  0.7109
   28MOL   H23717031   0.299   6.680   4.062  0.0234  0.6663  0.1816
   28MOL   H23817032   0.159   6.623   4.141 -0.4155  0.9351  0.7203
   28MOL   H23917033   0.271   6.723   4.358  0.8184  2.0097  0.6678
   28MOL   H24017034   0.404   6.773   4.252 -0.3062 -0.4878 -5.0267
   28MOL   H24117035   0.137   6.900   4.254  0.6432 -0.0911 -0.1443
   28MOL   H24217036   0.251   6.922   4.129 -0.8220  1.7484  0.3426
   28MOL   H24317037   0.333   6.966   4.421  1.7772  1.0766 -0.2453
   28MOL   H24417038   0.417   7.014   4.281  0.5886 -0.5680  1.6695
   28MOL   H24517039   0.290   7.168   4.195  1.8505  2.5430  0.4431
   28MOL   H24617040   0.315   7.214   4.363 -2.2529 -0.4524  1.3125
   28MOL   H24717041   0.154   7.149   4.312 -0.4049  1.6664 -0.9139
   28MOL   H24817042   0.284   6.095   3.979  0.8857  2.9114  2.3493
   28MOL   H24917043   0.397   6.075   4.108  0.2748 -0.1363 -1.2983
   28MOL   C25017044   0.300   5.888   4.042 -0.4368 -0.7914  0.2135
   28MOL   O25117045   0.193   5.860   3.956 -0.6721  0.0139 -0.1660
   28MOL   C25217046   0.230   5.870   3.819  0.2500  0.3514 -0.5737
   28MOL   C25317047   0.099   5.854   3.744  0.4068 -0.6397  0.5520
   28MOL   C25417048   0.030   5.986   3.726 -0.5034 -0.5095 -0.6058
   28MOL   C25517049   7.670   5.986   3.639 -0.4317  0.2902  0.1297
   28MOL   C25617050   7.606   6.121   3.635 -0.1854  0.5881  0.1866
   28MOL   C25717051   7.465   6.114   3.588  0.6217 -0.4338  0.4897
   28MOL   C25817052   7.443   6.064   3.443 -0.5293 -0.3482 -0.1852
   28MOL   C25917053   7.292   6.035   3.418  0.2693  0.4521  0.4460
   28MOL   C26017054   0.311   5.787   4.155 -0.3768 -0.2200  0.2125
   28MOL   H26117055   0.394   5.887   3.987  0.3598  0.7617  1.4871
   28MOL   H26217056   0.313   5.803   3.794 -0.0905 -0.0022 -0.7571
   28MOL   H26317057   0.267   5.968   3.788  0.6543  0.2173 -0.5218
   28MOL   H26417058   0.038   5.779   3.794  0.2279 -1.7613 -1.2920
   28MOL   H26517059   0.142   5.804   3.656  0.4858  0.1781  0.1228
   28MOL   H26617060   0.003   6.015   3.828 -1.0487 -0.0990 -0.8650
   28MOL   H26717061   0.097   6.057   3.678 -3.0566  3.6257  1.6379
   28MOL   H26817062   7.686   5.954   3.537 -1.1923 -1.2752  0.4912
   28MOL   H26917063   7.597   5.915   3.678  0.7892  1.2328  4.3606
   28MOL   H27017064   7.605   6.167   3.734  1.3723  2.4398 -0.6219
   28MOL   H27117065   7.667   6.182   3.569  1.2057 -2.6783 -1.6446
   28MOL   H27217066   7.411   6.208   3.601 -2.1945 -1.7260 -1.4002
   28MOL   H27317067   7.410   6.045   3.651 -2.1944  1.6716  0.4586
   28MOL   H27417068   7.485   6.133   3.371 -0.3094 -1.6444 -1.3190
   28MOL   H27517069   7.481   5.963   3.426 -0.8446 -0.5243  0.1524
   28MOL   H27617070   7.247   6.134   3.411  0.6462  0.7237  1.8863
   28MOL   H27717071   7.244   5.971   3.492 -0.3820  1.0078  0.5044
   28MOL   H27817072   7.272   5.983   3.324  0.9143 -1.1676  1.1873
   28MOL   H27917073   0.380   5.820   4.233 -0.6726 -0.3780  0.5455
   28MOL   H28017074   0.211   5.786   4.198 -0.6240  1.8722 -0.2483
   28MOL   C28117075   0.361   5.652   4.098 -0.4192 -0.4657 -0.4070
   28MOL   O28217076   0.294   5.549   4.170 -0.3536  0.0627  0.0620
   28MOL   C28317077   0.262   5.432   4.106  0.6845 -0.4210 -0.4780
   28MOL   C28417078   0.169   5.451   3.987 -0.5849  0.1020 -0.1959
   28MOL   C28517079   0.064   5.557   4.010 -0.1550  0.5132 -0.1668
   28MOL   C28617080   7.710   5.513   4.083 -0.3097  0.2860 -0.3864
   28MOL   C28717081   7.632   5.628   4.146  0.5311 -0.2330 -0.2725
   28MOL   C28817082   7.489   5.590   4.195  0.4538 -0.8742  0.4427
   28MOL   C28917083   7.397   5.706   4.230  0.6704 -0.7715 -0.1323
   28MOL   C29017084   7.422   5.780   4.354  0.1343 -0.1768 -0.1904
   28MOL   C29117085   0.510   5.628   4.132  0.3598 -0.0112 -0.7037
   28MOL   H29217086   0.339   5.643   3.992  0.7035  0.7375 -0.7735
   28MOL   H29317087   0.215   5.360   4.174 -0.9421  0.3385 -0.7693
   28MOL   H29417088   0.353   5.389   4.065  0.3454  0.4369 -2.1978
   28MOL   H29517089   0.123   5.359   3.953  0.4860  0.0230 -1.4992
   28MOL   H29617090   0.222   5.491   3.900 -0.6896 -1.9267 -1.2208
   28MOL   H29717091   0.107   5.639   4.068  0.6081 -2.4873  3.6961
   28MOL   H29817092   0.029   5.597   3.915 -0.4111 -0.8376 -0.6583
   28MOL   H29917093   7.648   5.459   4.012 -2.8008  0.1353  1.8166
   28MOL   H30017094   7.733   5.444   4.164  2.3026  0.8704 -0.5807
   28MOL   H30117095   7.687   5.675   4.227 -1.1734  0.1102  0.7152
   28MOL   H30217096   7.617   5.716   4.084  1.3455  0.7826  0.9552
   28MOL   H30317097   7.513   5.532   4.285  0.7791 -1.0726  0.2291
   28MOL   H30417098   7.440   5.520   4.129  1.8775 -1.2082 -0.2776
   28MOL   H30517099   7.369   5.766   4.143 -0.0893 -1.1204 -0.1319
   28MOL   H30617100   7.306   5.653   4.260  1.9283 -1.6961  2.1895
   28MOL   H30717101   7.526   5.811   4.350  0.3277 -0.7697  0.1731
   28MOL   H30817102   7.425   5.715   4.441 -2.1178  2.0536  1.5939
   28MOL   H30917103   7.364   5.871   4.364 -0.4379 -0.6569  0.8904
   28MOL   H31017104   0.542   5.709   4.198 -0.1071  0.1476 -0.6706
   28MOL   H31117105   0.517   5.537   4.191 -1.0598 -0.5279 -1.2982
   28MOL   C31217106   0.597   5.628   4.008  0.6790 -0.1076  0.1007
   28MOL   O31317107   0.561   5.518   3.928  0.0725  0.2210  0.5194
   28MOL   C31417108   0.606   5.522   3.793  0.8537 -0.5400 -0.5518
   28MOL   C31517109   0.548   5.394   3.732 -0.3510  0.0839  0.3651
   28MOL   C31617110   0.582   5.259   3.805  0.4572  0.5046  0.3166
   28MOL   C31717111   0.592   5.141   3.715 -0.3904  0.4952  0.2839
   28MOL   C31817112   0.646   5.016   3.786  0.4978  0.2522  0.1692
   28MOL   C31917113   0.549   4.951   3.890  0.7159 -0.6005  0.3613
   28MOL   C32017114   0.618   4.821   3.949 -0.7600  0.7040 -0.2031
   28MOL   C32117115   0.533   4.765   4.061  1.4767 -0.4174 -0.2887
   28MOL   C32217116   0.745   5.615   4.047 -0.1112  0.0301 -0.8000
   28MOL   H32317117   0.589   5.718   3.947 -1.5867  0.4621  1.1884
   28MOL   H32417118   0.714   5.524   3.782  0.8408 -2.5602 -1.1220
   28MOL   H32517119   0.577   5.614   3.742  0.9390  0.3358  0.9444
   28MOL   H32617120   0.604   5.398   3.638  0.7891 -0.8910  0.9875
   28MOL   H32717121   0.441   5.399   3.710 -0.3401 -1.8671 -0.2691
   28MOL   H32817122   0.676   5.275   3.857  0.8222 -0.0747 -0.1485
   28MOL   H32917123   0.504   5.235   3.877  1.5988 -1.7405  0.8587
   28MOL   H33017124   0.505   5.117   3.654 -0.4823  1.9737 -0.1685
   28MOL   H33117125   0.662   5.168   3.636  1.0970  0.3366  1.5247
   28MOL   H33217126   0.655   4.943   3.705 -0.1723  0.3035  0.0491
   28MOL   H33317127   0.742   5.040   3.831  1.0355 -1.5715  0.0469
   28MOL   H33417128   0.455   4.929   3.839  1.0600 -2.9196  0.6725
   28MOL   H33517129   0.534   5.017   3.976  1.2224 -0.8690  0.6614
   28MOL   H33617130   0.631   4.749   3.869 -1.6698  0.3357 -0.0202
   28MOL   H33717131   0.721   4.840   3.979 -1.4371  1.9598  1.4109
   28MOL   H33817132   0.427   4.771   4.038  0.7309 -0.0359  2.9647
   28MOL   H33917133   0.550   4.828   4.149 -4.4014 -0.2975  0.9316
   28MOL   H34017134   0.558   4.662   4.084 -0.9234 -1.5779 -2.6058
   28MOL   H34117135   0.747   5.660   4.146 -0.0234  0.6136 -1.0690
   28MOL   H34217136   0.767   5.512   4.076 -1.1226  0.2392  0.7779
   28MOL   C34317137   0.861   5.686   3.964 -0.3494  0.0668  0.1799
   28MOL   O34417138   0.978   5.610   3.983 -0.1332  0.3130  0.3582
   28MOL   C34517139   1.026   5.581   3.858 -0.8452 -0.1009 -0.5097
   28MOL   C34617140   1.128   5.470   3.881  0.4711 -0.0818 -0.1165
   28MOL   C34717141   1.071   5.330   3.904  0.2530 -0.4061 -0.1501
   28MOL   C34817142   1.010   5.282   4.035  0.1859 -0.2346 -0.1112
   28MOL   C34917143   0.947   5.143   4.048 -0.7024  0.9370 -0.4588
   28MOL   C35017144   0.900   5.117   4.193  0.4632 -0.3619  0.1832
   28MOL   C35117145   0.792   5.009   4.221  1.0176  0.3685  0.3468
   28MOL   C35217146   0.767   4.973   4.366  0.5597 -0.4435  0.1908
   28MOL   C35317147   0.891   5.831   4.006  0.5403 -0.3841 -0.3427
   28MOL   H35417148   0.824   5.698   3.862  0.6816  2.5342  0.0555
   28MOL   H35517149   1.084   5.668   3.827  0.5776 -1.0261 -0.5061
   28MOL   H35617150   0.953   5.542   3.788  1.0938 -2.1628 -1.4730
   28MOL   H35717151   1.193   5.504   3.961  0.4776  0.8294 -0.4945
   28MOL   H35817152   1.197   5.468   3.796  2.2553 -0.4424  1.2975
   28MOL   H35917153   0.993   5.311   3.831  1.5399 -1.0320 -1.3903
   28MOL   H36017154   1.142   5.254   3.871 -0.7843 -0.8190 -1.4986
   28MOL   H36117155   1.078   5.310   4.115 -0.7168  0.4443  0.4398
   28MOL   H36217156   0.928   5.351   4.054  1.4384  1.0600  0.6342
   28MOL   H36317157   0.866   5.133   3.976  0.1249 -0.2151 -1.2427
   28MOL   H36417158   1.010   5.058   4.024  0.1456  1.2563  0.5636
   28MOL   H36517159   0.856   5.210   4.228  0.0097 -0.7665  0.6998
   28MOL   H36617160   0.990   5.108   4.254  0.4287  1.6312  0.5536
   28MOL   H36717161   0.697   5.041   4.179  1.3008  1.9172  0.8344
   28MOL   H36817162   0.818   4.914   4.175  0.8036  0.6232 -0.2964
   28MOL   H36917163   0.734   5.058   4.426  2.4509 -0.8422  1.8494
   28MOL   H37017164   0.859   4.931   4.407  2.1001 -0.5692 -3.2723
   28MOL   H37117165   0.686   4.901   4.380 -0.3388  0.6377  0.6227
   28MOL   H37217166   0.902   5.842   4.114 -1.1981  0.7218 -0.2609
   28MOL   H37317167   0.981   5.870   3.959  1.0020 -0.6748  0.2856
   28MOL   C37417168   0.789   5.936   3.955  0.4163  0.4103 -0.1334
   28MOL   O37517169   0.785   5.927   3.811 -0.0672 -0.4874  0.0878
   28MOL   C37617170   0.671   5.985   3.749  1.0278 -0.7217  0.4296
   28MOL   C37717171   0.611   5.878   3.664  0.3776 -0.2875 -0.3007
   28MOL   C37817172   0.515   5.940   3.564 -0.5530 -0.0015  0.1789
   28MOL   C37917173   0.416   5.844   3.488 -0.6909 -0.2872 -0.4358
   28MOL   C38017174   0.314   5.921   3.396 -0.4950  0.0897  0.5213
   28MOL   C38117175   0.211   5.827   3.318  0.5014  0.2832 -0.9751
   28MOL   C38217176   0.106   5.901   3.231  0.6133  0.3891 -0.5811
   28MOL   C38317177   0.003   5.809   3.183  0.1426  0.0961 -0.8641
   28MOL   C38417178   0.820   6.084   3.997  0.1534  0.0227 -0.2487
   28MOL   H38517179   0.694   5.903   3.997  0.8442 -0.0547  0.4862
   28MOL   H38617180   0.708   6.069   3.690 -1.1729 -0.1183 -0.1369
   28MOL   H38717181   0.596   6.014   3.822  0.4179  0.1766 -0.5439
   28MOL   H38817182   0.557   5.832   3.747 -1.7922  0.3505 -1.3280
   28MOL   H38917183   0.688   5.809   3.628  0.7085  0.6815 -1.4763
   28MOL   H39017184   0.453   6.015   3.613 -0.4717  0.5452 -0.5472
   28MOL   H39117185   0.575   5.988   3.486  2.2110 -1.2309  1.4905
   28MOL   H39217186   0.470   5.775   3.424  0.7609 -1.2452  1.7393
   28MOL   H39317187   0.353   5.797   3.564 -0.2170  0.6293  0.5437
   28MOL   H39417188   0.261   5.983   3.468  2.0139  0.0708  2.4404
   28MOL   H39517189   0.376   5.983   3.331 -0.5310  1.3931  1.6960
   28MOL   H39617190   0.163   5.772   3.400  0.7339  0.2804 -0.8401
   28MOL   H39717191   0.269   5.756   3.259 -0.5021 -1.3469 -0.0362
   28MOL   H39817192   0.051   5.965   3.300  0.7212  1.1214 -1.1671
   28MOL   H39917193   0.159   5.957   3.154  1.2912  1.9084  0.9370
   28MOL   H40017194   7.705   5.862   3.121 -1.3982  0.6405  1.3392
   28MOL   H40117195   7.725   5.754   3.261  0.0533 -1.0255 -1.7098
   28MOL   H40217196   0.049   5.735   3.118 -1.1919 -0.5614 -1.0741
   28MOL   H40317197   0.862   6.072   4.096 -0.4952 -0.1846  0.0029
   28MOL   H40417198   0.902   6.118   3.932  1.0486  1.2242  1.4777
   28MOL   C40517199   0.698   6.180   4.015  0.6335  0.0630 -0.4799
   28MOL   O40617200   0.668   6.246   3.893  0.5219  0.7060 -0.0592
   28MOL   C40717201   0.537   6.299   3.887  0.3348  0.1157 -0.7873
   28MOL   C40817202   0.499   6.324   3.743 -0.2450 -0.3575 -1.3408
   28MOL   C40917203   0.388   6.423   3.719 -0.0467 -0.1046 -0.1690
   28MOL   C41017204   0.256   6.366   3.738  0.8424  0.5131  0.0787
   28MOL   C41117205   0.151   6.477   3.717  0.3137 -0.3934 -0.7878
   28MOL   C41217206   0.009   6.425   3.746 -0.5648  0.4542  0.8383
   28MOL   C41317207   7.678   6.527   3.714 -0.2617  0.6285  1.1464
   28MOL   C41417208   7.537   6.482   3.731 -0.0649  0.2330 -0.4335
   28MOL   C41517209   0.724   6.297   4.113  0.1452 -0.2586  0.5967
   28MOL   H41617210   0.613   6.118   4.044  0.4415 -0.3073 -1.7931
   28MOL   H41717211   0.526   6.387   3.950  0.5972  0.7104 -1.5677
   28MOL   H41817212   0.467   6.225   3.925  0.4115  0.2325 -0.4216
   28MOL   H41917213   0.478   6.226   3.701 -1.5008 -0.1623 -1.1711
   28MOL   H42017214   0.591   6.349   3.690  1.2603 -3.0665 -0.1458
   28MOL   H42117215   0.405   6.511   3.781 -1.8272 -0.4755  0.8737
   28MOL   H42217216   0.403   6.461   3.618  0.7695 -0.4689 -0.1968
   28MOL   H42317217   0.232   6.292   3.662  1.9213  0.8516 -0.5973
   28MOL   H42417218   0.251   6.311   3.832 -2.2183  0.2046 -0.2247
   28MOL   H42517219   0.167   6.561   3.784  2.5220 -1.1007 -0.3855
   28MOL   H42617220   0.170   6.514   3.616  1.6512 -1.4735 -0.9582
   28MOL   H42717221   0.002   6.387   3.848  0.7375  0.4475  0.9337
   28MOL   H42817222   7.759   6.343   3.678  0.1039 -0.5950  1.8612
   28MOL   H42917223   7.686   6.611   3.782  0.9904 -0.0450  1.8507
   28MOL   H43017224   7.687   6.563   3.612 -1.2108  0.1421  0.8790
   28MOL   H43117225   7.480   6.574   3.743  0.3491  0.5049 -0.5253
   28MOL   H43217226   7.523   6.431   3.826 -0.1594  1.4661  0.2238
   28MOL   H43317227   7.491   6.426   3.650 -0.2638 -1.3159  0.7133
   28MOL   H43417228   0.801   6.356   4.063 -0.3694 -0.7823 -0.8412
   28MOL   H43517229   0.640   6.366   4.125 -0.5268 -0.8692 -0.5289
   28MOL   C43617230   0.767   6.262   4.259  0.7226  0.3425  0.1708
   28MOL   O43717231   0.663   6.179   4.315  0.1967 -0.3654  0.2121
   28MOL   C43817232   0.714   6.083   4.401 -0.1288 -0.5108 -0.2728
   28MOL   C43917233   0.597   6.003   4.456  0.1858  0.1188 -0.5350
   28MOL   C44017234   0.630   5.874   4.529 -1.5752  0.0577 -0.5832
   28MOL   C44117235   0.518   5.827   4.622 -0.2447 -0.1078 -0.1307
   28MOL   C44217236   0.390   5.783   4.538  0.6380  0.2322 -0.5236
   28MOL   C44317237   0.283   5.715   4.627  0.3991  0.8315 -0.1358
   28MOL   C44417238   0.148   5.671   4.550 -0.0306  0.8113  0.1480
   28MOL   C44517239   0.029   5.628   4.646  0.7054 -0.0798  0.1562
   28MOL   C44617240   0.772   6.390   4.353 -0.0753 -0.0709  0.7387
   28MOL   H44717241   0.861   6.207   4.253  1.1723  1.1612 -0.4383
   28MOL   H44817242   0.792   6.018   4.360  0.7175  0.3090  0.0208
   28MOL   H44917243   0.775   6.127   4.480 -0.4045  1.6385 -1.2322
   28MOL   H45017244   0.531   5.974   4.374  0.1921 -2.6135  0.3857
   28MOL   H45117245   0.536   6.059   4.527 -0.4039 -0.6653 -0.4152
   28MOL   H45217246   0.671   5.800   4.460  0.6722  0.3463  0.3869
   28MOL   H45317247   0.713   5.903   4.594 -0.5282 -3.1717 -0.3655
   28MOL   H45417248   0.548   5.731   4.665  0.5687  0.0137 -0.4118
   28MOL   H45517249   0.498   5.904   4.696 -2.3090  1.1296 -1.9288
   28MOL   H45617250   0.345   5.876   4.504  2.7294  1.4746  0.0066
   28MOL   H45717251   0.425   5.730   4.450  0.6575  1.4970 -1.2914
   28MOL   H45817252   0.248   5.787   4.702  0.8215 -0.4994  1.3668
   28MOL   H45917253   0.323   5.625   4.673 -1.5308 -1.0226 -1.9727
   28MOL   H46017254   0.116   5.753   4.485  0.6712  1.8985  1.1431
   28MOL   H46117255   0.177   5.594   4.479  1.2847  1.5834 -0.1642
   28MOL   H46217256   7.704   5.629   4.602 -0.1957 -1.3615  2.0940
   28MOL   H46317257   0.018   5.704   4.724  0.3336 -0.4425  0.4616
   28MOL   H46417258   0.033   5.528   4.690  1.1662  0.4094  1.2725
   28MOL   H46517259   0.675   6.440   4.347 -0.8200 -1.7034 -1.4186
   28MOL   H46617260   0.793   6.359   4.455  2.2274 -2.0124 -0.2923
   28MOL   C46717261   0.890   6.485   4.320 -0.0927  0.0569 -0.4671
   28MOL   O46817262   1.015   6.411   4.341 -0.5184 -0.3902  0.1222
   28MOL   C46917263   1.126   6.453   4.257  0.1679 -0.1301  0.2675
   28MOL   C47017264   1.231   6.345   4.256  0.0352  0.2931 -0.8295
   28MOL   C47117265   1.186   6.224   4.170 -0.2931  0.0809  0.2728
   28MOL   C47217266   1.289   6.110   4.169  0.1552  0.9740  0.7356
   28MOL   C47317267   1.251   5.990   4.090  0.0698  0.3810 -0.0236
   28MOL   C47417268   1.379   5.897   4.071 -0.2640 -0.7815 -0.1106
   28MOL   C47517269   1.352   5.769   3.993 -0.5697  0.1070  0.3182
   28MOL   C47617270   1.480   5.701   3.951  0.1823 -0.2641 -0.5125
   28MOL   C47717271   0.900   6.617   4.407  0.5698  0.2244  0.0517
   28MOL   H47817272   0.894   6.507   4.213  1.3024 -1.6882 -0.8012
   28MOL   H47917273   1.166   6.551   4.285 -1.1336  0.6913 -0.6810
   28MOL   H48017274   1.088   6.477   4.157 -1.6948  1.8797  1.3929
   28MOL   H48117275   1.260   6.312   4.356  1.2887  2.2337 -0.5087
   28MOL   H48217276   1.319   6.381   4.203  1.1851  0.3678  1.0979
   28MOL   H48317277   1.097   6.172   4.204  0.1425 -2.0578 -1.7283
   28MOL   H48417278   1.150   6.255   4.072 -0.4805 -1.2400 -0.0914
   28MOL   H48517279   1.380   6.147   4.121 -0.6124 -1.3844 -2.6856
   28MOL   H48617280   1.323   6.079   4.268  2.2045  0.4699 -0.0914
   28MOL   H48717281   1.174   5.930   4.137  1.2825 -0.4080  0.9858
   28MOL   H48817282   1.215   6.023   3.993  1.4526  0.5725 -0.4944
   28MOL   H48917283   1.417   5.886   4.172  1.1030  1.3536 -0.3625
   28MOL   H49017284   1.463   5.955   4.034 -0.8588 -1.0648 -1.9536
   28MOL   H49117285   1.297   5.721   4.073 -0.2703 -0.1716  0.3554
   28MOL   H49217286   1.275   5.776   3.916 -1.5904 -0.9684  1.2290
   28MOL   H49317287   1.543   5.691   4.039  0.3976  1.2900 -0.4862
   28MOL   H49417288   1.532   5.760   3.876 -1.9522 -1.3398 -2.9226
   28MOL   H49517289   1.467   5.605   3.900 -0.7485 -0.9004  0.9123
   28MOL   H49617290   0.903   6.611   4.516  0.7488 -2.7741 -0.0742
   28MOL   H49717291   0.988   6.674   4.379  0.7449 -1.2966 -2.6752
   28MOL   C49817292   0.778   6.712   4.397  0.7067  0.8563 -0.1227
   28MOL   O49917293   0.665   6.669   4.481  0.2802  0.1654 -0.1006
   28MOL   C50017294   0.576   6.771   4.512  0.1944  0.5511 -0.1083
   28MOL   C50117295   0.580   6.798   4.665  0.5129  0.0408  0.2346
   28MOL   C50217296   0.714   6.840   4.714  0.0038  0.7849 -0.8297
   28MOL   C50317297   0.722   6.825   4.870 -0.4252  0.1408 -0.3904
   28MOL   C50417298   0.831   6.910   4.927 -0.2203  0.2293 -0.1077
   28MOL   C50517299   0.806   7.060   4.916 -0.3547  0.2827  0.0616
   28MOL   C50617300   0.917   7.140   4.989  0.4969 -0.2440 -0.2119
   28MOL   C50717301   0.909   7.286   4.945 -0.2853  0.0439  0.2959
   28MOL   C50817302   0.726   6.733   4.251 -0.0124 -0.1623  0.4400
   28MOL   H50917303   0.811   6.811   4.429 -0.2008  1.0782  0.1373
   28MOL   H51017304   0.473   6.740   4.493 -0.2174  2.9677 -2.1553
   28MOL   H51117305   0.589   6.863   4.456 -0.5068  0.5596 -0.2614
   28MOL   H51217306   0.550   6.702   4.706  0.8371  0.2493  0.9603
   28MOL   H51317307   0.509   6.875   4.697  2.3269  2.1380 -0.6844
   28MOL   H51417308   0.790   6.773   4.674  0.2128  0.2040  0.5000
   28MOL   H51517309   0.738   6.942   4.685 -0.3384  0.7813 -1.1303
   28MOL   H51617310   0.629   6.868   4.909  0.9834  2.1176  0.9100
   28MOL   H51717311   0.715   6.718   4.890  1.3466  0.1719  0.5095
   28MOL   H51817312   0.841   6.889   5.033 -0.7427  1.1426  0.1234
   28MOL   H51917313   0.935   6.884   4.905 -0.9427 -0.3538 -2.9899
   28MOL   H52017314   0.704   7.080   4.950  0.3750  1.4128  1.6177
   28MOL   H52117315   0.806   7.088   4.810 -0.9821  1.3578  0.3357
   28MOL   H52217316   0.907   7.130   5.097 -1.6198 -0.5303 -0.4243
   28MOL   H52317317   1.013   7.091   4.969 -1.1994 -2.8391 -2.4186
   28MOL   H52417318   0.939   7.290   4.840  0.2652 -1.8951  0.3600
   28MOL   H52517319   0.977   7.344   5.007  0.2290 -0.9653  0.6744
   28MOL   H52617320   0.810   7.330   4.951 -1.5060 -1.9912 -3.2123
   28MOL   H52717321   0.675   6.644   4.214 -0.3050 -0.5184  1.6637
   28MOL   H52817322   0.649   6.809   4.259 -0.9488 -0.9849 -0.4857
   28MOL   C52917323   0.823   6.799   4.146 -0.0150 -0.4875 -0.1440
   28MOL   O53017324   0.877   6.916   4.204  0.4308  0.3296  0.0755
   28MOL   C53117325   0.997   6.960   4.147  0.0502 -0.3216 -0.2329
   28MOL   C53217326   1.061   7.058   4.244 -0.6302 -0.9882  0.2439
   28MOL   C53317327   1.081   6.989   4.377  0.2575 -0.3310 -0.0467
   28MOL   C53417328   1.174   7.072   4.461  0.3137 -0.0488 -0.0492
   28MOL   C53517329   1.193   7.018   4.606 -0.3499  0.0231  0.4532
   28MOL   C53617330   1.292   7.098   4.688  0.3991  0.0186  0.3039
   28MOL   C53717331   1.428   7.040   4.707  1.0229  0.1121 -0.5573
   28MOL   C53817332   1.503   7.095   4.824 -0.7244  0.4591  0.3755
   28MOL   C53917333   0.744   6.824   4.014  0.6666  0.6860  0.6552
   28MOL   H54017334   0.901   6.724   4.133 -2.4947 -3.0587 -0.5913
   28MOL   H54117335   1.059   6.873   4.127  0.5402  0.3755 -1.8179
   28MOL   H54217336   0.979   7.011   4.052 -0.9383  1.0689  0.6746
   28MOL   H54317337   0.986   7.136   4.262 -0.4367 -0.1822 -2.2853
   28MOL   H54417338   1.145   7.106   4.195 -0.0321 -1.7967  0.4709
   28MOL   H54517339   0.989   6.985   4.436  1.3470 -1.4380  1.6207
   28MOL   H54617340   1.110   6.884   4.367  0.9919  0.0138 -1.6105
   28MOL   H54717341   1.274   7.078   4.416 -0.2845  0.6063 -1.3032
   28MOL   H54817342   1.141   7.175   4.475  1.2127  0.2673 -0.1964
   28MOL   H54917343   1.098   7.023   4.659 -1.3832 -2.5809 -1.0834
   28MOL   H55017344   1.212   6.911   4.608 -1.4964 -0.1746  0.8164
   28MOL   H55117345   1.243   7.098   4.785 -0.2867 -1.2113 -0.0435
   28MOL   H55217346   1.300   7.202   4.655 -0.1586  0.1626  0.6243
   28MOL   H55317347   1.419   6.932   4.717 -0.8495  0.4502  1.7408
   28MOL   H55417348   1.484   7.047   4.614  2.2389  2.5005  0.3139
   28MOL   H55517349   1.443   7.098   4.916  0.4094  0.7591  1.1111
   28MOL   H55617350   1.538   7.197   4.809  0.4058  0.3615  2.1497
   28MOL   H55717351   1.591   7.036   4.846 -1.3818  0.2001  2.4816
   28MOL   H55817352   0.650   6.873   4.041  0.2671 -1.3208  2.9979
   28MOL   H55917353   0.792   6.902   3.955  0.8306 -0.4713 -0.7780
   28MOL   C56017354   0.699   6.715   3.912 -0.2402  1.0810  0.6036
   28MOL   O56117355   0.814   6.682   3.842  0.4517  1.2778  0.0516
   28MOL   C56217356   0.828   6.540   3.796 -0.2990 -0.4389 -0.4861
   28MOL   C56317357   0.973   6.505   3.795  0.0123 -0.0817 -0.5168
   28MOL   C56417358   1.000   6.366   3.733  0.2163 -0.0304  0.0302
   28MOL   C56517359   1.148   6.327   3.715 -0.6828 -0.3182  0.0344
   28MOL   C56617360   1.180   6.183   3.717  0.7712  0.0209 -0.4599
   28MOL   C56717361   1.333   6.165   3.702  0.6097  0.4406 -0.0177
   28MOL   C56817362   1.388   6.015   3.696 -0.0914  0.6239 -0.1786
   28MOL   C56917363   1.537   6.008   3.732  0.5238 -0.0204 -0.0733
   28MOL   C57017364   0.590   6.752   3.810  0.3939 -0.1041 -0.1928
   28MOL   H57117365   0.669   6.623   3.964  2.0114 -1.9248 -3.1351
   28MOL   H57217366   0.785   6.528   3.696 -1.0253 -0.7799 -0.1307
   28MOL   H57317367   0.778   6.471   3.864 -1.2145 -1.2787 -1.9791
   28MOL   H57417368   1.012   6.500   3.897 -1.7022  1.0341  0.2301
   28MOL   H57517369   1.033   6.578   3.741  0.0841 -0.2616 -0.6785
   28MOL   H57617370   0.945   6.290   3.789 -0.0194  2.1758  2.9290
   28MOL   H57717371   0.952   6.369   3.635 -2.6079  0.1229  1.3631
   28MOL   H57817372   1.189   6.369   3.624  2.1788 -0.6485  1.1256
   28MOL   H57917373   1.202   6.368   3.800 -1.5738 -0.4698  0.6738
   28MOL   H58017374   1.143   6.127   3.803  0.6749  1.3888  0.4016
   28MOL   H58117375   1.131   6.138   3.630 -1.5402 -1.7165  1.6887
   28MOL   H58217376   1.385   6.219   3.782  1.1987  0.2892 -0.2976
   28MOL   H58317377   1.360   6.214   3.609 -1.0975 -0.6293 -1.0889
   28MOL   H58417378   1.329   5.961   3.771 -2.2347 -1.3090 -3.1498
   28MOL   H58517379   1.358   5.971   3.601 -1.1221  2.8579 -0.9108
   28MOL   H58617380   1.550   6.042   3.834 -0.8780  0.8853 -0.1798
   28MOL   H58717381   1.581   6.075   3.658 -0.6343  1.4591  0.5326
   28MOL   H58817382   1.574   5.906   3.728  0.8444 -0.0943  3.2498
   28MOL   H58917383   0.578   6.670   3.739 -2.9859  0.4399 -0.3177
   28MOL   H59017384   0.494   6.758   3.861 -0.7037 -1.5711 -2.0043
   28MOL   C59117385   0.618   6.879   3.725  0.5854 -0.2927  0.2853
   28MOL   O59217386   0.597   6.999   3.808 -0.1850  0.0645 -0.0886
   28MOL   C59317387   0.652   7.112   3.749 -0.5499  0.0485 -0.0011
   28MOL   C59417388   0.649   7.232   3.843  0.5560 -0.2623  0.3321
   28MOL   C59517389   0.713   7.213   3.985 -0.3588 -0.4830 -0.4513
   28MOL   C59617390   0.702   7.339   4.067 -0.4385  0.4689 -0.5546
   28MOL   C59717391   0.726   7.319   4.214  0.1308  0.4013  0.8521
   28MOL   C59817392   0.627   7.230   4.292  1.2492  0.2440 -0.0681
   28MOL   C59917393   0.631   7.237   4.447  0.3550 -0.1496 -0.6053
   28MOL   C60017394   0.727   7.144   4.513 -0.2138 -0.1381 -0.8873
   28MOL   C60117395   0.530   6.874   3.599 -0.2818 -0.9497 -0.1314
   28MOL   H60217396   0.722   6.875   3.692  0.9209 -1.8798  1.4795
   28MOL   H60317397   0.597   7.147   3.662 -1.7421 -2.1655 -0.1883
   28MOL   H60417398   0.760   7.093   3.740 -0.7160 -0.0512 -2.0693
   28MOL   H60517399   0.546   7.264   3.858  0.3113  1.5143 -4.4913
   28MOL   H60617400   0.699   7.320   3.803 -2.1626  1.2011  0.0522
   28MOL   H60717401   0.675   7.123   4.035 -1.8683  0.6540  0.4987
   28MOL   H60817402   0.821   7.202   3.975 -0.3036 -0.6322  0.3298
   28MOL   H60917403   0.776   7.413   4.038  0.4542 -0.7071 -1.3436
   28MOL   H61017404   0.604   7.386   4.065 -0.4792  0.6296  2.7766
   28MOL   H61117405   0.827   7.281   4.228 -0.8204 -1.6074  2.7396
   28MOL   H61217406   0.737   7.410   4.273  0.1934  0.4183  0.8139
   28MOL   H61317407   0.631   7.127   4.254  0.8508  0.5414 -0.9388
   28MOL   H61417408   0.528   7.264   4.262  1.3494  0.0861 -0.5870
   28MOL   H61517409   0.647   7.340   4.479  0.2210 -0.8458  1.7236
   28MOL   H61617410   0.536   7.217   4.497  1.2462 -0.1799  1.1040
   28MOL   H61717411   0.716   7.041   4.481  0.3813 -1.2229  2.1942
   28MOL   H61817412   0.729   7.143   4.622 -0.7988 -0.9004 -0.8873
   28MOL   H61917413   0.828   7.168   4.479 -0.1147 -0.4500 -0.8147
   28MOL   H62017414   0.529   6.781   3.543  2.9120 -1.1753  0.0834
   28MOL   H62117415   0.426   6.876   3.632 -0.1017  1.6039  0.3952
   28MOL   H62217416   0.551   6.956   3.530  0.1713  0.6777  1.8519
   29MOL     C117417   2.296   5.001   0.570 -0.4866  0.1476  0.4958
   29MOL     O217418   2.290   4.892   0.655  0.4540 -0.0410 -0.2943
   29MOL     C317419   2.257   4.926   0.789  0.3741 -0.3665  0.3427
   29MOL     C417420   2.269   4.802   0.883 -0.1448  0.3416 -0.1880
   29MOL     C517421   2.177   4.682   0.848 -0.4265 -0.4945 -0.7862
   29MOL     C617422   2.168   4.576   0.959  0.1709  0.0333 -0.0599
   29MOL     C717423   2.045   4.500   0.950  0.6953 -0.2015 -0.4891
   29MOL     C817424   2.032   4.429   0.820 -0.0313  0.2426  0.3344
   29MOL     C917425   1.929   4.315   0.816  1.4428  0.2327  0.0985
   29MOL    C1017426   1.916   4.258   0.671  0.2146 -0.4193  0.3524
   29MOL    C1117427   2.349   4.948   0.434  0.3308  0.7563 -0.4648
   29MOL    H1217428   2.202   5.051   0.547 -0.8213 -0.6838  0.0128
   29MOL    H1317429   2.151   4.950   0.797  0.1848 -0.8287 -0.7125
   29MOL    H1417430   2.309   5.013   0.829  0.1836  0.7160 -1.6849
   29MOL    H1517431   2.249   4.826   0.988 -0.1869 -0.6172  0.0288
   29MOL    H1617432   2.372   4.766   0.877  1.4488  4.6931 -1.1251
   29MOL    H1717433   2.082   4.719   0.809 -0.2206  1.4140  0.4426
   29MOL    H1817434   2.225   4.641   0.759  1.4277  0.4629 -0.2585
   29MOL    H1917435   2.264   4.526   0.972 -0.7820 -1.2846  2.2026
   29MOL    H2017436   2.166   4.628   1.055  0.5119 -3.1254  1.7232
   29MOL    H2117437   2.038   4.427   1.030  4.8317 -0.7974 -0.5662
   29MOL    H2217438   1.962   4.571   0.960  0.5213 -0.7172  2.0135
   29MOL    H2317439   2.128   4.384   0.797  0.2878  1.0551  0.0572
   29MOL    H2417440   2.010   4.498   0.738  2.1459  1.2509  0.5764
   29MOL    H2517441   1.961   4.241   0.889 -1.4271  0.7846  2.0104
   29MOL    H2617442   1.836   4.352   0.859  1.8033  1.3732 -0.1010
   29MOL    H2717443   1.838   4.181   0.666 -1.5089  1.3625 -0.7650
   29MOL    H2817444   2.012   4.222   0.634 -0.2593 -1.0893 -0.2407
   29MOL    H2917445   1.886   4.341   0.607 -2.4794 -2.1962 -0.7924
   29MOL    H3017446   2.291   4.866   0.391  0.6845 -0.3781  1.1835
   29MOL    H3117447   2.357   5.032   0.366 -1.4865  1.0227 -0.3891
   29MOL    H3217448   2.368   5.070   0.613 -2.2024  2.1008  0.2813
   29MOL    C3317449   2.492   4.885   0.440 -0.5392 -0.5461 -0.3456
   29MOL    O3417450   2.588   4.994   0.449  0.2903  0.1216 -0.2041
   29MOL    C3517451   2.701   4.961   0.531 -0.2205 -0.2853  0.0232
   29MOL    C3617452   2.812   5.056   0.486  1.2996 -0.2890 -0.2599
   29MOL    C3717453   2.821   5.185   0.563 -0.0612  0.4264 -0.6113
   29MOL    C3817454   2.906   5.291   0.490 -0.2194 -0.0433  0.2774
   29MOL    C3917455   2.928   5.421   0.563 -0.4297 -0.5278 -0.8130
   29MOL    C4017456   2.807   5.491   0.610  0.5830  0.3806  0.3914
   29MOL    C4117457   2.846   5.601   0.706  1.0937 -0.5211 -0.0154
   29MOL    C4217458   2.737   5.710   0.707 -0.4680 -0.3665 -0.6346
   29MOL    C4317459   2.522   4.800   0.318 -0.4860 -0.3368  1.3926
   29MOL    H4417460   2.515   4.814   0.519 -0.6030 -0.6360 -0.4089
   29MOL    H4517461   2.719   4.855   0.511 -0.5095 -0.6055  1.4074
   29MOL    H4617462   2.686   4.958   0.639 -3.3400  0.6857 -0.3391
   29MOL    H4717463   2.795   5.084   0.382 -1.2910  1.3029  0.5566
   29MOL    H4817464   2.911   5.011   0.483  0.1366 -3.0076  0.8503
   29MOL    H4917465   2.722   5.218   0.594 -0.4113 -0.3013 -0.9342
   29MOL    H5017466   2.877   5.159   0.653 -2.1284 -0.6171  0.4152
   29MOL    H5117467   3.001   5.246   0.464  1.0644  2.1684  1.0365
   29MOL    H5217468   2.870   5.315   0.389  1.7528  0.1891 -0.3972
   29MOL    H5317469   2.976   5.401   0.659  0.6970 -2.3039 -1.7105
   29MOL    H5417470   2.991   5.485   0.501  1.1529  0.3355  1.6330
   29MOL    H5517471   2.747   5.425   0.672 -1.6057  1.2111 -0.7872
   29MOL    H5617472   2.754   5.526   0.521  4.3007  2.2020 -1.2451
   29MOL    H5717473   2.875   5.564   0.805 -0.6570  1.5967  1.3361
   29MOL    H5817474   2.942   5.645   0.677  1.3172 -3.2432 -3.6768
   29MOL    H5917475   2.718   5.743   0.605  1.7867 -1.1273 -1.3474
   29MOL    H6017476   2.762   5.790   0.775  0.7762  1.0412 -2.6922
   29MOL    H6117477   2.640   5.670   0.736 -0.1740 -2.0574 -1.8472
   29MOL    H6217478   2.502   4.860   0.230 -1.5150  1.2744  2.6848
   29MOL    H6317479   2.631   4.798   0.324 -0.3950  1.0918  0.3569
   29MOL    C6417480   2.461   4.659   0.314  0.1857  0.1167  0.0019
   29MOL    O6517481   2.519   4.580   0.418 -0.1990 -0.4403 -0.2003
   29MOL    C6617482   2.424   4.524   0.511 -0.7786 -0.4078  0.3214
   29MOL    C6717483   2.497   4.449   0.634  0.2174 -0.8876 -0.0654
   29MOL    C6817484   2.564   4.540   0.736 -0.0536 -0.3226 -0.4706
   29MOL    C6917485   2.657   4.457   0.817 -0.1551  0.0617  0.1905
   29MOL    C7017486   2.740   4.526   0.922  0.2859  0.4322  1.5114
   29MOL    C7117487   2.811   4.433   1.020  0.1724 -0.3867  0.0246
   29MOL    C7217488   2.842   4.499   1.157 -0.2239 -0.8546  0.0703
   29MOL    C7317489   2.925   4.417   1.258 -0.2375 -0.5584 -1.4545
   29MOL    C7417490   2.501   4.571   0.193 -0.1542  0.3808  0.0469
   29MOL    H7517491   2.353   4.670   0.313  0.4778  3.4231 -0.4896
   29MOL    H7617492   2.363   4.454   0.454 -1.0448 -0.3990  0.5926
   29MOL    H7717493   2.356   4.603   0.543 -0.6417  0.0067 -0.4064
   29MOL    H7817494   2.567   4.378   0.591  1.4809  0.7516 -0.7562
   29MOL    H7917495   2.422   4.386   0.682 -2.3685  2.0343 -0.0998
   29MOL    H8017496   2.625   4.606   0.674 -0.6970  0.5727 -0.1810
   29MOL    H8117497   2.500   4.616   0.781  0.7033 -0.4812  0.8856
   29MOL    H8217498   2.593   4.381   0.862  0.1233 -0.6462 -0.5918
   29MOL    H8317499   2.725   4.397   0.757  0.5292 -2.0121  2.9120
   29MOL    H8417500   2.814   4.598   0.886 -2.1372  2.9820  1.4287
   29MOL    H8517501   2.678   4.593   0.981 -1.5974 -0.4009  0.5094
   29MOL    H8617502   2.900   4.386   0.978 -0.1314 -1.4322  0.5284
   29MOL    H8717503   2.735   4.357   1.041  0.1324 -0.8438 -1.6919
   29MOL    H8817504   2.895   4.592   1.135  1.2333 -1.7791 -0.4161
   29MOL    H8917505   2.746   4.528   1.198 -1.0402 -1.0406 -1.6474
   29MOL    H9017506   3.004   4.371   1.200  1.1913 -0.7859  0.6106
   29MOL    H9117507   2.867   4.346   1.317  3.3570 -2.2884  0.1697
   29MOL    H9217508   2.961   4.484   1.336 -1.1334 -0.8302 -0.7936
   29MOL    H9317509   2.606   4.586   0.167  0.4191 -3.0202  0.1622
   29MOL    H9417510   2.490   4.465   0.214  0.9106 -0.0134 -1.2550
   29MOL    C9517511   2.417   4.598   0.067 -1.2400  0.6722  0.0549
   29MOL    O9617512   2.297   4.527   0.077 -0.6312  0.1018 -0.0173
   29MOL    C9717513   2.183   4.606   0.035 -0.1645 -0.3476  0.6406
   29MOL    C9817514   2.058   4.533   0.083  0.5025  0.8937 -0.8658
   29MOL    C9917515   2.051   4.527   0.240 -0.1415 -0.1320  0.1691
   29MOL   C10017516   1.978   4.649   0.298 -0.0525 -0.3275 -0.3333
   29MOL   C10117517   1.929   4.638   0.440  0.3591  0.9366  0.1573
   29MOL   C10217518   1.881   4.771   0.507  0.2270  0.7351 -0.2204
   29MOL   C10317519   1.823   4.748   0.650 -0.6000 -0.5852 -0.2762
   29MOL   C10417520   1.791   4.878   0.715 -0.4110  0.4111 -0.2782
   29MOL   C10517521   2.482   4.570   7.702  0.7786 -0.5191 -0.2039
   29MOL   H10617522   2.397   4.705   0.064 -0.2660  0.8916  1.1680
   29MOL   H10717523   2.179   4.621   7.701  1.6797  1.4561  0.7854
   29MOL   H10817524   2.191   4.706   0.077  0.3599 -0.0050 -0.2454
   29MOL   H10917525   2.050   4.432   0.043 -0.2848  1.0531 -1.1208
   29MOL   H11017526   1.969   4.585   0.047  0.5984  0.9115 -1.0780
   29MOL   H11117527   1.983   4.444   0.255 -1.3007  0.3204 -2.3104
   29MOL   H11217528   2.145   4.506   0.291  0.5148  0.0898 -0.9398
   29MOL   H11317529   2.030   4.744   0.294 -0.8914  0.1796  0.6166
   29MOL   H11417530   1.890   4.661   0.235 -0.8901 -0.4378  0.8026
   29MOL   H11517531   1.847   4.566   0.443  0.7777  0.3293 -2.0575
   29MOL   H11617532   2.004   4.589   0.503  0.7658 -0.1868 -1.1781
   29MOL   H11717533   1.802   4.821   0.451  0.7491  0.2253 -1.4352
   29MOL   H11817534   1.966   4.839   0.515  0.0805  0.5784  3.4802
   29MOL   H11917535   1.732   4.687   0.653 -0.9195 -0.0734  0.7054
   29MOL   H12017536   1.896   4.692   0.709 -1.4617 -2.3011 -0.8021
   29MOL   H12117537   1.885   4.932   0.728  0.1411 -0.8491  1.1583
   29MOL   H12217538   1.744   4.867   0.813  2.3116 -2.5601  0.7822
   29MOL   H12317539   1.721   4.944   0.665 -0.2442 -1.3383 -2.8770
   29MOL   H12417540   2.419   4.608   7.622  1.4108 -0.6260 -0.7547
   29MOL   H12517541   2.568   4.635   7.691 -0.3470  1.3588  1.7115
   29MOL   C12617542   2.530   4.426   7.684 -0.3009  0.5835  0.6382
   29MOL   O12717543   2.647   4.435   7.605  0.0161  0.0688 -0.2830
   29MOL   C12817544   2.762   4.452   7.685  0.0145 -0.0733 -0.1219
   29MOL   C12917545   2.892   4.420   7.602 -0.4571 -0.1337 -0.8964
   29MOL   C13017546   2.893   4.275   7.548 -0.6560 -0.4416 -0.1642
   29MOL   C13117547   3.012   4.229   7.458 -0.3923 -0.0662 -0.0227
   29MOL   C13217548   2.981   4.109   7.361 -0.0432 -0.6980 -0.1531
   29MOL   C13317549   3.061   4.103   7.233  0.9715 -0.4166  0.1007
   29MOL   C13417550   3.071   3.963   7.165 -0.0965 -0.2462  0.2977
   29MOL   C13517551   2.927   3.909   7.136 -0.4460 -0.0320 -0.2390
   29MOL   C13617552   2.433   4.337   7.602  0.1833 -0.9938 -1.0104
   29MOL   H13717553   2.554   4.384   0.007  1.9726  0.7678  0.1662
   29MOL   H13817554   2.773   4.393   0.001  1.2350  2.3869  1.3949
   29MOL   H13917555   2.771   4.559   7.703  1.5749  0.2036 -2.2592
   29MOL   H14017556   2.980   4.434   7.665  0.7885  0.5045 -2.7121
   29MOL   H14117557   2.898   4.499   7.527 -2.3421 -1.0807 -2.0756
   29MOL   H14217558   2.891   4.200   7.627 -0.2568 -0.1250  0.1462
   29MOL   H14317559   2.804   4.267   7.486  0.0781  0.3390 -1.3555
   29MOL   H14417560   3.055   4.311   7.400  1.7723 -0.6004  0.7631
   29MOL   H14517561   3.103   4.213   7.516 -0.7623 -4.9321 -0.5951
   29MOL   H14617562   2.993   4.021   7.423  1.1800 -1.1106 -0.9669
   29MOL   H14717563   2.874   4.118   7.342 -0.5844  3.3162  4.0414
   29MOL   H14817564   3.165   4.130   7.252  1.2370 -0.7480 -0.8720
   29MOL   H14917565   3.020   4.170   7.158 -1.1101  0.5944  2.0883
   29MOL   H15017566   3.116   3.967   7.065 -0.4954  0.2799  0.1389
   29MOL   H15117567   3.130   3.890   7.220  2.5998  1.5920 -0.0499
   29MOL   H15217568   2.854   3.910   7.218  0.6466  3.6865  0.7959
   29MOL   H15317569   2.939   3.804   7.110  1.0101 -0.7426  3.0374
   29MOL   H15417570   2.891   3.960   7.047 -2.9927 -0.3338  0.5693
   29MOL   H15517571   2.331   4.368   7.623  0.9253  0.5269  0.4169
   29MOL   H15617572   2.452   4.360   7.497 -1.1100  1.4744 -0.7509
   29MOL   C15717573   2.450   4.182   7.625  0.2764  0.1067  0.5252
   29MOL   O15817574   2.353   4.119   7.536 -0.3413  0.9308  0.1506
   29MOL   C15917575   2.404   4.098   7.399 -0.7911 -0.5201 -0.2062
   29MOL   C16017576   2.291   4.042   7.303  0.9116 -0.1574  0.3395
   29MOL   C16117577   2.339   4.040   7.162 -0.4672 -0.1466  0.8334
   29MOL   C16217578   2.228   4.002   7.054 -0.0290  0.2755 -0.0821
   29MOL   C16317579   2.289   3.949   6.925  0.2193 -0.0990  0.8118
   29MOL   C16417580   2.192   3.957   6.808  0.5922  0.6173 -0.4138
   29MOL   C16517581   2.250   3.899   6.678 -0.2473  0.2412 -0.4233
   29MOL   C16617582   2.363   3.978   6.605  0.3127  0.7439 -0.0667
   29MOL   C16717583   2.403   4.145   7.762  0.7465  0.6035 -0.2306
   29MOL   H16817584   2.553   4.149   7.615  0.8231  1.5953  0.9976
   29MOL   H16917585   2.489   4.030   7.410 -0.1164  0.3550  0.0051
   29MOL   H17017586   2.440   4.192   7.359 -2.2908  0.3961  0.5652
   29MOL   H17117587   2.208   4.113   7.304 -0.2717 -1.4742 -0.9415
   29MOL   H17217588   2.238   3.954   7.339  0.8284 -0.5894 -0.8240
   29MOL   H17317589   2.380   4.133   7.123 -0.2805 -0.3559  0.5293
   29MOL   H17417590   2.421   3.969   7.154  0.4353  1.1582 -2.3596
   29MOL   H17517591   2.160   3.928   7.095  0.0195  0.7214  0.8225
   29MOL   H17617592   2.166   4.091   7.039  1.6807  1.5058 -0.0579
   29MOL   H17717593   2.382   4.004   6.909 -0.3598  0.3415 -1.1330
   29MOL   H17817594   2.304   3.842   6.940  0.4115 -0.1803  0.0376
   29MOL   H17917595   2.160   4.060   6.791 -0.9420  0.1900 -0.1665
   29MOL   H18017596   2.100   3.903   6.830  1.1899 -0.6059 -0.8763
   29MOL   H18117597   2.288   3.799   6.696  2.3615  1.4248  1.0364
   29MOL   H18217598   2.171   3.888   6.604  0.7979 -0.7434 -1.4059
   29MOL   H18317599   2.368   3.952   6.499 -1.4169  0.6705 -0.1411
   29MOL   H18417600   2.462   3.950   6.641  0.0583  0.8644  0.7224
   29MOL   H18517601   2.355   4.085   6.621 -0.7433  1.1467 -3.0443
   29MOL   H18617602   2.410   4.225   0.062 -0.9904 -1.8486  2.6921
   29MOL   H18717603   2.295   4.126   7.760  0.6231  1.1307  1.1216
   29MOL   C18817604   2.464   4.021   0.052 -0.0919  0.3951  0.1341
   29MOL   O18917605   2.604   4.054   0.081  0.5111 -0.2649 -0.0354
   29MOL   C19017606   2.630   4.131   0.199  0.2788 -0.3048 -0.3812
   29MOL   C19117607   2.782   4.175   0.198 -0.4863 -0.8924 -0.9589
   29MOL   C19217608   2.815   4.285   0.305 -0.6341 -0.2134  0.5995
   29MOL   C19317609   2.946   4.356   0.288 -0.3671  0.5362 -0.2422
   29MOL   C19417610   2.959   4.471   0.392 -0.4193  0.4976 -0.1309
   29MOL   C19517611   2.896   4.611   0.354  0.3439  0.3806  0.5516
   29MOL   C19617612   2.939   4.651   0.211 -0.0650 -0.4645  0.0364
   29MOL   C19717613   2.889   4.794   0.177  0.8371  0.1256  0.2032
   29MOL   C19817614   2.455   3.889   7.747  0.3973 -0.2152  0.0706
   29MOL   H19917615   2.423   4.005   0.152 -2.6292  0.8103 -0.8073
   29MOL   H20017616   2.571   4.222   0.207  1.7971  0.6613 -0.0198
   29MOL   H20117617   2.612   4.063   0.282  0.8449 -0.4710 -0.3891
   29MOL   H20217618   2.804   4.224   0.103 -1.0055 -1.0858 -1.1842
   29MOL   H20317619   2.851   4.092   0.210  2.4385  1.4381 -1.1233
   29MOL   H20417620   2.738   4.362   0.299 -1.2351 -0.9717 -2.2245
   29MOL   H20517621   2.811   4.241   0.404 -0.2471 -0.6466  0.4255
   29MOL   H20617622   3.017   4.281   0.321  0.7054  0.7691 -1.9626
   29MOL   H20717623   2.982   4.399   0.194 -0.2883  0.3909 -0.2786
   29MOL   H20817624   2.930   4.442   0.493 -1.3707  1.1716 -0.2090
   29MOL   H20917625   3.062   4.506   0.397  0.3258 -1.7589  0.9848
   29MOL   H21017626   2.920   4.689   0.426 -1.7652  2.6700 -1.1697
   29MOL   H21117627   2.788   4.608   0.367  0.4178 -0.1914  1.0567
   29MOL   H21217628   3.047   4.644   0.199 -0.0949 -1.3011  0.2606
   29MOL   H21317629   2.892   4.590   0.134  0.8468 -0.1603 -0.7816
   29MOL   H21417630   2.952   4.844   0.103 -2.3756  0.0083 -2.7538
   29MOL   H21517631   2.896   4.861   0.263 -0.1621  1.0610 -0.4284
   29MOL   H21617632   2.782   4.801   0.157  0.8913  2.3365  0.5573
   29MOL   H21717633   2.386   3.908   7.665  2.7168 -2.1266 -2.4025
   29MOL   H21817634   2.553   3.865   7.707 -0.0928 -0.3661 -1.0774
   29MOL   C21917635   2.387   3.784   0.066  0.2189 -0.2561 -0.4437
   29MOL   O22017636   2.473   3.770   0.186 -0.5665  0.3269  0.3175
   29MOL   C22117637   2.415   3.709   0.297 -0.0673  0.5182 -0.2619
   29MOL   C22217638   2.530   3.693   0.402 -0.1113  0.2243  0.3178
   29MOL   C22317639   2.598   3.826   0.447 -0.3179 -0.4544 -0.5853
   29MOL   C22417640   2.668   3.811   0.585 -0.5073  0.3869 -0.5975
   29MOL   C22517641   2.744   3.934   0.641 -0.4190  0.2514 -0.1166
   29MOL   C22617642   2.768   3.931   0.792 -0.3272 -0.4510  0.8779
   29MOL   C22717643   2.873   4.036   0.846 -0.3997 -0.1090  0.2260
   29MOL   C22817644   2.871   4.027   0.999 -0.0048  0.3158 -0.3557
   29MOL   C22917645   2.381   3.644   7.773 -0.2598 -0.2621  0.4817
   29MOL   H23017646   2.287   3.819   0.088 -0.6386 -2.9605  0.1342
   29MOL   H23117647   2.371   3.615   0.265  1.7056  0.4888 -2.7701
   29MOL   H23217648   2.341   3.787   0.319 -1.2968 -0.8863  0.7022
   29MOL   H23317649   2.606   3.627   0.361 -1.0301  2.0446 -4.6712
   29MOL   H23417650   2.472   3.650   0.484 -1.3454 -0.8752 -1.1103
   29MOL   H23517651   2.668   3.845   0.366 -1.4575 -1.3598 -1.7803
   29MOL   H23617652   2.529   3.911   0.447 -1.0817 -1.0353 -3.8875
   29MOL   H23717653   2.590   3.793   0.659  0.6691 -1.0587  0.3223
   29MOL   H23817654   2.739   3.728   0.582  1.9016  2.3890 -0.7187
   29MOL   H23917655   2.841   3.939   0.591 -0.4426  0.4745 -0.1419
   29MOL   H24017656   2.695   4.027   0.611 -1.5853  0.5209  2.5142
   29MOL   H24117657   2.802   3.834   0.828 -3.0217 -1.3519  1.0869
   29MOL   H24217658   2.666   3.941   0.828 -0.5824  0.9345 -0.1943
   29MOL   H24317659   2.971   4.009   0.806  0.3369  0.4812  1.5921
   29MOL   H24417660   2.841   4.134   0.811 -1.8927 -1.0028 -0.9799
   29MOL   H24517661   2.767   4.040   1.030 -0.5800  2.1408 -2.9138
   29MOL   H24617662   2.942   4.096   1.046 -0.9772  0.4927  0.8636
   29MOL   H24717663   2.911   3.927   1.019  1.4480  1.0551  0.5797
   29MOL   H24817664   2.483   3.610   7.755 -0.4720  0.5568 -2.4948
   29MOL   H24917665   2.334   3.575   0.068 -0.1720 -0.7053  0.1002
   29MOL   C25017666   2.302   3.644   7.639 -0.3721  0.5734  0.2529
   29MOL   O25117667   2.168   3.671   7.665 -0.0573 -0.3987 -0.0894
   29MOL   C25217668   2.102   3.750   7.564 -1.0416  0.3628  0.3527
   29MOL   C25317669   1.978   3.822   7.623  0.0711  0.2107 -0.1152
   29MOL   C25417670   2.006   3.907   7.741  0.4020 -0.2539  0.0615
   29MOL   C25517671   1.908   4.011   0.013 -0.0774 -0.1470  0.3724
   29MOL   C25617672   1.929   4.054   0.159 -0.4729  0.5390 -0.2101
   29MOL   C25717673   2.063   4.113   0.198 -0.3701 -0.3436 -0.1938
   29MOL   C25817674   2.073   4.131   0.349 -0.2440 -0.2070 -0.0663
   29MOL   C25917675   2.215   4.154   0.390  0.5742  0.1925 -0.3872
   29MOL   C26017676   2.303   3.501   7.576 -0.1675 -0.6766  0.1327
   29MOL   H26117677   2.342   3.714   7.565 -0.5240  0.5707  0.1677
   29MOL   H26217678   2.069   3.686   7.482 -2.5012 -2.4178  3.0258
   29MOL   H26317679   2.176   3.820   7.523  0.1183 -0.1191  1.5889
   29MOL   H26417680   1.884   3.770   7.636  0.0342  0.3280  0.0910
   29MOL   H26517681   1.949   3.895   7.547 -2.1882 -1.4570 -0.8952
   29MOL   H26617682   2.019   3.840   0.052 -1.8758  0.4263  0.9637
   29MOL   H26717683   2.104   3.955   7.736  0.8682 -1.3642 -2.4619
   29MOL   H26817684   1.910   4.093   7.716 -1.0173 -0.7558 -0.3614
   29MOL   H26917685   1.805   3.978   0.000 -0.0832 -0.1556  0.4380
   29MOL   H27017686   1.847   4.115   0.200 -0.2306 -0.2650  1.5344
   29MOL   H27117687   1.902   3.966   0.217  2.0200  1.2110  2.0844
   29MOL   H27217688   2.077   4.207   0.145 -0.6928 -1.1790 -1.7753
   29MOL   H27317689   2.148   4.052   0.165 -1.1904 -1.0930 -0.9383
   29MOL   H27417690   2.007   4.212   0.382 -2.6895 -2.5580  1.0310
   29MOL   H27517691   2.050   4.040   0.404  0.8108 -1.4022 -1.5577
   29MOL   H27617692   2.261   4.228   0.324 -0.5885 -0.6477 -2.1533
   29MOL   H27717693   2.272   4.061   0.381 -1.3376 -1.2399  1.6980
   29MOL   H27817694   2.236   4.204   0.485 -3.9876 -1.1102  1.4247
   29MOL   H27917695   2.293   3.422   7.651 -2.5511 -1.5222 -1.0160
   29MOL   H28017696   2.214   3.487   7.515 -0.0995 -0.4599 -0.0169
   29MOL   C28117697   2.430   3.485   7.481  0.6530 -0.6776 -0.6107
   29MOL   O28217698   2.409   3.569   7.369  0.3275  0.1875  0.1923
   29MOL   C28317699   2.522   3.654   7.335  0.7109 -0.3478  0.2763
   29MOL   C28417700   2.513   3.711   7.198 -0.4279 -0.5717 -0.8537
   29MOL   C28517701   2.551   3.613   7.083 -0.3639  1.0040  0.7014
   29MOL   C28617702   2.513   3.672   6.944 -0.1848 -0.5472 -0.8754
   29MOL   C28717703   2.565   3.594   6.828  1.3048  0.1731 -0.5444
   29MOL   C28817704   2.686   3.661   6.767 -0.0505  0.1171 -0.2730
   29MOL   C28917705   2.810   3.673   6.853  0.8810  0.3039 -0.4809
   29MOL   C29017706   2.929   3.715   6.773  0.3138  0.4224  0.0757
   29MOL   C29117707   2.456   3.348   7.427  0.5951  0.4990  0.7968
   29MOL   H29217708   2.509   3.527   7.542  0.5533 -1.7584  0.2890
   29MOL   H29317709   2.614   3.596   7.339  0.2835 -1.0996 -0.6743
   29MOL   H29417710   2.525   3.740   7.402  0.5891  1.6870 -2.2587
   29MOL   H29517711   2.582   3.795   7.206 -1.4034  0.0446  1.3470
   29MOL   H29617712   2.407   3.735   7.187 -0.2727  0.8510  0.7442
   29MOL   H29717713   2.658   3.601   7.092 -0.4493 -0.5561 -0.1908
   29MOL   H29817714   2.508   3.515   7.102  1.0755  0.3128  0.4499
   29MOL   H29917715   2.405   3.660   6.949 -0.0660 -1.0149  1.3684
   29MOL   H30017716   2.543   3.777   6.939 -1.1049 -0.3166 -1.6773
   29MOL   H30117717   2.593   3.489   6.838  0.8846  0.1647  0.6293
   29MOL   H30217718   2.488   3.598   6.751  3.3493  0.9250 -2.6371
   29MOL   H30317719   2.658   3.757   6.723 -0.2050  0.3806  0.3929
   29MOL   H30417720   2.706   3.598   6.680 -1.6125 -2.0518  0.8893
   29MOL   H30517721   2.789   3.740   6.936 -1.0573 -0.2091 -0.5296
   29MOL   H30617722   2.833   3.578   6.901 -2.6656  0.7915  2.4274
   29MOL   H30717723   3.020   3.717   6.833  0.1625 -1.0643  0.3716
   29MOL   H30817724   2.909   3.819   6.745 -0.0221 -0.0967 -1.6549
   29MOL   H30917725   2.944   3.654   6.684 -3.4953 -0.2771 -0.1765
   29MOL   H31017726   2.363   3.314   7.381  0.3668  1.5894  0.4285
   29MOL   H31117727   2.539   3.358   7.357  1.3764 -1.0010  1.4874
   29MOL   C31217728   2.509   3.247   7.525 -0.3095 -0.0169 -0.0268
   29MOL   O31317729   2.634   3.295   7.571  0.0061 -0.1896 -0.1393
   29MOL   C31417730   2.671   3.257   7.694  0.2338  1.0264 -0.2430
   29MOL   C31517731   2.779   3.354   7.742  0.4534  0.0216 -0.0988
   29MOL   C31617732   2.828   3.304   0.105  0.1783 -0.0303 -0.5164
   29MOL   C31717733   2.971   3.353   0.146 -0.2695 -0.2546 -0.1401
   29MOL   C31817734   3.001   3.324   0.291  0.2708 -0.2370 -0.4339
   29MOL   C31917735   3.130   3.387   0.334  0.1220  0.4499 -0.5426
   29MOL   C32017736   3.151   3.396   0.486  0.1089  0.7597  0.0117
   29MOL   C32117737   3.296   3.426   0.534 -0.0421  0.3233 -0.1658
   29MOL   C32217738   2.526   3.116   7.453 -0.3350  0.7889  0.3448
   29MOL   H32317739   2.426   3.227   7.593  0.2135  0.0458  0.6281
   29MOL   H32417740   2.711   3.158   7.672  1.1765  1.4005 -0.2232
   29MOL   H32517741   2.581   3.258   7.756 -0.3943 -3.0397 -0.9299
   29MOL   H32617742   2.744   3.456   7.761 -0.0919  0.0501 -1.2214
   29MOL   H32717743   2.862   3.345   7.672 -1.3028  0.1448 -2.2606
   29MOL   H32817744   2.757   3.336   0.181  0.4886 -0.3546 -0.0855
   29MOL   H32917745   2.828   3.196   0.094  0.5635  0.0053 -0.9090
   29MOL   H33017746   3.036   3.307   0.071 -1.0799  0.2378 -1.1654
   29MOL   H33117747   2.978   3.460   0.127 -0.5830 -0.0178  1.1001
   29MOL   H33217748   2.923   3.345   0.364  0.0639  0.4167 -0.8421
   29MOL   H33317749   3.010   3.216   0.302  1.3722  0.0803  2.4568
   29MOL   H33417750   3.137   3.487   0.291  1.7840  2.2371  3.6314
   29MOL   H33517751   3.210   3.328   0.289  1.7577  1.4657  0.9751
   29MOL   H33617752   3.084   3.476   0.516 -1.7095 -0.2185 -1.3746
   29MOL   H33717753   3.115   3.301   0.526 -1.2210  0.3329 -2.1171
   29MOL   H33817754   3.359   3.351   0.485  0.0181  0.9193 -1.0168
   29MOL   H33917755   3.305   3.420   0.642 -2.0504 -1.3693 -0.0535
   29MOL   H34017756   3.329   3.525   0.502  0.3839  0.4459  0.6537
   29MOL   H34117757   2.555   3.132   7.349  1.3455  0.0489  0.6762
   29MOL   H34217758   2.603   3.049   7.491 -1.2737 -0.5074 -0.0063
   29MOL   C34317759   2.404   3.019   7.460  0.0345 -0.0480 -0.7268
   29MOL   O34417760   2.393   2.984   7.603 -0.6878  0.0550 -0.3157
   29MOL   C34517761   2.266   2.920   7.630 -0.2901  0.5616  0.8897
   29MOL   C34617762   2.148   3.022   7.628 -0.3074 -0.1314 -0.6256
   29MOL   C34717763   2.019   2.973   7.685 -0.1894  0.2817 -0.5305
   29MOL   C34817764   1.913   3.084   7.704  0.1356 -0.4858  0.1033
   29MOL   C34917765   1.796   3.012   0.004 -1.5077  0.4627  0.4476
   29MOL   C35017766   1.677   3.105   0.002  0.3014 -0.0616  0.1519
   29MOL   C35117767   1.554   3.028   0.048  0.0790 -0.0545  0.1362
   29MOL   C35217768   1.556   2.999   0.198  0.3096  1.0574 -0.0712
   29MOL   C35317769   2.434   2.884   7.394 -0.5557  0.2494 -0.7289
   29MOL   H35417770   2.322   3.081   7.424  0.8385  1.2738 -0.3370
   29MOL   H35517771   2.274   2.882   7.732  1.0814 -2.7723 -0.4042
   29MOL   H35617772   2.238   2.832   7.573  2.6199 -0.3251  0.7680
   29MOL   H35717773   2.129   3.051   7.524 -2.1954  1.2456  0.0698
   29MOL   H35817774   2.179   3.110   7.684 -0.0416  0.1938 -1.2709
   29MOL   H35917775   1.986   2.885   7.630  0.2151 -1.3954  1.7821
   29MOL   H36017776   2.039   2.938   0.013 -0.2515  0.3721 -0.4886
   29MOL   H36117777   1.946   3.169   7.764 -0.5053  0.3339 -0.7123
   29MOL   H36217778   1.892   3.122   7.604  0.0744  0.4969  0.4812
   29MOL   H36317779   1.778   2.911   7.740 -0.1908 -0.1253  1.3404
   29MOL   H36417780   1.829   2.992   0.106  0.9737 -0.4211 -0.4942
   29MOL   H36517781   1.658   3.144   7.676 -1.1337 -0.8138  0.1165
   29MOL   H36617782   1.696   3.186   0.072  2.0724  0.1359 -0.5216
   29MOL   H36717783   1.460   3.077   0.023  1.4859  2.4878 -0.2890
   29MOL   H36817784   1.538   2.935   7.767  1.5557 -1.7919  2.5323
   29MOL   H36917785   1.459   2.963   0.232 -0.9179  3.4812 -0.8499
   29MOL   H37017786   1.588   3.072   0.272  3.5586 -2.3649  2.0248
   29MOL   H37117787   1.621   2.914   0.216  0.0673  0.9628  0.3542
   29MOL   H37217788   2.540   2.868   7.410 -0.7746  1.2195  1.9474
   29MOL   H37317789   2.387   2.799   7.444  1.4305  0.2605  1.2228
   29MOL   C37417790   2.414   2.887   7.245 -0.3413 -0.7300  0.7002
   29MOL   O37517791   2.269   2.900   7.239  0.0424  0.5318  0.5682
   29MOL   C37617792   2.234   2.980   7.133  0.2671 -0.2681  0.4060
   29MOL   C37717793   2.100   3.044   7.169  0.2006 -0.3620  0.0784
   29MOL   C37817794   1.981   2.955   7.203  0.0380  0.2918  0.6905
   29MOL   C37917795   1.867   3.037   7.254 -0.0873  1.1581  0.0712
   29MOL   C38017796   1.744   2.951   7.261 -0.5905  0.2340 -0.0141
   29MOL   C38117797   1.640   2.991   7.362 -0.4248  0.8048  0.1505
   29MOL   C38217798   1.542   3.109   7.319  0.1912  0.2857  0.0255
   29MOL   C38317799   1.445   3.156   7.437 -0.7185 -0.6090  0.4684
   29MOL   C38417800   2.459   2.760   7.176 -0.2699  0.3240  0.6107
   29MOL   H38517801   2.471   2.971   7.206  0.3180 -2.0937 -1.3251
   29MOL   H38617802   2.222   2.930   7.036  1.5973 -2.0535  1.1313
   29MOL   H38717803   2.308   3.059   7.124  0.1312 -0.0209  1.3885
   29MOL   H38817804   2.059   3.110   7.092 -1.6810 -0.2731  1.1249
   29MOL   H38917805   2.123   3.104   7.257  0.0851 -1.0639  0.5894
   29MOL   H39017806   1.941   2.915   7.110 -0.5973 -0.5603  1.3164
   29MOL   H39117807   1.995   2.871   7.272 -0.0694 -0.4089 -0.1376
   29MOL   H39217808   1.896   3.068   7.354 -0.3230  0.1259  0.4645
   29MOL   H39317809   1.853   3.126   7.193 -2.1345 -0.2422 -1.6120
   29MOL   H39417810   1.696   2.945   7.164 -1.4670 -2.5199  0.5585
   29MOL   H39517811   1.764   2.847   7.287  2.9644  0.8344 -0.0457
   29MOL   H39617812   1.692   3.019   7.454 -0.8166  0.9852  0.3177
   29MOL   H39717813   1.577   2.907   7.390 -0.6120  1.3682  1.4283
   29MOL   H39817814   1.599   3.194   7.284 -0.7265  0.0705 -2.0856
   29MOL   H39917815   1.484   3.079   7.232  0.4828 -1.3471  0.3660
   29MOL   H40017816   1.364   3.084   7.454  0.3977 -1.9509  0.1876
   29MOL   H40117817   1.386   3.245   7.415 -2.5856 -2.2449 -1.5211
   29MOL   H40217818   1.499   3.173   7.530  2.4402  2.6821 -1.8312
   29MOL   H40317819   2.425   2.669   7.225  2.3005 -1.3145 -0.5574
   29MOL   H40417820   2.399   2.763   7.085 -1.7514  0.5596  1.5668
   29MOL   C40517821   2.606   2.760   7.126  0.9980  0.0913 -0.2231
   29MOL   O40617822   2.619   2.880   7.052 -0.3439 -0.6475  0.1147
   29MOL   C40717823   2.748   2.934   7.040  0.4322 -0.3038 -0.0198
   29MOL   C40817824   2.739   3.061   7.127 -0.3888  0.3616 -0.3999
   29MOL   C40917825   2.857   3.150   7.127 -0.4700  0.4897 -0.0625
   29MOL   C41017826   2.835   3.265   7.227  0.1108  0.0994 -0.3220
   29MOL   C41117827   2.950   3.368   7.207  0.2086 -0.1277 -0.0491
   29MOL   C41217828   2.953   3.477   7.315  0.1950  0.7227  0.1582
   29MOL   C41317829   3.078   3.567   7.310  0.1309 -0.2372 -0.0199
   29MOL   C41417830   3.078   3.652   7.441  0.2240  0.9481  0.1212
   29MOL   C41517831   2.639   2.644   7.027 -0.1019 -0.1934  0.0597
   29MOL   H41617832   2.678   2.751   7.208 -0.6005 -0.0234  1.2054
   29MOL   H41717833   2.763   2.961   6.936 -4.1067 -1.6393 -1.1351
   29MOL   H41817834   2.823   2.866   7.081  1.5390  1.0133  0.1881
   29MOL   H41917835   2.728   3.037   7.233 -0.7946 -0.6056 -0.6559
   29MOL   H42017836   2.646   3.113   7.103  0.0439  2.1134  1.5672
   29MOL   H42117837   2.952   3.105   7.154 -0.5572  0.9297  1.0128
   29MOL   H42217838   2.866   3.193   7.027 -1.4165  1.7791  0.3871
   29MOL   H42317839   2.736   3.302   7.199 -1.0655 -2.7901 -0.2010
   29MOL   H42417840   2.838   3.228   7.329 -0.1394 -1.2833 -0.7997
   29MOL   H42517841   3.049   3.324   7.209  0.4760  0.5190  1.4095
   29MOL   H42617842   2.944   3.423   7.113 -1.4369  2.4104  1.4781
   29MOL   H42717843   2.938   3.442   7.417 -1.1514 -0.5670 -0.4403
   29MOL   H42817844   2.867   3.534   7.278 -0.9397 -2.7006 -2.8269
   29MOL   H42917845   3.169   3.508   7.305  0.8919  0.8183  1.0684
   29MOL   H43017846   3.084   3.631   7.221  0.9386  0.0254  0.2245
   29MOL   H43117847   3.071   3.596   7.534 -0.8207  1.9525  0.6568
   29MOL   H43217848   2.997   3.725   7.437 -0.4693  0.0793 -2.4888
   29MOL   H43317849   3.174   3.703   7.435  1.0665 -0.6396 -0.1053
   29MOL   H43417850   2.747   2.647   7.012  0.3345  0.0041  2.9728
   29MOL   H43517851   2.612   2.549   7.073  0.5579 -0.5656 -0.3284
   29MOL   C43617852   2.575   2.666   6.879  0.4896 -0.1225 -0.0853
   29MOL   O43717853   2.445   2.630   6.893 -0.3559 -0.8047 -0.0282
   29MOL   C43817854   2.353   2.714   6.826  0.6306 -0.1754 -0.4284
   29MOL   C43917855   2.207   2.672   6.847  0.5544  0.2542  0.2133
   29MOL   C44017856   2.117   2.720   6.732  0.0001  0.0945  0.5659
   29MOL   C44117857   1.979   2.668   6.714  0.0407 -0.0352 -1.0196
   29MOL   C44217858   1.909   2.712   6.591 -0.1882  0.2735  0.0243
   29MOL   C44317859   1.763   2.658   6.575  0.1326 -0.4791 -0.4189
   29MOL   C44417860   1.692   2.715   6.452 -0.1747  0.0552  0.8922
   29MOL   C44517861   1.773   2.706   6.320  0.6762 -0.4386  0.5367
   29MOL   C44617862   2.628   2.570   6.764  0.4294 -0.1544 -0.2604
   29MOL   H44717863   2.593   2.764   6.836 -1.1007 -0.4697 -1.5928
   29MOL   H44817864   2.373   2.817   6.856  1.7278 -0.2288 -0.9321
   29MOL   H44917865   2.379   2.713   6.720  2.3482  1.8217 -0.0666
   29MOL   H45017866   2.168   2.718   6.938 -0.8872 -1.5171  0.5261
   29MOL   H45117867   2.203   2.564   6.853  0.5191  0.2249 -0.2697
   29MOL   H45217868   2.122   2.828   6.732 -3.1389  0.2886 -0.4284
   29MOL   H45317869   2.167   2.703   6.637  0.0215 -1.8912  0.8918
   29MOL   H45417870   1.988   2.559   6.719  0.2390  0.0005 -0.6096
   29MOL   H45517871   1.922   2.690   6.804  0.5125  1.5560 -1.1061
   29MOL   H45617872   1.905   2.820   6.578 -2.4481  0.3301  1.0146
   29MOL   H45717873   1.973   2.669   6.514  1.9270 -0.6667  2.2229
   29MOL   H45817874   1.693   2.682   6.656 -1.3703 -0.7882 -1.5991
   29MOL   H45917875   1.754   2.550   6.561  0.3847 -0.3539 -1.6079
   29MOL   H46017876   1.590   2.678   6.445 -0.7931  1.8068  0.4533
   29MOL   H46117877   1.666   2.819   6.476  0.5278  1.0850 -2.5825
   29MOL   H46217878   1.711   2.747   6.239  3.6529  1.5674 -0.8161
   29MOL   H46317879   1.807   2.605   6.296  1.3896  0.6185 -3.2285
   29MOL   H46417880   1.870   2.755   6.330  0.5694  0.2348 -1.3612
   29MOL   H46517881   2.600   2.466   6.783  1.4691 -0.3279  0.3838
   29MOL   H46617882   2.570   2.588   6.674  2.2095  0.2333 -1.3629
   29MOL   C46717883   2.779   2.581   6.732  0.5342 -0.6183  0.4772
   29MOL   O46817884   2.799   2.710   6.681 -0.6533 -0.2140  0.0210
   29MOL   C46917885   2.928   2.770   6.713 -0.0470  0.5837 -0.0221
   29MOL   C47017886   2.917   2.918   6.688  0.0018 -0.5062 -0.0935
   29MOL   C47117887   3.032   3.012   6.725  0.3468  0.1085  0.3095
   29MOL   C47217888   3.008   3.163   6.708  0.9377  0.2485  0.4007
   29MOL   C47317889   3.124   3.265   6.735  0.9486 -0.1213 -0.8044
   29MOL   C47417890   3.157   3.305   6.878 -0.6991  0.4458  1.0939
   29MOL   C47517891   3.310   3.310   6.893 -0.2303 -0.0695  0.0894
   29MOL   C47617892   3.358   3.358   7.030 -0.1671 -0.4078  0.3063
   29MOL   C47717893   2.829   2.485   6.622  0.2884 -0.2424  0.2330
   29MOL   H47817894   2.846   2.565   6.816  3.1111  0.2348 -1.3301
   29MOL   H47917895   2.999   2.734   6.639 -0.1586  0.8815 -0.2705
   29MOL   H48017896   2.961   2.756   6.816 -1.5108 -1.5319  0.2068
   29MOL   H48117897   2.825   2.959   6.729 -1.5941 -0.3074 -3.6849
   29MOL   H48217898   2.893   2.935   6.583 -1.1837 -2.2124 -0.1312
   29MOL   H48317899   3.041   2.991   6.832 -0.3161 -2.0384 -0.0315
   29MOL   H48417900   3.128   2.979   6.687 -0.1691  0.5987 -1.4674
   29MOL   H48517901   2.995   3.175   6.601 -0.7216  1.2527  0.6931
   29MOL   H48617902   2.925   3.195   6.771  1.2400  1.4758  0.1858
   29MOL   H48717903   3.212   3.223   6.685  0.2123 -2.3531 -0.3016
   29MOL   H48817904   3.095   3.359   6.690 -1.2429  0.9371  2.6162
   29MOL   H48917905   3.127   3.223   6.943  1.9936  0.7235  2.8038
   29MOL   H49017906   3.097   3.393   6.898 -0.8520  1.1791 -2.2795
   29MOL   H49117907   3.359   3.215   6.871  1.2405  0.9674 -1.3586
   29MOL   H49217908   3.354   3.375   6.817  1.6973 -0.4988  0.8006
   29MOL   H49317909   3.466   3.368   7.035 -0.1527 -0.4656  0.1237
   29MOL   H49417910   3.339   3.285   7.109 -0.9601 -0.7113 -0.1583
   29MOL   H49517911   3.323   3.460   7.048 -3.0822 -1.4886  1.0398
   29MOL   H49617912   2.772   2.511   6.533  1.5823 -1.1248 -0.8720
   29MOL   H49717913   2.932   2.505   6.594 -0.4508  0.5259 -1.9993
   29MOL   C49817914   2.820   2.332   6.643 -0.3973  0.2360  0.5256
   29MOL   O49917915   2.861   2.313   6.780  0.1090  0.0606 -0.4890
   29MOL   C50017916   2.833   2.185   6.841  0.2721  0.0287 -0.5416
   29MOL   C50117917   2.894   2.182   6.982  0.0570  0.0510  0.1256
   29MOL   C50217918   2.824   2.256   7.099 -0.1510 -0.3617  0.5197
   29MOL   C50317919   2.915   2.262   7.225  0.1360 -0.0490  0.1096
   29MOL   C50417920   2.850   2.341   7.337 -0.4259 -0.0434  0.4354
   29MOL   C50517921   2.942   2.369   7.452  0.0456  0.4443  0.2981
   29MOL   C50617922   2.983   2.235   7.528 -0.1757 -0.6162 -0.4004
   29MOL   C50717923   3.122   2.231   7.596  0.1039 -0.6876  0.6673
   29MOL   C50817924   2.901   2.258   6.531 -0.1338  0.4801  0.5544
   29MOL   H50917925   2.717   2.299   6.648  0.1409 -1.5331  0.2797
   29MOL   H51017926   2.890   2.105   6.794  0.6059 -0.1337  0.1277
   29MOL   H51117927   2.733   2.144   6.838 -0.1354  0.8876  0.6506
   29MOL   H51217928   2.995   2.220   6.969  0.3025 -0.2399  1.1206
   29MOL   H51317929   2.909   2.077   7.009  1.1318  0.1219 -0.1943
   29MOL   H51417930   2.801   2.357   7.064 -0.8573 -0.9293 -0.7125
   29MOL   H51517931   2.736   2.196   7.122 -0.2542 -1.7318 -3.0324
   29MOL   H51617932   2.953   2.161   7.238 -0.1823  0.3248  4.7664
   29MOL   H51717933   3.005   2.316   7.195  1.0837 -1.5165  0.2868
   29MOL   H51817934   2.826   2.441   7.301  0.5722  0.7195  1.8585
   29MOL   H51917935   2.756   2.293   7.363 -0.5857 -0.1360 -0.2999
   29MOL   H52017936   2.907   2.443   7.524  1.3934 -0.3792  1.8637
   29MOL   H52117937   3.033   2.417   7.416 -0.5117 -0.2780 -2.1225
   29MOL   H52217938   2.898   2.218   7.595  1.0655  0.1224  1.4049
   29MOL   H52317939   2.994   2.150   7.461  0.3958 -0.3266 -0.6759
   29MOL   H52417940   3.154   2.127   7.605 -1.3645 -1.2286 -0.2553
   29MOL   H52517941   3.120   2.292   7.686 -3.5663  0.4287 -0.0828
   29MOL   H52617942   3.195   2.274   7.527  0.1509 -0.6180  0.7593
   29MOL   H52717943   3.006   2.285   6.537 -0.1462  0.4319  1.0519
   29MOL   H52817944   2.906   2.152   6.554  4.9530  0.4155 -0.3239
   29MOL   C52917945   2.836   2.272   6.390  0.8494  0.0656 -0.2998
   29MOL   O53017946   2.698   2.234   6.387  0.2709 -0.2691 -0.2020
   29MOL   C53117947   2.626   2.327   6.304 -0.5460 -0.3905  0.1168
   29MOL   C53217948   2.484   2.278   6.280  0.1892  0.0556 -0.5944
   29MOL   C53317949   2.474   2.158   6.184  0.2736  0.1410  0.1360
   29MOL   C53417950   2.333   2.130   6.135 -0.6563  0.1235 -0.2269
   29MOL   C53517951   2.338   1.991   6.062 -0.1430 -0.0435  0.6602
   29MOL   C53617952   2.197   1.931   6.054 -0.1152  0.4070  0.3928
   29MOL   C53717953   2.184   1.802   5.979 -0.0043  0.0220 -0.0031
   29MOL   C53817954   2.051   1.741   5.967 -0.3426 -0.1026  0.5168
   29MOL   C53917955   2.914   2.189   6.280  0.2337 -0.2429  0.3977
   29MOL   H54017956   2.847   2.379   6.369  0.5004 -0.1060 -1.3777
   29MOL   H54117957   2.638   2.430   6.338 -0.9085 -0.8101  1.5386
   29MOL   H54217958   2.681   2.328   6.209 -2.4376 -1.6265 -1.0190
   29MOL   H54317959   2.430   2.365   6.242 -0.2836  0.4113  0.8828
   29MOL   H54417960   2.443   2.256   6.378  1.8123 -0.5954 -0.0355
   29MOL   H54517961   2.547   2.183   6.107 -0.8200 -1.7937 -1.5993
   29MOL   H54617962   2.525   2.072   6.228 -0.4638 -1.1055 -1.4052
   29MOL   H54717963   2.276   2.119   6.228  2.0088 -0.4355  1.4118
   29MOL   H54817964   2.279   2.199   6.070 -1.0573  0.6192  0.6178
   29MOL   H54917965   2.374   2.001   5.960 -2.6539 -0.5381 -0.3099
   29MOL   H55017966   2.400   1.918   6.114 -1.3407 -1.1572  0.5493
   29MOL   H55117967   2.127   2.009   6.022  1.4339  0.2712 -3.5723
   29MOL   H55217968   2.183   1.908   6.160 -1.9506  0.8684  0.2578
   29MOL   H55317969   2.229   1.816   5.881  2.3930 -1.6476  0.7803
   29MOL   H55417970   2.247   1.738   6.042 -0.5568  1.0227  1.6002
   29MOL   H55517971   1.977   1.807   5.922 -0.4138 -0.3883  0.2189
   29MOL   H55617972   2.015   1.723   6.068  0.0245 -0.0685  0.6547
   29MOL   H55717973   2.063   1.643   5.923 -2.5766 -1.1143  2.0358
   29MOL   H55817974   2.902   2.082   6.299  0.1088 -0.2661  0.1867
   29MOL   H55917975   2.864   2.202   6.185  0.5858  1.2183  0.4060
   29MOL   C56017976   3.056   2.226   6.262  0.2003  0.3074  0.2613
   29MOL   O56117977   3.141   2.168   6.370 -0.0895  0.0285 -0.1012
   29MOL   C56217978   3.185   2.031   6.348  0.2306 -0.4230  0.6210
   29MOL   C56317979   3.239   1.963   6.474  0.1937  0.3155 -1.0477
   29MOL   C56417980   3.131   1.938   6.576 -0.0612 -0.1775  0.2652
   29MOL   C56517981   3.186   1.874   6.708 -0.0859  0.5052  0.1458
   29MOL   C56617982   3.071   1.827   6.797 -0.0367 -1.0532  0.1921
   29MOL   C56717983   3.113   1.801   6.942  0.4912 -0.4469  0.1611
   29MOL   C56817984   3.200   1.674   6.950  0.0737 -0.1997 -0.4490
   29MOL   C56917985   3.215   1.638   7.098  0.3748  0.8241 -0.5532
   29MOL   C57017986   3.097   2.370   6.247  0.9803 -0.1689  0.0982
   29MOL   H57117987   3.110   2.187   6.176  1.0813  0.9171  0.5357
   29MOL   H57217988   3.253   2.026   6.264 -1.9066 -0.5051 -1.1492
   29MOL   H57317989   3.103   1.973   6.305  2.5507 -2.6595 -0.9701
   29MOL   H57417990   3.321   2.023   6.515  0.6029 -0.5732 -0.5492
   29MOL   H57517991   3.293   1.870   6.454  0.2062 -0.0126  0.4625
   29MOL   H57617992   3.072   2.027   6.598  0.3077 -0.1822  1.3475
   29MOL   H57717993   3.054   1.875   6.531  2.3103 -0.9770 -2.8360
   29MOL   H57817994   3.253   1.791   6.686  1.2225  0.9381  2.3416
   29MOL   H57917995   3.253   1.936   6.768 -0.4411  2.4165 -1.4022
   29MOL   H58017996   2.991   1.901   6.795  0.0250 -1.0122 -2.5055
   29MOL   H58117997   3.026   1.739   6.751 -0.0012 -0.0734 -1.7726
   29MOL   H58217998   3.020   1.783   6.997 -0.8825  3.2173 -0.7832
   29MOL   H58317999   3.172   1.885   6.979 -2.0057  1.3199  0.2499
   29MOL   H58418000   3.160   1.588   6.897 -0.8335  1.3448 -2.3070
   29MOL   H58518001   3.297   1.696   6.906  0.3498  1.1272  0.7659
   29MOL   H58618002   3.272   1.546   7.110 -0.5463  0.4189  0.9385
   29MOL   H58718003   3.124   1.625   7.156  0.4720  2.2578 -0.0588
   29MOL   H58818004   3.271   1.709   7.159  1.2755 -1.9021  1.9640
   29MOL   H58918005   3.012   2.431   6.216  0.7341 -1.1025 -1.1041
   29MOL   H59018006   3.140   2.404   6.341  1.0756 -2.6759  1.0082
   29MOL   C59118007   3.196   2.404   6.131 -0.4557  0.1910 -0.3569
   29MOL   O59218008   3.243   2.538   6.149  0.2696 -0.1781  0.2074
   29MOL   C59318009   3.378   2.556   6.172 -0.0317  0.5280  0.1121
   29MOL   C59418010   3.398   2.703   6.203 -0.0196  0.7345 -0.1574
   29MOL   C59518011   3.537   2.746   6.242  0.0010  0.4798  0.0134
   29MOL   C59618012   3.549   2.899   6.230 -0.6425  0.6256  0.2288
   29MOL   C59718013   3.691   2.952   6.226 -0.0406 -0.0213  0.2437
   29MOL   C59818014   3.689   3.096   6.180 -0.6195 -1.0680  0.3030
   29MOL   C59918015   3.691   3.121   6.029 -0.0665 -0.0854  0.1615
   29MOL   C60018016   3.811   3.076   5.941 -0.8419  0.7873 -0.4388
   29MOL   C60118017   3.131   2.389   5.990 -0.3407 -0.1187  0.9225
   29MOL   H60218018   3.278   2.333   6.143 -1.0867 -0.7309 -1.4525
   29MOL   H60318019   3.436   2.519   6.088 -2.1226 -0.6309 -0.8494
   29MOL   H60418020   3.384   2.494   6.262 -0.3637 -0.9313 -0.8501
   29MOL   H60518021   3.331   2.760   6.268 -0.7837  1.7123 -1.7685
   29MOL   H60618022   3.371   2.760   6.115 -0.3266  0.3605 -0.3096
   29MOL   H60718023   3.560   2.722   6.346 -2.5621  0.0348  0.5298
   29MOL   H60818024   3.613   2.698   6.180 -0.7222 -0.8728  0.1443
   29MOL   H60918025   3.510   2.914   6.129  2.1453 -0.8746 -1.1275
   29MOL   H61018026   3.482   2.957   6.293  0.3343  1.2451  0.7189
   29MOL   H61118027   3.737   2.947   6.325  0.0849 -0.6730  0.1535
   29MOL   H61218028   3.762   2.897   6.164  2.5988 -0.3761  3.4398
   29MOL   H61318029   3.767   3.154   6.230 -0.6213 -1.7232  1.0753
   29MOL   H61418030   3.602   3.133   6.234 -0.3499 -1.2787  0.8818
   29MOL   H61518031   3.610   3.066   5.981 -0.3918 -0.7763  1.4792
   29MOL   H61618032   3.673   3.227   6.011 -1.1168 -0.2949 -0.0766
   29MOL   H61718033   3.899   3.116   5.991  0.3823 -0.5981 -1.4366
   29MOL   H61818034   3.805   3.134   5.849 -0.0233 -1.2057 -1.7742
   29MOL   H61918035   3.836   2.970   5.930 -1.9915  0.2789  1.6325
   29MOL   H62018036   3.042   2.447   5.966  0.4677 -0.2130 -2.6622
   29MOL   H62118037   3.197   2.432   5.915 -1.5093  0.0824 -0.0188
   29MOL   H62218038   3.127   2.282   5.967  0.4095 -0.4245  2.1787
   30MOL     C118039   7.253   5.908   7.208  0.0038 -0.2813 -1.2251
   30MOL     O218040   7.151   5.983   7.147  0.0336  0.6291  0.0616
   30MOL     C318041   7.106   6.092   7.228 -0.4315  0.2462  0.5769
   30MOL     C418042   7.022   6.189   7.148 -0.3760  0.4177  0.0481
   30MOL     C518043   7.094   6.262   7.040 -0.1238 -0.8320 -1.2786
   30MOL     C618044   7.177   6.378   7.098  0.5764  0.2436 -0.1996
   30MOL     C718045   7.249   6.466   6.987  0.0293 -0.9405 -0.2704
   30MOL     C818046   7.158   6.558   6.907 -0.5965  0.7829 -0.5795
   30MOL     C918047   7.237   6.645   6.805  0.0465 -0.7033  0.5752
   30MOL    C1018048   7.148   6.751   6.732 -0.1809  0.8056 -0.2045
   30MOL    C1118049   7.275   5.802   7.108 -0.4953 -0.1132 -0.2003
   30MOL    H1218050   7.341   5.972   7.208  0.3966 -0.8117  0.2794
   30MOL    H1318051   7.189   6.149   7.270 -0.3834  0.6626 -0.0793
   30MOL    H1418052   7.053   6.055   7.315  0.0204  1.2129  1.2688
   30MOL    H1518053   6.958   6.255   7.207 -0.8973  0.0877 -0.1454
   30MOL    H1618054   6.960   6.118   7.093  0.5574 -1.5218  1.4321
   30MOL    H1718055   7.158   6.206   6.971  2.5169  0.0291  0.3891
   30MOL    H1818056   7.014   6.297   6.975  0.2197 -0.0335 -1.2812
   30MOL    H1918057   7.120   6.439   7.168 -1.0512 -0.4867 -0.8541
   30MOL    H2018058   7.262   6.330   7.148 -0.1888 -2.1825 -1.1459
   30MOL    H2118059   7.315   6.533   7.042 -0.9838 -0.4704  0.3987
   30MOL    H2218060   7.313   6.415   6.916  2.2012  0.4426  0.6218
   30MOL    H2318061   7.097   6.619   6.973  0.0312  1.3224 -0.4898
   30MOL    H2418062   7.099   6.487   6.849  1.8024 -0.7041 -1.2664
   30MOL    H2518063   7.312   6.709   6.852  2.2610 -0.3735 -3.1957
   30MOL    H2618064   7.295   6.591   6.730  0.6447  1.3662 -0.4906
   30MOL    H2718065   7.047   6.731   6.699  0.0116 -0.1337 -0.2381
   30MOL    H2818066   7.199   6.773   6.639  0.3995 -0.1787 -0.1235
   30MOL    H2918067   7.163   6.845   6.785 -0.3517  1.4721 -1.3202
   30MOL    H3018068   7.184   5.743   7.100 -0.1613 -0.8506  1.2143
   30MOL    H3118069   7.289   5.854   7.013  0.7826 -0.2141 -0.0789
   30MOL    H3218070   7.238   5.882   7.313 -0.8745 -1.4253 -1.6284
   30MOL    C3318071   7.403   5.717   7.122 -1.0486 -0.1702  0.4132
   30MOL    O3418072   7.516   5.801   7.100  0.0336  0.2530  0.0214
   30MOL    C3518073   7.634   5.760   7.162  0.5627  0.2140 -0.4200
   30MOL    C3618074   7.740   5.871   7.122  0.6629  0.0141  0.1007
   30MOL    C3718075   0.098   5.838   7.186  0.1338 -0.1887 -0.0680
   30MOL    C3818076   0.191   5.958   7.160 -0.0612 -0.6218 -0.4462
   30MOL    C3918077   0.321   5.931   7.084 -0.6060  0.0575  0.5283
   30MOL    C4018078   0.420   5.851   7.175  0.8390 -0.0288 -0.1015
   30MOL    C4118079   0.559   5.832   7.112  0.4272 -0.7609  0.3259
   30MOL    C4218080   0.656   5.746   7.201 -0.6961 -0.1703 -0.4912
   30MOL    C4318081   7.418   5.589   7.026 -0.1447  0.3251 -0.5688
   30MOL    H4418082   7.393   5.676   7.223 -1.5101 -1.7041 -0.2425
   30MOL    H4518083   7.668   5.665   7.123  2.0754  0.1496  1.0105
   30MOL    H4618084   7.621   5.746   7.269 -0.4612  0.8704 -0.4433
   30MOL    H4718085   7.705   5.966   7.162  1.9255 -0.5447  2.6111
   30MOL    H4818086   7.758   5.869   7.014  0.8370 -1.9821  0.1467
   30MOL    H4918087   0.095   5.829   7.294  0.2983 -0.5969 -0.0945
   30MOL    H5018088   0.144   5.748   7.145  3.3898  1.3621  0.0032
   30MOL    H5118089   0.137   6.035   7.105 -1.1632 -1.0177  0.0445
   30MOL    H5218090   0.219   6.008   7.253 -1.7328 -0.7643  0.1586
   30MOL    H5318091   0.295   5.879   6.992  0.2073  2.1822 -0.9244
   30MOL    H5418092   0.353   6.031   7.055  0.8680  0.0502  2.0646
   30MOL    H5518093   0.367   5.759   7.201  0.6719  0.3254  0.8289
   30MOL    H5618094   0.421   5.909   7.267 -2.5879 -1.2050  0.7348
   30MOL    H5718095   0.561   5.776   7.018 -0.8932 -3.6443  1.9287
   30MOL    H5818096   0.595   5.934   7.103 -1.3257 -0.1702 -0.1502
   30MOL    H5918097   0.755   5.792   7.189 -0.7941 -0.4028 -2.3116
   30MOL    H6018098   0.651   5.646   7.157  2.9406 -0.4796 -0.4296
   30MOL    H6118099   0.624   5.747   7.305 -0.4704  0.9409 -0.4273
   30MOL    H6218100   7.498   5.524   7.060  1.2776  1.0017 -2.5109
   30MOL    H6318101   7.320   5.545   7.044 -0.4808  0.8897 -0.9690
   30MOL    C6418102   7.447   5.623   6.875  0.0481  0.4692 -0.6563
   30MOL    O6518103   7.321   5.682   6.836 -0.1654 -0.3313  0.2882
   30MOL    C6618104   7.327   5.787   6.742 -0.2489  0.1724 -0.4162
   30MOL    C6718105   7.186   5.815   6.686 -0.0750  0.3082  0.5807
   30MOL    C6818106   7.100   5.895   6.785 -0.1380 -0.2535  0.7831
   30MOL    C6918107   6.951   5.914   6.745  0.0167  0.0120 -0.0026
   30MOL    C7018108   6.856   5.940   6.863 -0.7923  0.1217  0.4665
   30MOL    C7118109   6.717   5.986   6.815  0.0045  0.0816  0.2466
   30MOL    C7218110   6.627   6.019   6.936 -0.4456  0.0730  0.3437
   30MOL    C7318111   6.485   6.068   6.906  0.0516 -0.3839 -0.2711
   30MOL    C7418112   7.469   5.496   6.782 -0.6246 -0.8191  0.1508
   30MOL    H7518113   7.532   5.691   6.868 -1.3975  2.1545 -2.2237
   30MOL    H7618114   7.397   5.758   6.664  0.7782  0.3604  0.4311
   30MOL    H7718115   7.366   5.883   6.776 -1.0435  1.4186 -2.8586
   30MOL    H7818116   7.135   5.721   6.663 -0.4058  0.6181  0.0461
   30MOL    H7918117   7.204   5.873   6.596  0.0401 -1.7242 -0.7152
   30MOL    H8018118   7.101   5.839   6.878 -2.2507 -0.7496  0.5353
   30MOL    H8118119   7.145   5.990   6.814  0.4486 -0.3583  0.2233
   30MOL    H8218120   6.950   6.006   6.687  0.9466  0.7129  1.0818
   30MOL    H8318121   6.918   5.831   6.682 -0.1749 -0.6367  0.9492
   30MOL    H8418122   6.842   5.843   6.909  0.4862 -0.1902  0.2337
   30MOL    H8518123   6.893   6.010   6.938 -1.7257  0.1060  0.9384
   30MOL    H8618124   6.658   5.915   6.757  1.5872 -2.1369  1.3049
   30MOL    H8718125   6.743   6.080   6.765  1.3889 -0.2705  0.2933
   30MOL    H8818126   6.627   5.927   6.994  1.7994 -0.1266  0.0803
   30MOL    H8918127   6.672   6.091   7.004  1.0990 -1.5517  1.0822
   30MOL    H9018128   6.431   5.998   6.842  0.3768  1.4132 -2.6024
   30MOL    H9118129   6.480   6.170   6.868 -1.1071  0.4067  1.9700
   30MOL    H9218130   6.421   6.079   6.993  1.1410 -3.0589  0.9277
   30MOL    H9318131   7.378   5.436   6.777 -0.5544 -0.8576 -0.6907
   30MOL    H9418132   7.472   5.533   6.680 -1.2520 -1.4888 -0.1151
   30MOL    C9518133   7.598   5.422   6.821 -0.1731 -0.0819  0.0449
   30MOL    O9618134   7.692   5.521   6.789  0.1608  0.1894 -0.0721
   30MOL    C9718135   0.048   5.491   6.833  0.0058  0.3275  0.1501
   30MOL    C9818136   0.134   5.618   6.812 -1.1931 -0.6544  0.0177
   30MOL    C9918137   0.277   5.615   6.877  1.0958 -0.2511  0.1168
   30MOL   C10018138   0.363   5.501   6.822 -0.0454  0.8739  0.1182
   30MOL   C10118139   0.497   5.483   6.902  0.5620  0.6962 -0.3381
   30MOL   C10218140   0.558   5.355   6.851 -0.2757 -0.3632  0.8574
   30MOL   C10318141   0.707   5.323   6.894  0.5262 -0.1570  0.5823
   30MOL   C10418142   0.759   5.196   6.821 -0.4015 -0.2719  0.3060
   30MOL   C10518143   7.627   5.281   6.752 -0.1391 -0.0202  0.1227
   30MOL   H10618144   7.606   5.405   6.929 -0.2544 -0.7590 -0.0555
   30MOL   H10718145   0.089   5.405   6.780 -0.9002 -0.2786  0.4311
   30MOL   H10818146   0.050   5.476   6.941 -0.4740 -1.1804 -0.0376
   30MOL   H10918147   0.081   5.707   6.844 -0.9712 -0.2266 -0.7999
   30MOL   H11018148   0.145   5.637   6.705  1.1353 -0.7157  0.2125
   30MOL   H11118149   0.336   5.705   6.858 -0.5736  0.6732 -0.8167
   30MOL   H11218150   0.273   5.618   6.986  1.8883  1.6351  0.1139
   30MOL   H11318151   0.308   5.408   6.829  1.5044  0.0190  1.3232
   30MOL   H11418152   0.377   5.527   6.717 -3.2152  3.7505  0.3394
   30MOL   H11518153   0.562   5.569   6.883  0.7231  0.7299  0.3401
   30MOL   H11618154   0.482   5.478   7.010  0.9587 -0.5954 -0.3391
   30MOL   H11718155   0.567   5.361   6.743  0.9142  0.8641  1.0191
   30MOL   H11818156   0.494   5.268   6.867  1.5817 -1.8639  0.4165
   30MOL   H11918157   0.782   5.396   6.863  0.5032 -0.9037 -1.2630
   30MOL   H12018158   0.710   5.313   7.003  1.1724  0.5798  0.6346
   30MOL   H12118159   0.791   5.227   6.722 -0.8320 -1.7415 -0.3062
   30MOL   H12218160   0.678   5.126   6.799 -1.0844 -0.5170  3.3037
   30MOL   H12318161   0.836   5.152   6.885 -0.7999 -0.1264  0.8935
   30MOL   H12418162   7.538   5.255   6.696 -0.2591 -2.5818  1.4440
   30MOL   H12518163   7.710   5.291   6.682  0.1082  0.9787  0.5318
   30MOL   C12618164   7.671   5.163   6.840  0.7029 -0.1065 -0.4521
   30MOL   O12718165   0.034   5.184   6.873 -0.2752 -0.6241 -0.0008
   30MOL   C12818166   0.065   5.160   7.010  0.3580 -0.7519 -0.4569
   30MOL   C12918167   0.214   5.175   7.023  0.1980 -0.1301  0.3810
   30MOL   C13018168   0.266   5.119   7.157  0.2352 -0.3838  0.3396
   30MOL   C13118169   0.419   5.098   7.166  0.6816  0.1490 -0.0827
   30MOL   C13218170   0.476   5.018   7.292  0.0344  0.3280 -0.0626
   30MOL   C13318171   0.627   4.995   7.275  0.0653  0.1389 -0.2497
   30MOL   C13418172   0.674   4.913   7.394 -0.3361 -0.0653  0.3490
   30MOL   C13518173   0.826   4.923   7.409 -0.1104  0.3126  0.1845
   30MOL   C13618174   7.657   5.027   6.765  0.9682  0.0636 -0.0277
   30MOL   H13718175   7.610   5.166   6.931  0.0243  1.3831 -0.9538
   30MOL   H13818176   0.035   5.056   7.022 -0.6403 -0.4057  0.0648
   30MOL   H13918177   0.014   5.224   7.082 -2.3382 -2.8704 -0.3894
   30MOL   H14018178   0.245   5.280   7.018 -0.6807  0.1677  0.9612
   30MOL   H14118179   0.257   5.125   6.936 -0.7872  3.2675 -2.1891
   30MOL   H14218180   0.231   5.192   7.230 -1.3294 -0.6387 -0.1448
   30MOL   H14318181   0.208   5.035   7.193 -0.0291 -1.1724 -1.8942
   30MOL   H14418182   0.463   5.045   7.082  1.5501 -0.1761  0.5608
   30MOL   H14518183   0.465   5.197   7.157 -0.8188  1.0286  1.5546
   30MOL   H14618184   0.452   5.064   7.388 -1.3349 -0.0674 -0.1962
   30MOL   H14718185   0.430   4.922   7.313 -0.2243  0.5826  0.5743
   30MOL   H14818186   0.685   5.088   7.277 -1.2163  0.9366 -0.1206
   30MOL   H14918187   0.649   4.943   7.181 -0.3620 -1.5569  0.5843
   30MOL   H15018188   0.636   4.956   7.487  2.9173 -1.6501  2.5273
   30MOL   H15118189   0.641   4.809   7.389 -0.5820  0.0802 -1.2792
   30MOL   H15218190   0.861   4.837   7.466 -1.0277 -1.0262 -1.2064
   30MOL   H15318191   0.844   5.006   7.477 -0.2845 -0.3802  1.0819
   30MOL   H15418192   0.884   4.943   7.319 -0.6153  0.6758 -0.0662
   30MOL   H15518193   7.710   5.037   6.671 -0.1849  2.7268 -0.4310
   30MOL   H15618194   7.712   4.948   6.817  1.4655  0.1412 -0.4396
   30MOL   C15718195   7.513   4.974   6.738  0.3125  0.0177 -0.3831
   30MOL   O15818196   7.457   4.927   6.865 -1.0115  0.9775  0.2103
   30MOL   C15918197   7.324   4.956   6.889  0.2317  0.2259 -0.2512
   30MOL   C16018198   7.287   5.093   6.941  0.5240 -0.3890 -0.3425
   30MOL   C16118199   7.302   5.108   7.094  0.2916  0.2912  0.7144
   30MOL   C16218200   7.271   5.241   7.152 -0.2059 -0.3892  0.4122
   30MOL   C16318201   7.339   5.273   7.280 -0.2733  0.5504 -0.6772
   30MOL   C16418202   7.275   5.399   7.341 -0.4568  0.7425  0.3654
   30MOL   C16518203   7.329   5.453   7.473  0.4078  0.1414 -0.1135
   30MOL   C16618204   7.309   5.353   7.594 -0.4776  0.0970  0.1223
   30MOL   C16718205   7.518   4.855   6.644 -0.1102 -0.9279 -0.0173
   30MOL   H16818206   7.447   5.056   6.711  0.4920  0.9700  1.9921
   30MOL   H16918207   7.290   4.887   6.967  2.2533 -0.6432 -0.1084
   30MOL   H17018208   7.261   4.930   6.804  0.3395 -0.4848 -0.1177
   30MOL   H17118209   7.183   5.110   6.911  0.1755 -1.4844  0.2385
   30MOL   H17218210   7.353   5.168   6.897 -0.5758  0.2355 -0.9831
   30MOL   H17318211   7.248   5.034   7.153  0.9524 -0.9457 -0.2108
   30MOL   H17418212   7.406   5.082   7.114  0.1467  0.0614  1.1833
   30MOL   H17518213   7.287   5.316   7.074  1.1129 -0.8555  0.2257
   30MOL   H17618214   7.162   5.237   7.159 -0.2859  2.4406  1.5088
   30MOL   H17718215   7.327   5.193   7.353 -0.1989 -1.0319 -2.3383
   30MOL   H17818216   7.445   5.290   7.264 -0.4008  1.7987 -0.2004
   30MOL   H17918217   7.169   5.379   7.360 -0.2250 -1.9564 -0.9564
   30MOL   H18018218   7.286   5.470   7.260 -1.6607  0.6357  0.0907
   30MOL   H18118219   7.435   5.474   7.456  0.4728 -0.2345 -0.1807
   30MOL   H18218220   7.292   5.552   7.497  1.1216  0.4334 -0.2182
   30MOL   H18318221   7.208   5.319   7.616 -1.1185  0.5738 -1.9337
   30MOL   H18418222   7.342   5.402   7.685  0.6173  0.4177 -0.4406
   30MOL   H18518223   7.376   5.267   7.590 -0.8468 -0.2950  1.9649
   30MOL   H18618224   7.580   4.773   6.681 -0.9111 -0.6374  2.0265
   30MOL   H18718225   7.423   4.803   6.650  0.6260 -2.0854  2.0876
   30MOL   C18818226   7.549   4.895   6.495 -0.3059 -0.2782 -0.1863
   30MOL   O18918227   7.465   5.006   6.458 -0.0446  0.2882  0.3291
   30MOL   C19018228   7.475   5.056   6.322 -0.3232 -0.3102 -0.5145
   30MOL   C19118229   7.386   5.179   6.311  0.8486  0.4642  0.3662
   30MOL   C19218230   7.421   5.292   6.405  0.6305 -0.8960  0.4306
   30MOL   C19318231   7.347   5.425   6.375  0.2878  0.3551 -0.2043
   30MOL   C19418232   7.201   5.413   6.413 -0.1444  0.4167  0.4538
   30MOL   C19518233   7.124   5.533   6.350  0.9992  0.0695  0.0041
   30MOL   C19618234   6.972   5.523   6.374  0.7267  0.5654  0.1485
   30MOL   C19718235   6.891   5.635   6.304  0.1159 -0.5788  0.3437
   30MOL   C19818236   7.529   4.776   6.401  0.3111 -0.2704 -0.4717
   30MOL   H19918237   7.647   4.941   6.479  0.1319 -1.6990 -1.6710
   30MOL   H20018238   7.581   5.068   6.303 -0.3726 -1.9347 -1.8970
   30MOL   H20118239   7.442   4.980   6.251  0.8127 -0.8682 -0.4436
   30MOL   H20218240   7.280   5.160   6.328  0.5464  0.5360 -1.3574
   30MOL   H20318241   7.399   5.218   6.210  2.8327  0.7282  0.6878
   30MOL   H20418242   7.405   5.254   6.506 -0.8624 -1.5485 -0.0326
   30MOL   H20518243   7.527   5.314   6.406  0.3885  0.3140 -0.3135
   30MOL   H20618244   7.391   5.518   6.408  0.1555  0.5620 -0.5997
   30MOL   H20718245   7.357   5.431   6.266 -1.6622  0.8753 -0.3812
   30MOL   H20818246   7.159   5.315   6.387 -0.9670  0.4214  1.7194
   30MOL   H20918247   7.185   5.399   6.520  0.1649  1.8475  0.6830
   30MOL   H21018248   7.128   5.526   6.241  0.3430 -0.8928  0.0292
   30MOL   H21118249   7.173   5.625   6.382  1.6899 -0.8233  1.5530
   30MOL   H21218250   6.943   5.421   6.348  0.8834  0.7956 -0.9438
   30MOL   H21318251   6.959   5.541   6.481  0.4275 -2.0307  0.5894
   30MOL   H21418252   6.928   5.731   6.340 -1.4570  0.0390  0.3626
   30MOL   H21518253   6.793   5.641   6.351  0.0072  0.3470  0.0047
   30MOL   H21618254   6.890   5.619   6.196 -0.3354  0.1898  0.2285
   30MOL   H21718255   7.427   4.740   6.416  0.0679  1.0831  1.2968
   30MOL   H21818256   7.549   4.809   6.299  2.2513  1.3366  0.3857
   30MOL   C21918257   7.628   4.657   6.427  0.0241  0.6464 -0.0878
   30MOL   O22018258   7.754   4.705   6.394 -0.5463  0.2253  0.0848
   30MOL   C22118259   0.064   4.695   6.505 -0.6089  0.2069  0.1355
   30MOL   C22218260   0.215   4.731   6.466 -0.0205  0.3098  0.5241
   30MOL   C22318261   0.262   4.663   6.337 -0.4099  0.2962  0.0232
   30MOL   C22418262   0.411   4.689   6.318  0.1434 -0.6021  0.2908
   30MOL   C22518263   0.466   4.592   6.224  0.7138  0.0348  0.2038
   30MOL   C22618264   0.617   4.614   6.199  0.3023 -0.4165 -0.0131
   30MOL   C22718265   0.650   4.736   6.118 -0.8109 -0.0121  0.4646
   30MOL   C22818266   0.800   4.748   6.069 -0.1799  0.3832  0.2026
   30MOL   C22918267   7.609   4.535   6.330 -0.3968 -0.0618 -0.2725
   30MOL   H23018268   7.631   4.620   6.529 -1.8209  1.4692  0.2867
   30MOL   H23118269   0.072   4.599   6.556 -0.5492  0.6901  1.0314
   30MOL   H23218270   0.032   4.766   6.581  0.1985 -0.1651  0.8314
   30MOL   H23318271   0.261   4.701   6.560 -0.0441  0.7167  0.6632
   30MOL   H23418272   0.217   4.837   6.441 -2.9465  0.2704 -0.1418
   30MOL   H23518273   0.257   4.554   6.341  3.3103  0.0278 -0.5278
   30MOL   H23618274   0.207   4.708   6.254  1.1868  1.4248 -0.4474
   30MOL   H23718275   0.416   4.795   6.295  0.3767 -0.5199  0.6969
   30MOL   H23818276   0.468   4.676   6.411  2.1797 -2.3058 -1.1360
   30MOL   H23918277   0.461   4.486   6.250 -0.2485 -0.5552 -2.2825
   30MOL   H24018278   0.416   4.591   6.128  0.9170 -1.7935  0.0987
   30MOL   H24118279   0.646   4.517   6.160  0.0918 -0.5613  0.1907
   30MOL   H24218280   0.657   4.632   6.298 -0.3456  0.6995  0.0671
   30MOL   H24318281   0.591   4.741   6.026  0.4181 -0.3172 -0.3518
   30MOL   H24418282   0.625   4.826   6.173  0.3692  0.4941  0.1880
   30MOL   H24518283   0.837   4.664   6.010 -0.3031  0.9498 -0.6921
   30MOL   H24618284   0.869   4.756   6.153  1.4876  0.7541 -1.1921
   30MOL   H24718285   0.820   4.843   6.021  0.5509  1.7261  3.0334
   30MOL   H24818286   7.616   4.579   6.230 -1.0922  0.9248  0.1017
   30MOL   H24918287   7.687   4.460   6.335  0.2424  0.6159  0.0321
   30MOL   C25018288   7.476   4.466   6.356  0.0192  0.3024 -0.2967
   30MOL   O25118289   7.484   4.400   6.487 -0.0857  0.1280  0.3130
   30MOL   C25218290   7.364   4.347   6.532  0.5064  0.7842 -0.2054
   30MOL   C25318291   7.370   4.283   6.675  0.1958  0.1484 -0.3966
   30MOL   C25418292   7.447   4.366   6.776  0.2963  0.1513 -0.3006
   30MOL   C25518293   7.363   4.469   6.853  0.1086 -0.1129 -0.2401
   30MOL   C25618294   7.447   4.587   6.907  0.0300 -0.8923 -0.6639
   30MOL   C25718295   7.527   4.556   7.032  0.3289 -0.5956  0.0379
   30MOL   C25818296   7.621   4.656   7.098 -0.3827  0.1694 -0.4300
   30MOL   C25918297   7.686   4.605   7.236  0.0733 -0.7080  0.3329
   30MOL   C26018298   7.448   4.366   6.241 -0.2571 -0.4675  0.5452
   30MOL   H26118299   7.395   4.538   6.369  0.3459  1.0050 -1.9859
   30MOL   H26218300   7.328   4.274   6.459 -1.1666  0.2456  1.1418
   30MOL   H26318301   7.293   4.430   6.528 -0.6401 -0.0785  1.9640
   30MOL   H26418302   7.431   4.192   6.665  0.0990  0.1397 -0.9427
   30MOL   H26518303   7.271   4.255   6.711 -0.6945 -0.2511 -3.0477
   30MOL   H26618304   7.470   4.298   6.858 -2.1848 -1.7251 -1.1068
   30MOL   H26718305   7.537   4.410   6.734 -0.3147  3.4970  1.6928
   30MOL   H26818306   7.302   4.523   6.781  2.2196  1.6681 -0.7129
   30MOL   H26918307   7.291   4.421   6.921 -0.6125  0.0191 -0.9075
   30MOL   H27018308   7.514   4.615   6.825  1.8199  0.1933  1.1356
   30MOL   H27118309   7.377   4.669   6.920  0.4622 -0.3496 -1.6588
   30MOL   H27218310   7.583   4.464   7.011 -0.7742 -0.4873 -3.8740
   30MOL   H27318311   7.462   4.520   7.112  1.0056  1.9630  1.7806
   30MOL   H27418312   7.687   4.707   7.028 -3.0450  2.1325 -1.5710
   30MOL   H27518313   7.559   4.743   7.121  1.0107  1.1361 -0.2927
   30MOL   H27618314   7.741   4.681   7.291  0.2901 -0.1356 -0.6518
   30MOL   H27718315   7.767   4.542   7.199  0.0011 -0.7217  0.1951
   30MOL   H27818316   7.608   4.555   7.293 -1.8767  0.7800 -0.9549
   30MOL   H27918317   7.533   4.298   6.249 -0.3906 -0.8779 -1.3364
   30MOL   H28018318   7.349   4.322   6.254 -1.2309  2.3951  3.5803
   30MOL   C28118319   7.425   4.432   6.102 -0.2428  0.3941  0.7442
   30MOL   O28218320   7.323   4.532   6.100 -0.1610 -0.5427 -0.1912
   30MOL   C28318321   7.189   4.492   6.140  0.2863  0.9516  0.0320
   30MOL   C28418322   7.100   4.623   6.155 -0.0085  0.2926  0.1428
   30MOL   C28518323   7.152   4.711   6.268  0.2278 -0.0709 -0.5319
   30MOL   C28618324   7.046   4.803   6.322  0.3009 -0.1496  0.2087
   30MOL   C28718325   7.099   4.900   6.434  0.8187 -0.3412  0.4358
   30MOL   C28818326   6.991   5.008   6.481  0.2393 -1.3766 -1.0536
   30MOL   C28918327   7.059   5.080   6.601  1.5595 -0.4377 -0.4082
   30MOL   C29018328   6.958   5.179   6.670 -0.0282  0.7446  0.0354
   30MOL   C29118329   7.396   4.340   5.979 -0.4317 -0.2270 -0.1354
   30MOL   H29218330   7.516   4.484   6.074 -0.7299  1.9696  2.0721
   30MOL   H29318331   7.187   4.453   6.242 -0.8415  1.5896  0.2661
   30MOL   H29418332   7.151   4.418   6.070 -0.0727  2.2009 -1.1109
   30MOL   H29518333   6.995   4.597   6.166  0.6606 -1.0919  3.9273
   30MOL   H29618334   7.106   4.672   6.058  2.1281 -1.5738 -0.7292
   30MOL   H29718335   7.188   4.652   6.352 -1.2638 -0.8164 -0.3961
   30MOL   H29818336   7.246   4.759   6.239  0.3513  0.1241  0.1928
   30MOL   H29918337   7.004   4.866   6.243  3.8363 -0.4429 -2.0278
   30MOL   H30018338   6.965   4.746   6.367 -1.8461  1.2685 -1.7406
   30MOL   H30118339   7.134   4.841   6.518 -0.9797 -0.3943  1.1505
   30MOL   H30218340   7.180   4.960   6.392 -2.7192  3.5370 -1.1862
   30MOL   H30318341   6.898   4.962   6.513  0.0453 -0.8109 -0.7853
   30MOL   H30418342   6.973   5.070   6.393 -1.1514 -1.8440 -1.0985
   30MOL   H30518343   7.092   5.002   6.670 -1.2885  0.3244  1.9039
   30MOL   H30618344   7.140   5.143   6.564  0.9423  0.4611 -0.2343
   30MOL   H30718345   6.872   5.129   6.715  1.1010  0.2327  1.7044
   30MOL   H30818346   6.926   5.264   6.611  1.8588  1.1954 -0.3837
   30MOL   H30918347   7.007   5.218   6.759 -2.4853  0.7930  1.4125
   30MOL   H31018348   7.293   4.308   5.991 -0.5210  0.5256  1.2013
   30MOL   H31118349   7.393   4.412   5.896 -2.7985  0.5412  0.5723
   30MOL   C31218350   7.488   4.229   5.945 -0.5366 -0.6487 -0.3603
   30MOL   O31318351   7.618   4.277   5.913 -0.6115  0.5272  0.3008
   30MOL   C31418352   7.724   4.236   5.995  0.9209  0.6195 -0.7629
   30MOL   C31518353   0.076   4.323   5.970  0.1882 -0.1006 -0.4292
   30MOL   C31618354   0.081   4.479   6.001  0.1871 -0.0420  0.6326
   30MOL   C31718355   7.766   4.563   5.909  0.2927  0.0565  0.0137
   30MOL   C31818356   7.764   4.715   5.941  0.3901 -0.1828 -0.1502
   30MOL   C31918357   7.663   4.790   5.857  0.3876 -0.1832  0.3446
   30MOL   C32018358   7.681   4.943   5.859 -0.4006  1.3281 -0.9712
   30MOL   C32118359   7.618   5.015   5.981 -0.1765  0.4277 -0.0971
   30MOL   C32218360   7.441   4.141   5.826  0.1035 -0.0626  0.7009
   30MOL   H32318361   7.510   4.166   6.032 -1.6290 -0.1687  0.2703
   30MOL   H32418362   7.745   4.133   5.964 -0.1375  0.1189  0.1501
   30MOL   H32518363   7.694   4.248   6.099  1.2205 -2.3254 -0.3008
   30MOL   H32618364   0.100   4.319   5.864  0.2788 -1.6312 -0.3712
   30MOL   H32718365   0.170   4.279   6.003 -0.0320  0.3062  0.7511
   30MOL   H32818366   0.042   4.497   6.101  3.4113  0.3319  1.8974
   30MOL   H32918367   0.184   4.514   5.992 -0.3561  1.4272 -0.0044
   30MOL   H33018368   0.034   4.548   5.809  0.3430 -1.8946  0.3086
   30MOL   H33118369   7.665   4.527   5.927  0.6927 -0.3688  1.4337
   30MOL   H33218370   7.736   4.720   6.046  1.5503 -2.9144  0.3380
   30MOL   H33318371   0.090   4.759   5.947 -0.0365  0.8959 -0.7828
   30MOL   H33418372   7.572   4.769   5.914  0.9971  0.1509  1.4578
   30MOL   H33518373   7.664   4.758   5.753  0.7026  3.3173 -0.7857
   30MOL   H33618374   0.011   4.969   5.841 -0.3559 -0.7929 -4.1397
   30MOL   H33718375   7.629   4.979   5.770 -0.0295  0.7464 -1.4365
   30MOL   H33818376   7.667   5.002   6.078 -0.9063 -1.2268  0.0726
   30MOL   H33918377   7.517   4.979   6.004  0.2557 -0.9238 -0.2357
   30MOL   H34018378   7.614   5.122   5.965  4.9831  0.5133 -1.7174
   30MOL   H34118379   7.434   4.208   5.740 -2.1306 -1.3092 -0.1152
   30MOL   H34218380   7.518   4.065   5.810 -0.9433 -1.0747  0.4315
   30MOL   C34318381   7.304   4.075   5.839  0.6927  0.1984 -0.1189
   30MOL   O34418382   7.317   3.988   5.948  0.3335 -0.4899  0.8737
   30MOL   C34518383   7.195   3.975   6.021  0.1603 -0.2654 -0.8615
   30MOL   C34618384   7.172   3.819   6.046 -0.2836 -0.7292 -0.4406
   30MOL   C34718385   7.179   3.729   5.924  0.3596 -0.5807 -0.2422
   30MOL   C34818386   7.142   3.581   5.952  0.5651 -0.0289 -0.1659
   30MOL   C34918387   6.992   3.539   5.925 -0.6358  0.3442 -0.1056
   30MOL   C35018388   6.961   3.395   5.967 -0.0548  0.2222 -0.0690
   30MOL   C35118389   6.813   3.368   5.952  0.3198 -0.0114  0.1747
   30MOL   C35218390   6.777   3.219   5.974 -0.4035 -0.3526 -0.0906
   30MOL   C35318391   7.266   3.988   5.719  0.5895  0.5450  0.9204
   30MOL   H35418392   7.236   4.154   5.868  0.1242 -0.3440  0.0212
   30MOL   H35518393   7.104   4.001   5.968  0.1263 -2.1316 -1.7570
   30MOL   H35618394   7.201   4.024   6.118 -1.6791 -1.7441  0.0185
   30MOL   H35718395   7.082   3.798   6.104 -0.2180 -1.5585 -0.6249
   30MOL   H35818396   7.259   3.783   6.101  0.2211 -2.5690 -2.3560
   30MOL   H35918397   7.122   3.756   5.835 -5.0865 -1.6275  2.7305
   30MOL   H36018398   7.279   3.743   5.883  0.4993 -1.8044 -0.3453
   30MOL   H36118399   7.212   3.528   5.888 -0.7139  2.3395 -3.6571
   30MOL   H36218400   7.169   3.554   6.054  1.5603 -0.7487 -0.6126
   30MOL   H36318401   6.923   3.608   5.972 -0.4258 -1.0774  2.3708
   30MOL   H36418402   6.972   3.559   5.819  2.4517  2.5486 -0.3543
   30MOL   H36518403   6.982   3.389   6.074  1.6925 -1.1455 -0.4675
   30MOL   H36618404   7.028   3.325   5.918 -0.1845 -0.9937  1.4356
   30MOL   H36718405   6.760   3.424   6.029  0.7002  0.2319  0.2571
   30MOL   H36818406   6.782   3.388   5.849 -0.4724  1.2395  0.6415
   30MOL   H36918407   6.799   3.194   6.078 -0.4970 -0.5446 -0.1166
   30MOL   H37018408   6.846   3.153   5.921  2.6177  1.2286  1.7169
   30MOL   H37118409   6.670   3.201   5.963 -1.0855  4.0667 -2.0748
   30MOL   H37218410   7.332   3.902   5.725  0.0075  0.1078  1.0553
   30MOL   H37318411   7.165   3.951   5.735 -0.0314  1.4284 -0.7779
   30MOL   C37418412   7.278   4.051   5.581  0.7874 -0.1960  0.2226
   30MOL   O37518413   7.209   4.182   5.579 -0.8532  0.7094 -0.4441
   30MOL   C37618414   7.260   4.275   5.488 -0.4718 -0.0344 -0.5926
   30MOL   C37718415   7.203   4.413   5.526  0.3855  0.5852  0.3566
   30MOL   C37818416   7.256   4.477   5.648  0.4270  0.2981 -0.3858
   30MOL   C37918417   7.220   4.630   5.652  0.0570  0.1223  0.2475
   30MOL   C38018418   7.332   4.718   5.723 -0.1567  0.0786  0.1241
   30MOL   C38118419   7.300   4.861   5.733 -0.4144 -0.2292  0.4602
   30MOL   C38218420   7.219   4.885   5.858 -0.9231 -0.1348  0.4599
   30MOL   C38318421   7.185   5.031   5.876 -0.0447  0.9241  0.3186
   30MOL   C38418422   7.224   3.957   5.473  0.6789 -0.2913 -0.2155
   30MOL   H38518423   7.386   4.062   5.570  0.8795 -0.7958  0.5327
   30MOL   H38618424   7.222   4.240   5.392  1.9612 -2.3233 -0.7827
   30MOL   H38718425   7.369   4.286   5.489 -0.2405 -2.1348  0.7976
   30MOL   H38818426   7.094   4.408   5.538  0.4429  0.2833  0.7679
   30MOL   H38918427   7.222   4.480   5.442  1.1855 -0.6205 -0.4293
   30MOL   H39018428   7.199   4.416   5.719  0.4341  1.1678  0.3685
   30MOL   H39118429   7.362   4.456   5.664 -0.0400 -1.6559  0.3602
   30MOL   H39218430   7.186   4.684   5.564  0.8776  2.2413  1.1761
   30MOL   H39318431   7.134   4.634   5.719  0.6735  3.1689  0.9280
   30MOL   H39418432   7.367   4.687   5.821  0.7409  2.2592  0.5158
   30MOL   H39518433   7.425   4.718   5.665  0.5841 -0.3316  1.2865
   30MOL   H39618434   7.246   4.900   5.647 -1.1134  1.0358  1.4651
   30MOL   H39718435   7.389   4.924   5.730 -1.7740  1.7012 -0.4004
   30MOL   H39818436   7.125   4.830   5.856  0.6860 -2.9327 -0.1948
   30MOL   H39918437   7.267   4.841   5.945 -0.3840 -1.1124 -0.3158
   30MOL   H40018438   7.283   5.071   5.901  0.2807 -0.5501  1.5307
   30MOL   H40118439   7.122   5.043   5.964  1.0431  2.1443  0.9427
   30MOL   H40218440   7.144   5.085   5.791 -0.6492  1.1254  0.7347
   30MOL   H40318441   7.116   3.954   5.490  1.1190  1.5474  3.3235
   30MOL   H40418442   7.233   4.006   5.376 -0.8027  2.2786  0.9089
   30MOL   C40518443   7.289   3.816   5.465  0.4944 -0.1412  0.1982
   30MOL   O40618444   7.429   3.835   5.470  0.1094 -0.4801 -0.4385
   30MOL   C40718445   7.515   3.738   5.525  0.2752  0.5061  0.2540
   30MOL   C40818446   7.663   3.792   5.512 -1.2778  0.0390 -0.1697
   30MOL   C40918447   7.690   3.910   5.598 -0.4531  0.4572  0.4511
   30MOL   C41018448   7.681   4.036   5.506  0.1714 -0.1454  0.2017
   30MOL   C41118449   7.746   4.160   5.573  0.7374  0.4833  0.3703
   30MOL   C41218450   7.731   4.281   5.490 -0.1983 -1.4357  0.7019
   30MOL   C41318451   7.764   4.412   5.551 -0.4961 -0.4515  0.4584
   30MOL   C41418452   7.761   4.523   5.449  0.3947  0.2522  0.4034
   30MOL   C41518453   7.226   3.732   5.344  0.0692 -0.0965  0.0279
   30MOL   H41618454   7.264   3.771   5.561 -2.4869 -0.6160 -0.7270
   30MOL   H41718455   7.507   3.643   5.472 -1.9139  0.0946  1.3069
   30MOL   H41818456   7.491   3.716   5.629 -1.2745 -0.9665 -0.3913
   30MOL   H41918457   7.696   3.796   5.408  1.1498 -0.8460  0.5153
   30MOL   H42018458   7.721   3.708   5.550 -1.2839  0.1884  0.1715
   30MOL   H42118459   7.625   3.902   5.685  0.6126 -1.5202  1.0839
   30MOL   H42218460   0.016   3.890   5.635 -0.1143 -0.6750 -1.0238
   30MOL   H42318461   7.737   4.021   5.414  2.3641 -2.1964  1.8056
   30MOL   H42418462   7.578   4.053   5.472  0.2723  0.0059 -0.0298
   30MOL   H42518463   7.715   4.176   5.676 -2.5326  0.9644 -0.6281
   30MOL   H42618464   0.079   4.141   5.569  0.5225 -0.3066 -2.5043
   30MOL   H42718465   7.634   4.293   5.440  1.0020  0.2686 -1.3324
   30MOL   H42818466   0.038   4.287   5.417 -0.5628  2.0741  0.4698
   30MOL   H42918467   7.681   4.432   5.619 -1.1512 -1.1006 -0.1476
   30MOL   H43018468   0.076   4.426   5.616 -0.4193  0.1831  0.2308
   30MOL   H43118469   0.062   4.518   5.371  0.2690 -2.5041  0.4413
   30MOL   H43218470   7.770   4.623   5.494  1.8616  0.6762 -0.8102
   30MOL   H43318471   7.662   4.522   5.404 -0.7593  0.7935  2.8190
   30MOL   H43418472   7.121   3.760   5.338  0.1253  1.3343  4.1466
   30MOL   H43518473   7.275   3.771   5.256 -1.4939  1.9757  0.0432
   30MOL   C43618474   7.244   3.577   5.350 -0.1225 -0.7723  0.3358
   30MOL   O43718475   7.206   3.516   5.225  0.0526 -1.4757  0.0872
   30MOL   C43818476   7.305   3.491   5.127 -0.4488  0.2791  0.2097
   30MOL   C43918477   7.248   3.469   4.987 -0.2496 -0.4939 -0.1826
   30MOL   C44018478   7.162   3.338   4.979 -0.5798 -0.4358 -0.3378
   30MOL   C44118479   7.106   3.295   4.838 -0.2685  0.6255 -0.6793
   30MOL   C44218480   7.016   3.173   4.860  0.3100  0.1253 -0.1190
   30MOL   C44318481   6.934   3.149   4.728  0.8372 -0.5476 -0.4723
   30MOL   C44418482   6.998   3.051   4.632 -0.1665  0.5430 -0.2455
   30MOL   C44518483   6.980   2.908   4.680 -0.3637  0.2858 -0.2491
   30MOL   C44618484   7.167   3.509   5.463  0.8933  0.0134  0.1154
   30MOL   H44718485   7.346   3.542   5.364  0.0413 -0.5040 -0.1730
   30MOL   H44818486   7.382   3.567   5.118  1.0710 -1.0181  1.8705
   30MOL   H44918487   7.360   3.405   5.168  3.1553  2.1061 -0.6129
   30MOL   H45018488   7.327   3.461   4.912 -0.1584  0.0052 -0.1416
   30MOL   H45118489   7.179   3.548   4.958 -0.0065 -0.6352 -1.1487
   30MOL   H45218490   7.235   3.264   5.012 -3.0477 -2.8157 -0.1106
   30MOL   H45318491   7.084   3.351   5.054  0.2248  1.2521  0.2452
   30MOL   H45418492   7.039   3.379   4.822 -1.4243 -0.3831 -1.1903
   30MOL   H45518493   7.176   3.290   4.754  1.6235 -1.0299  0.9396
   30MOL   H45618494   7.074   3.085   4.887  0.8424  0.0684 -1.4307
   30MOL   H45718495   6.949   3.185   4.945  0.7862 -0.6102  0.3705
   30MOL   H45818496   6.919   3.245   4.679 -2.8702  0.4240  2.3638
   30MOL   H45918497   6.834   3.108   4.739  1.2818 -1.5073  0.1286
   30MOL   H46018498   6.945   3.048   4.537  0.7492  0.9260 -0.7777
   30MOL   H46118499   7.099   3.092   4.625  0.1004 -0.1845 -0.7878
   30MOL   H46218500   7.022   2.901   4.780 -0.3589 -0.4145 -0.2989
   30MOL   H46318501   7.036   2.845   4.610 -1.2447  0.0707 -0.7656
   30MOL   H46418502   6.875   2.886   4.700 -0.7343  0.3458 -2.0144
   30MOL   H46518503   7.178   3.403   5.440  0.4158 -0.2958  1.2969
   30MOL   H46618504   7.222   3.531   5.555 -0.6084 -0.6076  1.1714
   30MOL   C46718505   7.015   3.535   5.478  0.2700  0.1429  0.4323
   30MOL   O46818506   6.986   3.648   5.555 -0.1519 -0.2939 -0.3146
   30MOL   C46918507   6.859   3.699   5.523 -0.4530 -0.0964  0.3940
   30MOL   C47018508   6.814   3.783   5.642  0.3060 -0.0705 -0.0853
   30MOL   C47118509   6.660   3.812   5.648 -0.3240 -0.8948  0.1036
   30MOL   C47218510   6.604   3.875   5.770 -0.5769 -0.0324  0.4718
   30MOL   C47318511   6.583   3.783   5.893 -0.8122 -0.6886  0.4556
   30MOL   C47418512   6.597   3.849   6.026 -0.0064 -0.4158 -0.3700
   30MOL   C47518513   6.556   3.762   6.151 -0.0959 -0.3415  0.1181
   30MOL   C47618514   6.596   3.818   6.285 -0.0442  0.1363 -0.3964
   30MOL   C47718515   6.941   3.407   5.543 -0.8605 -0.5821  0.0271
   30MOL   H47818516   6.965   3.541   5.382  1.3460  0.6706 -0.1028
   30MOL   H47918517   6.785   3.625   5.494 -1.4594  0.4108  1.6123
   30MOL   H48018518   6.859   3.755   5.429 -0.6384  2.2464  1.7398
   30MOL   H48118519   6.876   3.869   5.664  0.3292 -0.4271  1.3213
   30MOL   H48218520   6.843   3.733   5.735 -1.1219  1.2774  1.1089
   30MOL   H48318521   6.625   3.869   5.562  0.4970 -2.2780 -1.1706
   30MOL   H48418522   6.610   3.716   5.636 -1.3023 -0.4562  0.5617
   30MOL   H48518523   6.664   3.961   5.801 -0.6431 -0.5674  2.1584
   30MOL   H48618524   6.509   3.927   5.755 -0.7660 -0.6330 -0.4018
   30MOL   H48718525   6.483   3.738   5.890 -1.5202  0.7629  1.8135
   30MOL   H48818526   6.648   3.695   5.891  0.8631  0.5355 -2.5602
   30MOL   H48918527   6.537   3.940   6.028  1.6560  0.7159 -1.1009
   30MOL   H49018528   6.699   3.887   6.026 -0.2772  0.3356 -0.7678
   30MOL   H49118529   6.448   3.752   6.141 -0.5584  3.0749  1.1828
   30MOL   H49218530   6.592   3.659   6.142 -0.8404 -0.5300 -0.8908
   30MOL   H49318531   6.551   3.765   6.369 -0.2866  0.8726 -0.0496
   30MOL   H49418532   6.556   3.919   6.294  2.6669  1.2222 -0.0524
   30MOL   H49518533   6.702   3.830   6.305  0.1240 -1.1630 -0.5047
   30MOL   H49618534   7.001   3.372   5.628 -0.0791 -0.3615 -0.4276
   30MOL   H49718535   6.843   3.438   5.579 -0.2402  0.0755  1.1862
   30MOL   C49818536   6.912   3.291   5.450  0.1617 -0.5145 -0.2230
   30MOL   O49918537   6.802   3.315   5.356  0.2086  0.1092 -0.3614
   30MOL   C50018538   6.840   3.315   5.225  0.1808  0.1530  0.4732
   30MOL   C50118539   6.727   3.387   5.154  0.6296 -0.3425  0.1193
   30MOL   C50218540   6.744   3.370   4.999 -0.2269  0.2736  0.1221
   30MOL   C50318541   6.638   3.451   4.916 -0.2077  0.3888 -0.0650
   30MOL   C50418542   6.674   3.467   4.765 -0.4081 -0.2750 -0.0808
   30MOL   C50518543   6.578   3.559   4.686 -0.0363 -0.3809  1.1392
   30MOL   C50618544   6.594   3.551   4.537 -0.6093 -0.6686 -0.3859
   30MOL   C50718545   6.501   3.642   4.461  0.5489 -0.5162 -0.1361
   30MOL   C50818546   6.871   3.164   5.530 -0.6651 -0.3335 -0.3297
   30MOL   H50918547   7.007   3.275   5.399 -0.7007 -1.9253 -1.4000
   30MOL   H51018548   6.838   3.211   5.192 -0.1234  0.1782  0.4084
   30MOL   H51118549   6.933   3.362   5.194  0.2935 -0.6945 -0.5045
   30MOL   H51218550   6.714   3.487   5.194 -1.3727  0.0150 -1.3974
   30MOL   H51318551   6.636   3.333   5.181  1.8769 -1.7783  1.6268
   30MOL   H51418552   6.845   3.406   4.979  0.0840 -0.6458  0.0087
   30MOL   H51518553   6.741   3.264   4.972 -0.7562  0.3050  0.0583
   30MOL   H51618554   6.541   3.402   4.929  0.1719 -0.4281 -0.2819
   30MOL   H51718555   6.624   3.550   4.960 -1.6508 -0.3440  1.1852
   30MOL   H51818556   6.773   3.513   4.767 -0.3959 -0.3131  0.3149
   30MOL   H51918557   6.691   3.368   4.724  1.4983 -0.4751  1.0873
   30MOL   H52018558   6.598   3.660   4.721  0.3547 -0.3289  0.7571
   30MOL   H52118559   6.473   3.547   4.716 -0.8359  1.7170 -0.6780
   30MOL   H52218560   6.697   3.573   4.509 -0.3258 -0.5591  0.7054
   30MOL   H52318561   6.580   3.450   4.498 -0.0783 -1.1790  0.7130
   30MOL   H52418562   6.485   3.616   4.356 -0.3127 -1.3342  0.1980
   30MOL   H52518563   6.523   3.746   4.485 -0.6985 -0.3270  0.2280
   30MOL   H52618564   6.399   3.651   4.498  0.4137 -1.9516 -0.1402
   30MOL   H52718565   6.920   3.155   5.627  0.3521  2.7274 -0.5001
   30MOL   H52818566   6.764   3.173   5.547 -0.6439  2.3137 -1.4298
   30MOL   C52918567   6.910   3.036   5.461 -0.5126 -0.2228  0.3757
   30MOL   O53018568   6.855   2.932   5.528 -0.2740 -0.1209  0.1004
   30MOL   C53118569   6.714   2.902   5.528 -0.8207 -0.5139  0.5091
   30MOL   C53218570   6.690   2.773   5.605 -0.4439  0.4002 -0.5935
   30MOL   C53318571   6.550   2.715   5.610 -0.8453  0.4413 -0.0100
   30MOL   C53418572   6.533   2.615   5.496  0.0334  0.0167 -0.6603
   30MOL   C53518573   6.385   2.586   5.477  0.3371 -0.2457  0.0113
   30MOL   C53618574   6.371   2.444   5.417 -0.0029  0.1571 -0.5774
   30MOL   C53718575   6.431   2.428   5.277 -0.0241 -0.7510  0.3646
   30MOL   C53818576   6.384   2.303   5.190  0.0446  0.1028  0.2033
   30MOL   C53918577   7.056   3.001   5.433  0.0392  0.0338 -0.5535
   30MOL   H54018578   6.867   3.038   5.360  0.7745 -0.3065 -0.1797
   30MOL   H54118579   6.655   2.982   5.572  1.0763  0.6680  0.9565
   30MOL   H54218580   6.676   2.888   5.426 -1.5272 -0.5067  0.7730
   30MOL   H54318581   6.713   2.798   5.708  1.4302 -1.0430 -0.6318
   30MOL   H54418582   6.763   2.698   5.573  1.4458  0.3595  3.4943
   30MOL   H54518583   6.535   2.662   5.704 -0.7372  0.2668 -0.0915
   30MOL   H54618584   6.478   2.797   5.608 -1.9415 -0.4847  0.8190
   30MOL   H54718585   6.559   2.676   5.409  0.1619  0.5080 -0.2838
   30MOL   H54818586   6.607   2.538   5.515  1.0631  0.1709 -3.7310
   30MOL   H54918587   6.337   2.592   5.574 -2.3699 -0.5546 -1.2588
   30MOL   H55018588   6.343   2.663   5.412  0.6032 -0.5808 -0.5670
   30MOL   H55118589   6.263   2.430   5.408  0.2549 -1.7293 -0.8209
   30MOL   H55218590   6.405   2.361   5.478 -0.8292  0.4819  0.3344
   30MOL   H55318591   6.418   2.520   5.221  0.5709 -1.1138 -0.3786
   30MOL   H55418592   6.537   2.403   5.291  0.1207 -0.3757 -0.0668
   30MOL   H55518593   6.452   2.304   5.105  0.9995  4.6778  0.8888
   30MOL   H55618594   6.279   2.293   5.163  0.3284 -0.5661 -0.6793
   30MOL   H55718595   6.407   2.206   5.235 -0.4439 -0.5364 -0.9352
   30MOL   H55818596   7.047   2.902   5.387  4.3704  0.1587 -1.8473
   30MOL   H55918597   7.095   3.070   5.359  2.0755 -0.5557 -0.0672
   30MOL   C56018598   7.141   2.983   5.550 -0.4902 -0.3624 -0.6697
   30MOL   O56118599   7.185   3.117   5.576 -0.7521  0.4093  0.0705
   30MOL   C56218600   7.203   3.146   5.716  0.4003 -0.3730  0.3265
   30MOL   C56318601   7.276   3.277   5.732  0.2149 -0.3678  0.2768
   30MOL   C56418602   7.429   3.261   5.702  0.7204 -0.2857  0.6449
   30MOL   C56518603   7.508   3.404   5.705 -0.0754  0.0247  0.6968
   30MOL   C56618604   7.661   3.378   5.694  0.2037 -0.1997 -0.2752
   30MOL   C56718605   7.711   3.350   5.553 -0.3270  0.1788  0.4170
   30MOL   C56818606   0.089   3.363   5.541  0.5238 -0.3993  0.1833
   30MOL   C56918607   0.147   3.330   5.410 -0.3307 -0.4784  0.3293
   30MOL   C57018608   7.266   2.903   5.512 -0.2036 -0.4845 -0.4846
   30MOL   H57118609   7.088   2.941   5.636  0.4779 -1.3300 -0.5241
   30MOL   H57218610   7.259   3.066   5.765 -1.8966 -2.0106  0.3251
   30MOL   H57318611   7.103   3.152   5.757  0.7729  0.7725  1.0988
   30MOL   H57418612   7.269   3.309   5.836 -2.3040 -0.9355  0.2927
   30MOL   H57518613   7.226   3.347   5.667 -0.5696 -2.5091 -1.4817
   30MOL   H57618614   7.471   3.190   5.774  0.6011 -1.3498 -0.3182
   30MOL   H57718615   7.431   3.213   5.604  0.6046 -1.0461  1.0083
   30MOL   H57818616   7.466   3.469   5.628  0.2831  0.4073  0.8222
   30MOL   H57918617   7.489   3.452   5.801  0.1034  0.9472  0.2754
   30MOL   H58018618   7.712   3.471   5.720 -0.8825  0.2026  0.4402
   30MOL   H58118619   7.698   3.310   5.771 -2.5510 -1.1277  0.2864
   30MOL   H58218620   7.667   3.411   5.474 -0.5488  0.0399  0.4333
   30MOL   H58318621   7.684   3.245   5.538  0.3990  0.2918 -1.9134
   30MOL   H58418622   0.143   3.457   5.554  3.3062 -1.6928 -1.4409
   30MOL   H58518623   0.136   3.314   5.626  1.3957  1.0441  0.5614
   30MOL   H58618624   0.254   3.350   5.414 -0.5266  0.8342 -0.6602
   30MOL   H58718625   0.097   3.387   5.331  1.4058  3.4187  1.9261
   30MOL   H58818626   0.128   3.227   5.380 -1.0004 -0.3015  0.1458
   30MOL   H58918627   7.296   2.938   5.413  3.5142  0.1538  0.7659
   30MOL   H59018628   7.353   2.929   5.573 -0.8819  1.2776 -0.2563
   30MOL   C59118629   7.241   2.753   5.522  0.3464  0.3856 -0.3326
   30MOL   O59218630   7.186   2.718   5.653 -0.6451  0.6880 -0.2463
   30MOL   C59318631   7.063   2.651   5.658 -0.6870  0.2102  0.4235
   30MOL   C59418632   7.020   2.619   5.796 -0.3756 -0.7516  0.3320
   30MOL   C59518633   7.130   2.538   5.869 -0.1565  0.7415 -0.1871
   30MOL   C59618634   7.129   2.387   5.835  0.0746 -0.5389 -0.1570
   30MOL   C59718635   7.235   2.303   5.912  0.0690 -0.3499 -0.7015
   30MOL   C59818636   7.204   2.160   5.886 -0.2729 -0.1648  0.7513
   30MOL   C59918637   7.325   2.067   5.909  0.1288 -0.1776  0.6514
   30MOL   C60018638   7.302   1.925   5.859  0.3917  0.0934  0.7515
   30MOL   C60118639   7.363   2.663   5.501 -0.3382  0.3639 -0.0249
   30MOL   H60218640   7.170   2.715   5.448  0.2711 -2.1890  0.9880
   30MOL   H60318641   7.070   2.558   5.601 -0.6112  0.1581  0.5194
   30MOL   H60418642   6.982   2.705   5.608  1.4130  0.9179 -2.3542
   30MOL   H60518643   6.926   2.566   5.806  0.3683 -1.7192  2.4691
   30MOL   H60618644   7.016   2.716   5.845 -0.8112 -1.0255  0.8346
   30MOL   H60718645   7.226   2.584   5.846 -0.2450 -0.0028 -2.0890
   30MOL   H60818646   7.106   2.543   5.975  1.3832  0.6219  0.1792
   30MOL   H60918647   7.029   2.347   5.849 -0.9980  1.4484 -1.9812
   30MOL   H61018648   7.148   2.369   5.729 -2.2201 -1.4851 -0.4253
   30MOL   H61118649   7.337   2.334   5.888 -0.0377  0.2415 -0.3942
   30MOL   H61218650   7.224   2.316   6.020 -0.3686 -0.7609 -0.6950
   30MOL   H61318651   7.168   2.149   5.784 -0.6679 -2.0048  1.0681
   30MOL   H61418652   7.115   2.127   5.940 -1.3114  2.8654  0.9819
   30MOL   H61518653   7.425   2.096   5.877  0.1134  0.8331  1.5104
   30MOL   H61618654   7.327   2.051   6.017  1.3751 -2.4971  0.3244
   30MOL   H61718655   7.212   1.885   5.906 -0.2802 -0.7818 -1.2061
   30MOL   H61818656   7.389   1.870   5.895 -0.6351 -2.2500 -0.2141
   30MOL   H61918657   7.288   1.934   5.751 -1.1727 -1.8489  0.7633
   30MOL   H62018658   7.407   2.689   5.405 -0.2123 -0.5339 -0.2093
   30MOL   H62118659   7.428   2.704   5.579 -1.2399 -1.2502  1.6036
   30MOL   H62218660   7.331   2.562   5.525  0.2568  0.2208  0.1725
   31MOL     C118661   4.244   6.889   0.602  0.1440 -0.7501  0.3481
   31MOL     O218662   4.350   6.795   0.568 -0.0648  0.2997  0.1275
   31MOL     C318663   4.480   6.850   0.560  0.2686 -0.5244 -0.2651
   31MOL     C418664   4.484   6.959   0.446 -0.0659 -0.1828  0.3334
   31MOL     C518665   4.424   6.909   0.314 -0.4568  0.7324  0.1169
   31MOL     C618666   4.458   7.000   0.194  0.1876  0.1761  0.0914
   31MOL     C718667   4.409   6.951   0.063 -0.2409 -0.5852  0.0655
   31MOL     C818668   4.448   7.037   7.711  0.0760  0.3651  0.3923
   31MOL     C918669   4.371   7.002   7.578  0.1859 -0.7152 -0.3008
   31MOL    C1018670   4.220   7.018   7.591 -0.0539 -0.0962  0.6316
   31MOL    C1118671   4.110   6.806   0.584 -0.1521  0.2501 -0.2318
   31MOL    H1218672   4.248   6.924   0.705  1.0545 -1.1265  0.4459
   31MOL    H1318673   4.538   6.762   0.532 -0.6099 -0.9477 -0.7619
   31MOL    H1418674   4.511   6.884   0.659 -1.0329  0.3117 -0.1292
   31MOL    H1518675   4.587   6.979   0.419 -0.3948  2.0906  0.6994
   31MOL    H1618676   4.444   7.057   0.473  0.2127 -0.5794  2.2282
   31MOL    H1718677   4.464   6.809   0.298  0.1126  0.9916 -0.0979
   31MOL    H1818678   4.317   6.890   0.322 -0.1296 -0.8278  1.0178
   31MOL    H1918679   4.417   7.098   0.219  1.5307  1.2783 -1.8592
   31MOL    H2018680   4.567   7.010   0.191  0.1354  1.6617  2.0557
   31MOL    H2118681   4.440   6.847   0.057  0.2941 -0.3628 -1.2619
   31MOL    H2218682   4.301   6.941   0.067 -0.4088  0.5745 -1.1685
   31MOL    H2318683   4.552   7.031   7.678 -0.4105  2.2381 -1.5269
   31MOL    H2418684   4.446   7.143   7.735 -0.9088  0.9005 -1.9845
   31MOL    H2518685   4.403   7.071   7.499 -0.4154 -0.1348 -0.0427
   31MOL    H2618686   4.395   6.901   7.545 -0.9793 -1.6649  1.6792
   31MOL    H2718687   4.172   7.001   7.495 -1.3509 -0.8390  1.3960
   31MOL    H2818688   4.199   7.124   7.608  2.8930  0.6904 -0.4181
   31MOL    H2918689   4.176   6.944   7.658  0.2133  0.4480  1.4110
   31MOL    H3018690   4.020   6.866   0.600 -0.6520 -0.9749  1.8287
   31MOL    H3118691   4.118   6.759   0.487 -1.8298  0.2002 -0.3590
   31MOL    H3218692   4.236   6.978   0.539 -1.1201  0.9869  2.8736
   31MOL    C3318693   4.096   6.689   0.684 -0.2510  0.4690  0.5304
   31MOL    O3418694   3.970   6.620   0.656 -0.1572 -0.3209  0.7662
   31MOL    C3518695   3.962   6.495   0.709  0.1224  0.4854 -0.7067
   31MOL    C3618696   3.820   6.443   0.682 -0.3265 -0.0822 -1.1221
   31MOL    C3718697   3.804   6.297   0.727  0.4753  0.3333  0.0311
   31MOL    C3818698   3.716   6.206   0.636 -0.1754  0.0531  0.3299
   31MOL    C3918699   3.570   6.200   0.686  0.7268 -0.4183 -0.5086
   31MOL    C4018700   3.467   6.142   0.589  0.2980  0.4070 -0.0208
   31MOL    C4118701   3.432   6.231   0.465 -0.2090 -0.2274 -0.2633
   31MOL    C4218702   3.468   6.173   0.327  0.0064 -0.0190  0.2770
   31MOL    C4318703   4.082   6.741   0.835  0.1324  1.1476 -0.0236
   31MOL    H4418704   4.175   6.614   0.674 -1.4910 -1.0959  2.0621
   31MOL    H4518705   3.969   6.501   0.817  1.0956 -0.7988 -0.6914
   31MOL    H4618706   4.042   6.434   0.666 -1.4297 -1.1461 -1.3326
   31MOL    H4718707   3.804   6.463   0.576  0.1492  2.3067 -0.7812
   31MOL    H4818708   3.749   6.505   0.736 -1.2101 -0.7835 -1.4522
   31MOL    H4918709   3.904   6.254   0.723 -0.1596 -1.1094 -0.6950
   31MOL    H5018710   3.781   6.289   0.833  0.9676 -0.7352  0.0597
   31MOL    H5118711   3.720   6.243   0.534 -1.2060  3.0471  1.3380
   31MOL    H5218712   3.755   6.105   0.649 -1.1496 -0.2908  0.5764
   31MOL    H5318713   3.563   6.154   0.785  0.7231 -0.7954 -0.6843
   31MOL    H5418714   3.543   6.304   0.703  1.0172 -0.6938  1.8665
   31MOL    H5518715   3.380   6.124   0.652 -1.4109  0.8976 -2.1541
   31MOL    H5618716   3.505   6.045   0.555  0.5028  0.8157 -0.9794
   31MOL    H5718717   3.325   6.249   0.471  0.0749  0.9527  1.5879
   31MOL    H5818718   3.488   6.324   0.472 -1.4910  0.5397 -0.0368
   31MOL    H5918719   3.411   6.083   0.305 -0.8384  0.7456 -0.6942
   31MOL    H6018720   3.575   6.157   0.314  0.1751  1.6885 -0.7006
   31MOL    H6118721   3.424   6.235   0.249  0.3254  0.3425  0.3812
   31MOL    H6218722   4.073   6.652   0.896  0.9301  0.2822 -1.1394
   31MOL    H6318723   4.179   6.786   0.857  1.1892 -0.4925 -1.2490
   31MOL    C6418724   3.968   6.844   0.867  0.4406 -1.3866  0.1610
   31MOL    O6518725   3.978   6.860   1.010  0.0110  0.2881 -0.1260
   31MOL    C6618726   4.067   6.963   1.053 -0.5585 -0.7717  0.1905
   31MOL    C6718727   4.132   6.913   1.182 -0.3136  0.2400  0.1178
   31MOL    C6818728   4.226   7.014   1.252  0.0029 -0.1192  0.2224
   31MOL    C6918729   4.326   6.940   1.345 -0.1358  0.2801  0.1038
   31MOL    C7018730   4.430   7.034   1.416 -0.1916  0.1420  0.3087
   31MOL    C7118731   4.508   6.945   1.513  0.1159 -0.7651  0.6241
   31MOL    C7218732   4.656   6.914   1.473  0.3296 -0.0145 -0.5886
   31MOL    C7318733   4.725   6.808   1.557 -0.6021  0.1337 -0.0079
   31MOL    C7418734   3.819   6.792   0.844  0.2852 -0.4071  0.0322
   31MOL    H7518735   3.984   6.940   0.819  3.3901 -2.1269 -0.4853
   31MOL    H7618736   4.014   7.057   1.068  1.2550  0.2324  0.4666
   31MOL    H7718737   4.144   6.977   0.977  1.4947  0.1708  2.3664
   31MOL    H7818738   4.193   6.833   1.139 -2.1063 -0.1627 -1.7431
   31MOL    H7918739   4.068   6.861   1.253 -0.8278 -1.0258 -1.2482
   31MOL    H8018740   4.289   7.059   1.175 -0.5528 -0.8633 -0.6714
   31MOL    H8118741   4.167   7.098   1.290 -0.8174 -0.5139 -0.1790
   31MOL    H8218742   4.271   6.877   1.415  0.3615 -0.2240  0.0426
   31MOL    H8318743   4.387   6.878   1.279 -1.3739  0.0467 -0.8488
   31MOL    H8418744   4.480   7.102   1.346 -1.3667  0.5683 -0.1326
   31MOL    H8518745   4.372   7.096   1.485 -0.5244 -0.9443  1.0116
   31MOL    H8618746   4.463   6.847   1.526 -0.2177 -0.8989 -1.3527
   31MOL    H8718747   4.511   6.986   1.614  0.7981 -0.9358  0.6770
   31MOL    H8818748   4.644   6.877   1.371 -3.1763  1.2454 -0.7126
   31MOL    H8918749   4.720   7.001   1.463  2.2198 -1.3057 -0.1090
   31MOL    H9018750   4.663   6.723   1.583  0.1759 -0.5648 -0.4077
   31MOL    H9118751   4.755   6.854   1.651  0.2297 -2.8406  1.2260
   31MOL    H9218752   4.810   6.774   1.497 -1.7958 -2.7838 -0.1106
   31MOL    H9318753   3.803   6.772   0.738  0.5437  0.0965 -0.1037
   31MOL    H9418754   3.808   6.696   0.894  1.5725 -1.4263 -1.5872
   31MOL    C9518755   3.710   6.893   0.887  0.6511 -0.4511 -0.6964
   31MOL    O9618756   3.696   6.883   1.031  0.3369  0.4820  0.2220
   31MOL    C9718757   3.689   7.009   1.102  0.2842 -0.1037 -0.0029
   31MOL    C9818758   3.670   6.987   1.260 -0.0393  0.0710 -0.0757
   31MOL    C9918759   3.804   6.956   1.332  0.4586 -0.1209  1.0664
   31MOL   C10018760   3.788   6.959   1.487 -0.2167 -0.2182 -0.1915
   31MOL   C10118761   3.924   6.911   1.544  0.3812  0.6386 -0.5063
   31MOL   C10218762   3.927   6.930   1.695 -0.0539 -0.3645 -0.0583
   31MOL   C10318763   4.050   6.862   1.753 -0.3908 -0.1232 -0.3731
   31MOL   C10418764   4.180   6.929   1.711 -0.1938 -0.0147  0.1513
   31MOL   C10518765   3.574   6.850   0.839  0.5593  0.0264 -0.1795
   31MOL   H10618766   3.741   6.991   0.853 -0.5699 -0.0781 -0.7373
   31MOL   H10718767   3.612   7.073   1.058  1.1104  0.3367 -0.8190
   31MOL   H10818768   3.779   7.068   1.088  0.0635  0.1552 -0.3430
   31MOL   H10918769   3.590   6.914   1.274  0.6224 -0.4784  0.8824
   31MOL   H11018770   3.638   7.087   1.288  1.6991 -0.2584  3.3009
   31MOL   H11118771   3.838   6.861   1.290 -2.0732 -0.5136 -0.2653
   31MOL   H11218772   3.876   7.033   1.304 -1.1253  1.7107  1.9492
   31MOL   H11318773   3.776   7.062   1.520  0.5634  0.0675 -0.7777
   31MOL   H11418774   3.718   6.884   1.524 -0.8113  0.0969 -0.6701
   31MOL   H11518775   3.920   6.804   1.522 -1.4346  0.9581 -1.9203
   31MOL   H11618776   4.012   6.942   1.487  0.1062 -1.3835 -2.0889
   31MOL   H11718777   3.836   6.887   1.735  0.0331 -1.2667 -0.8301
   31MOL   H11818778   3.923   7.037   1.715 -2.4245 -0.2074 -1.2867
   31MOL   H11918779   4.047   6.863   1.862  0.0509 -1.6735 -0.3375
   31MOL   H12018780   4.051   6.755   1.732 -1.5780 -0.5461  1.5302
   31MOL   H12118781   4.209   6.904   1.610  1.3449  1.2350  0.2695
   31MOL   H12218782   4.251   6.878   1.775  0.1067  0.2318  0.0151
   31MOL   H12318783   4.179   7.036   1.733 -0.3626 -0.0771  0.4564
   31MOL   H12418784   3.549   6.751   0.877  2.0203  0.5447  2.2421
   31MOL   H12518785   3.506   6.915   0.893  1.5696  0.8607  0.1050
   31MOL   C12618786   3.554   6.868   0.680  0.1467 -0.4755 -0.6831
   31MOL   O12718787   3.591   7.005   0.639 -0.3289  0.3170 -0.8565
   31MOL   C12818788   3.683   7.029   0.533  0.3762  0.0657  0.2916
   31MOL   C12918789   3.760   7.156   0.572 -0.4042 -0.2277 -0.6499
   31MOL   C13018790   3.687   7.282   0.537  0.7298  0.0025  0.6124
   31MOL   C13118791   3.747   7.414   0.586 -0.2057 -0.2191  0.8677
   31MOL   C13218792   3.663   7.537   0.551 -0.2077 -0.1714  0.2687
   31MOL   C13318793   3.728   7.665   0.607  0.0461 -0.1947 -0.0730
   31MOL   C13418794   3.618   0.005   0.595 -0.1522 -0.6867 -0.1404
   31MOL   C13518795   3.660   0.139   0.662 -0.1185  0.0221  0.0703
   31MOL   C13618796   3.409   6.845   0.640 -0.1467  0.3502 -0.4754
   31MOL   H13718797   3.623   6.799   0.632  0.5138 -1.4862  1.2569
   31MOL   H13818798   3.625   7.040   0.441 -0.6310  0.3301  0.9510
   31MOL   H13918799   3.749   6.944   0.514  1.2950  1.1653 -1.5613
   31MOL   H14018800   3.862   7.150   0.536 -1.0817 -0.0221 -2.7190
   31MOL   H14118801   3.777   7.148   0.679 -0.0449 -1.0674 -0.7669
   31MOL   H14218802   3.653   7.281   0.433 -0.4446 -0.3383  0.9869
   31MOL   H14318803   3.592   7.279   0.592  0.0570 -2.4008 -0.5976
   31MOL   H14418804   3.741   7.396   0.693 -0.2448 -1.5755  0.6528
   31MOL   H14518805   3.849   7.424   0.550 -0.4195 -2.0506 -0.3822
   31MOL   H14618806   3.653   7.543   0.443  0.3706 -1.6133  0.1206
   31MOL   H14718807   3.566   7.515   0.594  1.6891 -1.4195  4.2194
   31MOL   H14818808   3.827   7.679   0.565 -0.0308 -0.2083 -0.2615
   31MOL   H14918809   3.759   7.646   0.710  0.1469 -0.5687 -0.1705
   31MOL   H15018810   3.592   0.024   0.491 -2.3201  0.2636  0.5711
   31MOL   H15118811   3.519   7.748   0.628 -0.9008  0.6645 -1.0809
   31MOL   H15218812   3.584   0.210   0.632 -0.0064  0.4337  0.7366
   31MOL   H15318813   3.764   0.164   0.642 -0.5652  0.6516 -1.5310
   31MOL   H15418814   3.640   0.141   0.770 -0.6849 -1.9329  0.0172
   31MOL   H15518815   3.392   6.738   0.633 -2.2350  0.7779 -2.1995
   31MOL   H15618816   3.352   6.882   0.726  3.6390 -0.1299  2.3843
   31MOL   C15718817   3.359   6.890   0.500  0.9992 -0.0604 -0.6154
   31MOL   O15818818   3.443   6.856   0.394  0.0830  0.1031  0.1325
   31MOL   C15918819   3.459   6.723   0.357  0.3132  0.4097 -0.3308
   31MOL   C16018820   3.574   6.698   0.262 -0.1875  0.0352 -0.3296
   31MOL   C16118821   3.603   6.553   0.221  0.3016  0.8220  0.1340
   31MOL   C16218822   3.704   6.543   0.112  0.1641 -0.5175  0.2764
   31MOL   C16318823   3.744   6.400   0.078  0.3362  0.2222  0.3738
   31MOL   C16418824   3.812   6.321   0.183 -0.1594 -0.2384  0.2195
   31MOL   C16518825   3.829   6.172   0.151  0.4669 -0.2839  1.3153
   31MOL   C16618826   3.925   6.130   0.046 -0.2260  0.7327 -0.1255
   31MOL   C16718827   3.311   7.042   0.488 -0.4801 -0.4029  0.7717
   31MOL   H16818828   3.269   6.831   0.482  1.5016 -0.9957 -0.0700
   31MOL   H16918829   3.375   6.687   0.298  1.0596 -2.0495  0.0754
   31MOL   H17018830   3.468   6.650   0.437  0.1222  2.1633  1.3172
   31MOL   H17118831   3.667   6.730   0.310 -1.4090  0.9534  1.5113
   31MOL   H17218832   3.557   6.761   0.175  0.4325 -0.0825 -0.5364
   31MOL   H17318833   3.620   6.486   0.304  0.7335 -1.0272 -1.4105
   31MOL   H17418834   3.506   6.530   0.178  0.1008  1.9110 -0.0353
   31MOL   H17518835   3.661   6.591   0.024  1.2724  1.6077  0.8782
   31MOL   H17618836   3.793   6.596   0.144  0.3052 -0.4196 -0.2715
   31MOL   H17718837   3.662   6.341   0.038  1.1577 -0.8228  0.1765
   31MOL   H17818838   3.815   6.401   7.769  0.1708 -0.9176  0.2069
   31MOL   H17918839   3.743   6.321   0.267  1.4074  0.8912  1.5510
   31MOL   H18018840   3.907   6.365   0.213 -0.1457 -0.2650  0.2151
   31MOL   H18118841   3.858   6.119   0.242 -2.2156 -2.3742  1.0274
   31MOL   H18218842   3.728   6.136   0.128  0.0972  1.6725 -0.2217
   31MOL   H18318843   4.021   6.181   0.056 -0.3705  0.7766  1.1430
   31MOL   H18418844   3.894   6.166   7.722 -0.2996  2.3280  0.4649
   31MOL   H18518845   3.940   6.022   0.045  0.7410  0.8630  0.1693
   31MOL   H18618846   3.391   7.110   0.513 -1.8143  1.4739  0.0325
   31MOL   H18718847   3.295   7.072   0.384 -0.8005 -0.9774  0.6510
   31MOL   C18818848   3.185   7.063   0.577  0.1910  0.2245  0.5675
   31MOL   O18918849   3.083   6.992   0.513  0.0333 -0.0194  0.2250
   31MOL   C19018850   3.009   6.903   0.596 -0.1140 -0.6686  0.0670
   31MOL   C19118851   2.924   6.814   0.497 -0.1774  0.5006 -0.3392
   31MOL   C19218852   2.835   6.702   0.569 -0.6259  0.2980  0.8728
   31MOL   C19318853   2.918   6.625   0.675  0.3328  0.2446 -0.2800
   31MOL   C19418854   3.042   6.554   0.626 -0.1523  0.9103  0.1861
   31MOL   C19518855   3.145   6.535   0.740  0.2896  0.0874 -0.1073
   31MOL   C19618856   3.253   6.432   0.710 -0.0362  0.2245  0.1843
   31MOL   C19718857   3.312   6.384   0.845  0.3025  0.2524 -0.2396
   31MOL   C19818858   3.154   7.220   0.591  0.6368 -0.1415  0.0491
   31MOL   H19918859   3.213   7.019   0.672 -1.9700  0.0397  1.1410
   31MOL   H20018860   3.073   6.848   0.665  2.2985  3.1394  1.0467
   31MOL   H20118861   2.943   6.957   0.665  0.7284  1.1279 -0.5079
   31MOL   H20218862   2.982   6.765   0.419  0.3752  0.9827 -0.2277
   31MOL   H20318863   2.859   6.877   0.437 -1.3389 -2.1170 -1.9058
   31MOL   H20418864   2.752   6.741   0.628  0.1866  1.0669  1.5488
   31MOL   H20518865   2.791   6.634   0.497 -0.0156  0.6165  0.1916
   31MOL   H20618866   2.937   6.694   0.758 -1.5965 -0.0743  0.4534
   31MOL   H20718867   2.852   6.556   0.728  1.1924 -0.9799 -0.7748
   31MOL   H20818868   3.018   6.454   0.590  0.3759  0.3322  1.4070
   31MOL   H20918869   3.096   6.611   0.549  0.6181  0.4572  0.3804
   31MOL   H21018870   3.095   6.520   0.836 -0.3241  0.1814 -0.4130
   31MOL   H21118871   3.202   6.627   0.757  2.2983 -1.6235  2.9154
   31MOL   H21218872   3.208   6.347   0.657  1.8438 -1.7792  1.7214
   31MOL   H21318873   3.335   6.470   0.650  0.7045  1.0077  1.6682
   31MOL   H21418874   3.343   6.280   0.833 -0.1626 -0.0127  0.7858
   31MOL   H21518875   3.232   6.379   0.918 -1.3944 -0.1262 -2.0904
   31MOL   H21618876   3.397   6.444   0.877  0.8149 -0.8116  0.4246
   31MOL   H21718877   3.203   7.267   0.506 -1.2437 -0.1482 -1.0693
   31MOL   H21818878   3.045   7.223   0.584  0.7127 -0.2338 -1.2269
   31MOL   C21918879   3.167   7.295   0.728  0.2175 -0.1663  0.5111
   31MOL   O22018880   3.111   7.430   0.704  0.1053 -0.5098 -0.1416
   31MOL   C22118881   2.971   7.452   0.697  0.1558 -0.2401 -0.4795
   31MOL   C22218882   2.957   7.606   0.716  0.6049  0.0692  0.2784
   31MOL   C22318883   2.813   7.649   0.755  0.3384 -0.4995 -1.0587
   31MOL   C22418884   2.790   0.022   0.782 -0.6572 -0.0401  0.4860
   31MOL   C22518885   2.653   0.057   0.815  0.1614 -0.8363 -0.4405
   31MOL   C22618886   2.625   0.213   0.824 -0.5532 -0.2176 -0.8392
   31MOL   C22718887   2.480   0.253   0.873 -0.1421  0.4864 -0.1992
   31MOL   C22818888   2.444   0.407   0.861  0.6925 -1.0492  0.6504
   31MOL   C22918889   3.313   7.298   0.779 -0.3157 -0.0221 -0.1007
   31MOL   H23018890   3.113   7.246   0.809 -0.5938 -2.3357 -1.2946
   31MOL   H23118891   2.929   7.392   0.777  0.6779  0.1960  0.1206
   31MOL   H23218892   2.932   7.421   0.600 -0.5301  0.3801 -0.4068
   31MOL   H23318893   2.980   7.660   0.624 -1.3088  0.0873 -0.2105
   31MOL   H23418894   3.029   7.655   0.782 -1.8067  1.4602  1.9545
   31MOL   H23518895   2.747   7.608   0.678  0.4367 -0.5052 -1.1411
   31MOL   H23618896   2.789   7.589   0.843 -1.6784  1.0411 -0.5444
   31MOL   H23718897   2.844   0.052   0.872 -1.1374  1.0286  0.4197
   31MOL   H23818898   2.829   0.073   0.694  1.1487 -2.8085 -0.3797
   31MOL   H23918899   2.580   0.022   0.742  0.8435  2.6393 -2.9670
   31MOL   H24018900   2.638   0.010   0.912 -1.0570  0.7175  0.1542
   31MOL   H24118901   2.634   0.255   0.724  3.0009  1.1095 -0.0388
   31MOL   H24218902   2.702   0.263   0.883 -1.3367  0.3848 -0.3198
   31MOL   H24318903   2.408   0.201   0.809 -0.3739 -0.1788  0.5999
   31MOL   H24418904   2.460   0.207   0.970 -0.7274  0.5341 -0.2966
   31MOL   H24518905   2.355   0.426   0.922  0.5531  2.8493 -0.6470
   31MOL   H24618906   2.423   0.440   0.760 -0.9055  0.2214  1.3746
   31MOL   H24718907   2.528   0.471   0.889 -0.0835  0.2150  0.1238
   31MOL   H24818908   3.354   7.197   0.773 -0.8684 -0.1935 -1.2187
   31MOL   H24918909   3.358   7.363   0.704 -1.6993 -0.5424 -1.4008
   31MOL   C25018910   3.318   7.346   0.931 -0.0418 -0.4332  0.1875
   31MOL   O25118911   3.451   7.360   0.977 -0.2684 -0.2141  0.4405
   31MOL   C25218912   3.520   7.474   0.927 -0.0881 -0.3329  0.4019
   31MOL   C25318913   3.637   7.506   1.021 -0.3376 -0.5106 -0.3018
   31MOL   C25418914   3.694   7.385   1.101  0.1331 -0.8306  0.0358
   31MOL   C25518915   3.812   7.418   1.194  0.2440  0.1272 -0.7258
   31MOL   C25618916   3.850   7.304   1.295  0.2680  0.8921  0.1825
   31MOL   C25718917   3.961   7.355   1.383 -0.2188 -0.2176 -0.2811
   31MOL   C25818918   4.005   7.252   1.484  0.2803  0.3914  0.2840
   31MOL   C25918919   4.144   7.293   1.527 -0.0788 -0.1692  1.0788
   31MOL   C26018920   3.264   7.241   1.034  0.1048  0.7695  0.2207
   31MOL   H26118921   3.251   7.429   0.950 -0.1491 -0.4926  0.0707
   31MOL   H26218922   3.468   7.570   0.923 -2.0206 -1.4233 -1.7530
   31MOL   H26318923   3.566   7.453   0.831 -2.8866 -0.0117 -1.0489
   31MOL   H26418924   3.616   7.579   1.099 -1.8326 -1.3774  0.1356
   31MOL   H26518925   3.719   7.542   0.960 -0.9636  0.3416 -0.6547
   31MOL   H26618926   3.607   7.350   1.158 -0.3667 -0.2919 -0.3933
   31MOL   H26718927   3.717   7.304   1.031  1.5151  0.4588 -1.0329
   31MOL   H26818928   3.904   7.452   1.148  0.4591 -0.9118 -1.0833
   31MOL   H26918929   3.787   7.500   1.261  3.1794  0.4637  0.0065
   31MOL   H27018930   3.760   7.275   1.350  1.3877 -0.2120  1.4980
   31MOL   H27118931   3.876   7.219   1.233 -0.7748  2.0607 -1.8988
   31MOL   H27218932   3.927   7.447   1.430  0.7150  1.0874 -2.1133
   31MOL   H27318933   4.042   7.385   1.317 -1.3706 -1.4116 -2.2890
   31MOL   H27418934   3.937   7.254   1.570 -1.1736  0.4726 -0.8616
   31MOL   H27518935   4.012   7.152   1.443  0.3378  0.2214  0.6987
   31MOL   H27618936   4.180   7.230   1.608  3.2027  0.2030 -0.0434
   31MOL   H27718937   4.150   7.398   1.556 -1.8201  0.7983 -1.8043
   31MOL   H27818938   4.205   7.286   1.437 -0.6398  0.2857  0.6594
   31MOL   H27918939   3.172   7.188   1.008  1.3868 -1.3035 -0.1324
   31MOL   H28018940   3.334   7.159   1.041 -0.0649  0.6560  0.6160
   31MOL   C28118941   3.250   7.282   1.181  0.3267 -0.6072 -0.7455
   31MOL   O28218942   3.224   7.158   1.249  0.0528 -0.4202 -0.5744
   31MOL   C28318943   3.324   7.128   1.350 -0.4611 -0.1632 -0.3374
   31MOL   C28418944   3.309   6.983   1.392  0.6424 -0.0895  0.7316
   31MOL   C28518945   3.167   6.943   1.441  0.0507 -0.4334  0.4992
   31MOL   C28618946   3.139   6.806   1.512  0.7095 -0.2362  0.4408
   31MOL   C28718947   2.991   6.782   1.554  1.1080 -0.3507  0.0573
   31MOL   C28818948   2.940   6.644   1.527 -0.1994 -0.3386 -0.0343
   31MOL   C28918949   2.798   6.634   1.566  0.5755  0.0094 -0.8699
   31MOL   C29018950   2.764   6.488   1.598 -0.2293  0.3993 -0.6368
   31MOL   C29118951   3.129   7.377   1.219 -0.4375 -0.6840 -1.3679
   31MOL   H29218952   3.346   7.324   1.212  0.6812 -2.3799  0.6279
   31MOL   H29318953   3.313   7.194   1.436 -0.2070  0.7611 -1.0058
   31MOL   H29418954   3.427   7.137   1.316 -1.0659 -0.3199 -2.2691
   31MOL   H29518955   3.382   6.968   1.471  0.8554  2.6304  1.1199
   31MOL   H29618956   3.337   6.917   1.310  0.4479 -0.3127  0.8449
   31MOL   H29718957   3.134   7.015   1.516 -0.1948 -1.0463  0.9926
   31MOL   H29818958   3.106   6.946   1.351  0.1542 -0.9251  0.4070
   31MOL   H29918959   3.176   6.736   1.436  1.7152  2.4016 -1.5842
   31MOL   H30018960   3.194   6.797   1.605 -1.0045 -0.3697  1.4663
   31MOL   H30118961   3.001   6.812   1.658 -1.6865 -1.5701  0.7101
   31MOL   H30218962   2.937   6.857   1.496 -0.8599 -0.0586  2.1853
   31MOL   H30318963   2.989   6.567   1.585 -2.0573 -2.2654 -0.9565
   31MOL   H30418964   2.958   6.608   1.426 -0.5888  2.3705 -1.1128
   31MOL   H30518965   2.788   6.692   1.658 -0.1212 -2.0687  0.3923
   31MOL   H30618966   2.730   6.681   1.495 -1.0338 -2.0902 -0.7750
   31MOL   H30718967   2.802   6.459   1.696 -1.4584  0.0931 -0.2427
   31MOL   H30818968   2.806   6.424   1.520  1.4288 -0.3837  0.8717
   31MOL   H30918969   2.656   6.480   1.588  0.0324 -4.0494 -1.0183
   31MOL   H31018970   3.142   7.469   1.161 -1.1096  1.2941  1.4734
   31MOL   H31118971   3.032   7.333   1.197 -1.1801 -0.0476  0.4911
   31MOL   C31218972   3.122   7.429   1.371  0.3466  0.6329  0.7240
   31MOL   O31318973   2.989   7.432   1.427  0.6986  0.6125  0.4067
   31MOL   C31418974   2.938   7.307   1.464  1.3295  0.3975 -0.2089
   31MOL   C31518975   2.800   7.318   1.526  0.6177 -0.7782 -0.1284
   31MOL   C31618976   2.707   7.391   1.425  0.3401  0.3730 -0.5206
   31MOL   C31718977   2.561   7.402   1.477  0.4718  0.1991  0.1147
   31MOL   C31818978   2.469   7.462   1.368  0.5947  0.3413  0.2660
   31MOL   C31918979   2.329   7.494   1.432  0.0970  0.3821 -0.0978
   31MOL   C32018980   2.231   7.551   1.326 -0.2436 -0.8146 -0.0514
   31MOL   C32118981   2.091   7.595   1.371 -0.3094 -0.4358  0.4984
   31MOL   C32218982   3.193   7.566   1.395  0.1239  0.0914 -0.4587
   31MOL   H32318983   3.159   7.355   1.442  0.5578 -0.8786 -0.9125
   31MOL   H32418984   3.001   7.256   1.538 -0.8174 -4.6325 -1.5931
   31MOL   H32518985   2.936   7.244   1.376 -0.1509  0.1947 -0.0514
   31MOL   H32618986   2.805   7.364   1.625 -0.3472  0.3288 -0.5802
   31MOL   H32718987   2.758   7.219   1.539  0.2159 -0.5895  0.0252
   31MOL   H32818988   2.731   7.495   1.404  0.2516  0.6775  0.8291
   31MOL   H32918989   2.714   7.337   1.331  0.8126  1.7968 -1.3313
   31MOL   H33018990   2.513   7.309   1.508 -1.3430  1.3477  0.8238
   31MOL   H33118991   2.566   7.452   1.574  2.5493 -1.5775  0.9802
   31MOL   H33218992   2.511   7.556   1.331 -0.4675  1.1623  1.1209
   31MOL   H33318993   2.456   7.394   1.284 -0.9025  0.3387  0.4895
   31MOL   H33418994   2.348   7.564   1.512 -0.0050  0.6490 -0.3079
   31MOL   H33518995   2.289   7.405   1.481 -1.1971  0.8521 -0.2726
   31MOL   H33618996   2.272   7.638   1.275 -1.3737  1.6421  3.0667
   31MOL   H33718997   2.210   7.478   1.247 -0.1775  0.8740 -1.6706
   31MOL   H33818998   2.029   7.643   1.295 -0.0410 -1.0695 -0.1244
   31MOL   H33918999   2.115   7.676   1.440  4.2264  0.3108 -1.7411
   31MOL   H34019000   2.033   7.514   1.415 -0.1308 -0.8640 -0.0407
   31MOL   H34119001   3.156   7.650   1.337  1.3930  1.0275  0.0514
   31MOL   H34219002   3.160   7.585   1.497  0.9092 -1.1904  0.0479
   31MOL   C34319003   3.347   7.573   1.397 -0.2189  0.3774 -0.1843
   31MOL   O34419004   3.400   7.474   1.489  0.0232  0.1297  0.5194
   31MOL   C34519005   3.530   7.423   1.460 -0.0312 -0.3814  0.2973
   31MOL   C34619006   3.594   7.357   1.586  0.0000  0.1149 -0.5689
   31MOL   C34719007   3.531   7.227   1.615  0.0792  0.4870 -0.1721
   31MOL   C34819008   3.586   7.169   1.747  0.1034 -0.1436 -0.1048
   31MOL   C34919009   3.549   7.022   1.781 -0.1202 -0.4366 -0.5693
   31MOL   C35019010   3.619   6.963   1.909  0.3280  0.2195 -0.0636
   31MOL   C35119011   3.577   6.815   1.929 -0.4062 -0.6474 -0.5552
   31MOL   C35219012   3.665   6.721   1.849 -0.7296  0.2747 -0.9745
   31MOL   C35319013   3.412   7.703   1.443  0.1354 -0.1086  0.0745
   31MOL   H35419014   3.384   7.542   1.299 -2.1206  1.1308 -1.1767
   31MOL   H35519015   3.599   7.502   1.431 -0.5678  0.1765  0.5113
   31MOL   H35619016   3.529   7.346   1.384  1.6461  1.4303 -1.5945
   31MOL   H35719017   3.605   7.432   1.665  0.5085  1.5054 -1.9214
   31MOL   H35819018   3.698   7.328   1.567 -0.3014 -1.4519  0.1264
   31MOL   H35919019   3.424   7.240   1.633 -0.2801 -0.5859 -1.4258
   31MOL   H36019020   3.546   7.159   1.531 -0.0365 -1.4649  1.3600
   31MOL   H36119021   3.694   7.178   1.750  0.1328 -0.4037 -0.3450
   31MOL   H36219022   3.550   7.239   1.822  1.2858  1.6731 -1.1830
   31MOL   H36319023   3.440   7.019   1.779 -0.2359  2.0213  0.2180
   31MOL   H36419024   3.591   6.966   1.697 -0.0316 -0.5592 -0.4426
   31MOL   H36519025   3.584   7.015   1.999  0.1209  1.1000 -0.6389
   31MOL   H36619026   3.728   6.967   1.911  0.3533  0.5125 -1.5878
   31MOL   H36719027   3.585   6.792   2.036 -2.2719  0.3400 -0.1850
   31MOL   H36819028   3.469   6.799   1.922 -0.7134 -0.0410  2.0303
   31MOL   H36919029   3.621   6.622   1.860  1.3523 -0.8731 -2.6252
   31MOL   H37019030   3.763   6.722   1.897 -0.0485  1.3605 -2.3398
   31MOL   H37119031   3.669   6.742   1.742 -0.2912 -1.1532 -1.2517
   31MOL   H37219032   3.395   7.707   1.551  2.1908 -1.2104  0.4614
   31MOL   H37319033   3.521   7.703   1.443  0.2215 -3.8830  1.8363
   31MOL   C37419034   3.362   0.062   1.385  0.9559  0.0348 -0.1468
   31MOL   O37519035   3.395   0.057   1.247  0.2889  0.0128 -0.0832
   31MOL   C37619036   3.306   0.129   1.164 -0.2400  0.2484  0.1743
   31MOL   C37719037   3.331   0.078   1.024 -0.4168  0.3354 -0.0289
   31MOL   C37819038   3.236   0.138   0.920 -0.4491  0.8108 -0.4740
   31MOL   C37919039   3.267   0.085   0.777 -0.2407  0.1296 -0.1606
   31MOL   C38019040   3.186   0.147   0.673  0.4535  0.0866  0.5573
   31MOL   C38119041   3.234   0.130   0.529  0.0064 -0.2666  0.1805
   31MOL   C38219042   3.150   0.228   0.442  0.3052 -0.2950  0.4899
   31MOL   C38319043   3.002   0.189   0.413 -0.2054  0.0134  0.3257
   31MOL   C38419044   3.423   0.190   1.443 -0.0044  0.1094  0.1282
   31MOL   H38519045   3.253   0.070   1.386  0.9909  0.5809 -0.5506
   31MOL   H38619046   3.328   0.235   1.165  3.8249 -0.5238  1.5196
   31MOL   H38719047   3.201   0.111   1.190 -0.4186  1.5776  0.4096
   31MOL   H38819048   3.337   7.744   1.021 -0.2251  0.2410  2.6880
   31MOL   H38919049   3.429   0.113   0.993 -0.6755  1.5487  0.4796
   31MOL   H39019050   3.133   0.106   0.936  0.4771 -1.3962  1.5567
   31MOL   H39119051   3.244   0.246   0.926 -2.2157  0.8487  1.7100
   31MOL   H39219052   3.371   0.114   0.760 -0.1495 -2.0555 -3.8852
   31MOL   H39319053   3.259   7.751   0.765  1.3580  0.1542 -1.5775
   31MOL   H39419054   3.085   0.114   0.693  1.0362 -1.5609  0.8787
   31MOL   H39519055   3.180   0.254   0.692  0.7079  0.2752 -0.3959
   31MOL   H39619056   3.235   0.027   0.495 -0.5640 -0.3231  0.3320
   31MOL   H39719057   3.335   0.173   0.524  0.2193 -0.7052  0.6647
   31MOL   H39819058   3.157   0.329   0.483  1.4165 -1.3849  3.0805
   31MOL   H39919059   3.190   0.226   0.340 -0.3657 -0.9268  0.2381
   31MOL   H40019060   2.937   0.221   0.495  0.7591  2.7060  0.0712
   31MOL   H40119061   2.982   0.083   0.399  0.1962 -0.0935  0.5536
   31MOL   H40219062   2.976   0.240   0.321 -0.7814  0.0396  0.4944
   31MOL   H40319063   3.525   0.212   1.411 -0.8456  2.6321 -0.9713
   31MOL   H40419064   3.374   0.271   1.389  0.6977  0.2348 -0.3251
   31MOL   C40519065   3.403   0.218   1.595 -0.0956 -0.1925  0.3823
   31MOL   O40619066   3.263   0.227   1.621  0.4763 -0.9444  0.5380
   31MOL   C40719067   3.224   0.153   1.733  1.1125 -0.3098 -0.2243
   31MOL   C40819068   3.089   0.199   1.776 -0.0185  0.6522 -0.4250
   31MOL   C40919069   2.969   0.186   1.684 -0.0791 -0.5967 -0.5440
   31MOL   C41019070   2.844   0.265   1.728  0.2117 -0.0855 -0.5245
   31MOL   C41119071   2.771   0.204   1.847  0.4584 -0.1235  0.3441
   31MOL   C41219072   2.646   0.272   1.889  1.2743 -0.5047 -0.5733
   31MOL   C41319073   2.584   0.209   2.012 -0.1341 -0.2308 -0.3052
   31MOL   C41419074   2.516   0.074   1.990 -0.1549  0.0365  0.4622
   31MOL   C41519075   3.454   0.358   1.643 -0.4815 -0.6380  0.0684
   31MOL   H41619076   3.453   0.137   1.648  2.4340  1.2902  0.3330
   31MOL   H41719077   3.299   0.160   1.811  2.7523 -0.0883 -1.7847
   31MOL   H41819078   3.217   0.047   1.708  1.1092 -0.7146  1.4675
   31MOL   H41919079   3.088   0.308   1.785 -1.1625  0.4301  2.7763
   31MOL   H42019080   3.060   0.176   1.878  0.1822  1.3595 -0.2033
   31MOL   H42119081   3.001   0.212   1.583 -1.9048  2.0988 -0.4780
   31MOL   H42219082   2.942   0.080   1.684 -0.7889 -0.4145 -0.9477
   31MOL   H42319083   2.867   0.369   1.750  1.3982 -0.4104 -0.2358
   31MOL   H42419084   2.779   0.265   1.640 -1.9137  1.9468  0.9842
   31MOL   H42519085   2.742   0.101   1.830 -0.5832  0.1037  0.6983
   31MOL   H42619086   2.835   0.205   1.935 -0.1427  1.0916  0.7869
   31MOL   H42719087   2.572   0.282   1.810  1.5355  0.4561 -0.7032
   31MOL   H42819088   2.671   0.378   1.897  2.3896 -0.9031  1.9824
   31MOL   H42919089   2.653   0.217   2.096  0.9187  0.4237 -1.1991
   31MOL   H43019090   2.508   0.281   2.040 -0.8958 -1.0630 -0.2092
   31MOL   H43119091   2.437   0.083   1.916  0.2713  3.9358  0.4054
   31MOL   H43219092   2.479   0.041   2.087  2.6041 -0.9531  1.2340
   31MOL   H43319093   2.590   7.774   1.959  0.2792  1.0588 -1.0600
   31MOL   H43419094   3.403   0.439   1.591 -1.6961 -2.2378 -1.2853
   31MOL   H43519095   3.427   0.370   1.748 -0.5083  0.9914 -0.1135
   31MOL   C43619096   3.611   0.377   1.656 -0.7507  0.3108 -0.8486
   31MOL   O43719097   3.650   0.281   1.748 -0.4923 -0.5784 -0.0097
   31MOL   C43819098   3.793   0.256   1.743 -0.1851 -0.3322 -0.2038
   31MOL   C43919099   3.819   0.125   1.819 -0.7568  0.4307 -0.1499
   31MOL   C44019100   3.745   0.005   1.766  0.0254  0.0805 -0.0784
   31MOL   C44119101   3.774   7.638   1.828  0.0759 -0.4412 -0.3730
   31MOL   C44219102   3.908   7.584   1.776 -0.0043 -0.4536 -0.2554
   31MOL   C44319103   3.950   7.450   1.836 -0.3179  0.0644  0.5261
   31MOL   C44419104   4.026   7.462   1.971 -0.2404  1.1483 -0.3560
   31MOL   C44519105   4.086   7.328   2.017  0.1276 -0.5344 -0.0366
   31MOL   C44619106   3.649   0.525   1.696  0.4881  0.2552 -0.2688
   31MOL   H44719107   3.667   0.352   1.566  2.6976  1.0931  0.9638
   31MOL   H44819108   3.838   0.249   1.644 -1.0525 -1.2885 -0.5326
   31MOL   H44919109   3.840   0.336   1.800  0.1347  1.5043 -2.9254
   31MOL   H45019110   3.791   0.133   1.924  0.4976  1.3821  0.1290
   31MOL   H45119111   3.926   0.103   1.813 -0.8685 -1.1395  2.8982
   31MOL   H45219112   3.639   0.028   1.768 -0.0542 -0.3215  2.3376
   31MOL   H45319113   3.765   0.013   1.659  1.0823  3.7115  0.3262
   31MOL   H45419114   3.765   7.649   1.936 -2.6923 -2.2981 -0.3837
   31MOL   H45519115   3.710   7.558   1.792 -2.0587  2.6593 -3.8459
   31MOL   H45619116   3.902   7.572   1.668  0.6483  0.6106 -0.4099
   31MOL   H45719117   3.988   7.658   1.774 -0.9585  0.5538 -2.2175
   31MOL   H45819118   4.028   7.407   1.773  1.1309 -1.3269  3.2246
   31MOL   H45919119   3.869   7.379   1.851 -0.3005  0.3364  1.9892
   31MOL   H46019120   4.111   7.529   1.955  1.6883 -0.6568  2.0134
   31MOL   H46119121   3.963   7.509   2.046  0.2893  2.7776 -0.8968
   31MOL   H46219122   4.157   7.276   1.952  1.7069 -0.3373  1.4857
   31MOL   H46319123   4.011   7.264   2.061  1.0476 -1.8225 -0.3172
   31MOL   H46419124   4.146   7.358   2.103  2.6981  1.5768 -2.4319
   31MOL   H46519125   3.585   0.549   1.781  0.6314  0.2131 -0.1475
   31MOL   H46619126   3.752   0.539   1.730  0.5055 -0.0127 -0.2117
   31MOL   C46719127   3.619   0.622   1.582  0.3009 -0.2282 -0.9829
   31MOL   O46819128   3.682   0.578   1.468 -0.7285  0.6430 -0.4593
   31MOL   C46919129   3.621   0.627   1.353 -0.5057  0.3491  0.4782
   31MOL   C47019130   3.683   0.564   1.219 -0.7254 -0.5724  0.5045
   31MOL   C47119131   3.609   0.614   1.096  0.2600  0.2328  0.4343
   31MOL   C47219132   3.474   0.547   1.074  0.2172 -0.6732 -0.3234
   31MOL   C47319133   3.402   0.595   0.946  0.4194 -0.0054 -0.1652
   31MOL   C47419134   3.468   0.539   0.830 -0.7270 -0.1741 -0.4519
   31MOL   C47519135   3.406   0.589   0.706 -0.0895  0.2250 -0.2753
   31MOL   C47619136   3.456   0.505   0.585 -0.2453  0.5206 -0.4033
   31MOL   C47719137   3.662   0.766   1.624 -0.2023  0.0852  0.5558
   31MOL   H47819138   3.510   0.619   1.577  0.1311 -0.7563  2.2437
   31MOL   H47919139   3.639   0.734   1.350 -0.2812  0.3591  1.8346
   31MOL   H48019140   3.513   0.618   1.355 -0.5793  0.9697 -0.6308
   31MOL   H48119141   3.673   0.455   1.216 -0.7602 -0.5284 -1.7711
   31MOL   H48219142   3.789   0.583   1.200 -0.2379 -4.1228 -0.6857
   31MOL   H48319143   3.602   0.722   1.101  2.5549  0.6513 -3.5403
   31MOL   H48419144   3.667   0.588   1.008 -1.8349  1.2176 -1.2803
   31MOL   H48519145   3.495   0.441   1.060  0.6206 -0.6394  0.0076
   31MOL   H48619146   3.409   0.566   1.159  0.2811  3.1120 -1.0082
   31MOL   H48719147   3.301   0.554   0.949  0.6321 -0.5530 -0.5007
   31MOL   H48819148   3.393   0.703   0.957  2.4540  0.2563 -0.8116
   31MOL   H48919149   3.440   0.434   0.840 -1.6348  0.1917  1.0634
   31MOL   H49019150   3.575   0.559   0.831 -0.7420  0.2202  3.3985
   31MOL   H49119151   3.298   0.578   0.710 -0.4203  3.2808  0.2573
   31MOL   H49219152   3.421   0.697   0.697 -0.2697  0.2637 -0.0986
   31MOL   H49319153   3.380   0.520   0.508 -0.5444 -3.1560 -0.8980
   31MOL   H49419154   3.459   0.402   0.618  0.4504  0.3590 -0.9539
   31MOL   H49519155   3.549   0.536   0.537 -1.2182  0.5330 -2.3425
   31MOL   H49619156   3.768   0.770   1.647 -0.0456  0.7604 -0.2595
   31MOL   H49719157   3.653   0.832   1.537 -1.6979  1.3198  1.5956
   31MOL   C49819158   3.584   0.832   1.737 -0.4012 -0.4362  0.8464
   31MOL   O49919159   3.446   0.829   1.710 -0.1674  0.8351 -0.5296
   31MOL   C50019160   3.359   0.843   1.822 -0.5615  0.5116  0.5423
   31MOL   C50119161   3.214   0.849   1.770 -0.2666 -0.0337  0.2641
   31MOL   C50219162   3.170   0.727   1.681 -0.1708  0.1309  0.1418
   31MOL   C50319163   3.015   0.725   1.655 -0.1252 -0.1973 -0.4188
   31MOL   C50419164   2.987   0.682   1.514 -0.6170 -0.2671 -0.1163
   31MOL   C50519165   3.048   0.544   1.480  0.6039 -0.3786 -0.3021
   31MOL   C50619166   3.001   0.496   1.344  0.1469  0.3811  0.2105
   31MOL   C50719167   3.110   0.401   1.287 -0.2961  0.2012 -0.7376
   31MOL   C50819168   3.620   0.987   1.734  0.5140 -0.2866 -0.0382
   31MOL   H50919169   3.597   0.783   1.834  0.1294 -0.5088  0.7404
   31MOL   H51019170   3.383   0.928   1.885 -2.0143  0.0639  1.7380
   31MOL   H51119171   3.368   0.761   1.894  1.1715  1.4312  1.4077
   31MOL   H51219172   3.204   0.943   1.717 -1.5843 -0.8323 -0.9304
   31MOL   H51319173   3.148   0.849   1.857  1.5306  1.7633  1.6563
   31MOL   H51419174   3.229   0.752   1.592  1.4924 -0.4470  1.0660
   31MOL   H51519175   3.201   0.632   1.725 -0.2674 -0.1826 -0.4617
   31MOL   H51619176   2.970   0.653   1.723  2.8201 -2.0064 -0.3053
   31MOL   H51719177   2.963   0.817   1.685  0.6703  0.4585 -1.0277
   31MOL   H51819178   2.879   0.667   1.509 -0.3723 -3.1912  1.8755
   31MOL   H51919179   3.021   0.762   1.449 -2.1943 -0.8218 -1.6728
   31MOL   H52019180   3.009   0.469   1.549 -0.1087 -0.1947 -0.5060
   31MOL   H52119181   3.156   0.533   1.472  0.3675 -2.3502 -0.9999
   31MOL   H52219182   2.903   0.447   1.346  2.7569 -5.2062 -0.2183
   31MOL   H52319183   2.987   0.585   1.283  1.9427  1.5166  1.4251
   31MOL   H52419184   3.111   0.301   1.329  0.4649 -0.7154 -2.8696
   31MOL   H52519185   3.206   0.453   1.289  0.5389 -1.3312 -0.7362
   31MOL   H52619186   3.083   0.393   1.182  0.7308 -0.0559 -0.9888
   31MOL   H52719187   3.642   1.007   1.629  0.3739 -1.8043 -0.3733
   31MOL   H52819188   3.529   1.041   1.760  0.0976 -0.1416 -1.7414
   31MOL   C52919189   3.726   1.025   1.836 -0.3457  0.2467 -0.4389
   31MOL   O53019190   3.675   0.999   1.969 -0.0184 -0.4850  0.2453
   31MOL   C53119191   3.777   0.983   2.063  0.0416  0.1541 -0.3673
   31MOL   C53219192   3.717   0.907   2.184  0.2811  0.3118 -0.9153
   31MOL   C53319193   3.786   0.938   2.314  0.1426 -0.1444 -0.6141
   31MOL   C53419194   3.718   0.852   2.420  0.1514  0.3684 -0.2224
   31MOL   C53519195   3.582   0.915   2.462 -0.5216  0.3810 -0.6459
   31MOL   C53619196   3.516   0.848   2.586 -0.4898 -0.0189 -0.2557
   31MOL   C53719197   3.393   0.904   2.631 -0.5418 -0.4956  0.1196
   31MOL   C53819198   3.406   1.037   2.707 -0.2038  0.2280  0.4594
   31MOL   C53919199   3.771   1.180   1.830 -0.1554  0.0842 -0.6430
   31MOL   H54019200   3.815   0.964   1.819  1.1791  2.0862  0.6854
   31MOL   H54119201   3.849   0.911   2.023 -1.6958 -1.4959 -0.6321
   31MOL   H54219202   3.809   1.081   2.098 -0.5265  0.9793 -2.0667
   31MOL   H54319203   3.711   0.801   2.161  0.2215 -0.0966  0.9310
   31MOL   H54419204   3.611   0.932   2.178  0.0212 -0.2915  0.8497
   31MOL   H54519205   3.891   0.909   2.307 -0.2685 -1.4551 -1.5079
   31MOL   H54619206   3.763   1.044   2.329 -0.9043 -0.7614  2.4971
   31MOL   H54719207   3.702   0.745   2.407  1.8879 -0.0770  1.0503
   31MOL   H54819208   3.781   0.848   2.509  0.2806 -0.0996 -0.3342
   31MOL   H54919209   3.596   1.023   2.473 -0.0077 -0.0171  2.9987
   31MOL   H55019210   3.506   0.918   2.384 -2.2932  0.5734  1.0583
   31MOL   H55119211   3.588   0.852   2.668 -0.1858  3.1456 -0.6095
   31MOL   H55219212   3.493   0.742   2.570 -0.5154  0.2805 -2.3208
   31MOL   H55319213   3.323   0.905   2.547 -0.0432  0.0862 -0.3010
   31MOL   H55419214   3.350   0.839   2.706 -0.5189 -1.6793 -0.8830
   31MOL   H55519215   3.467   1.031   2.797  0.2353  1.9888  0.3002
   31MOL   H55619216   3.313   1.086   2.735 -0.1213  2.1612 -2.4469
   31MOL   H55719217   3.452   1.115   2.647  0.2917  0.3400  0.9771
   31MOL   H55819218   3.698   1.223   1.762 -1.0003 -0.8850 -0.3713
   31MOL   H55919219   3.766   1.219   1.932 -1.6637  0.3080 -0.7904
   31MOL   C56019220   3.910   1.189   1.751 -0.8126 -0.0485 -0.0895
   31MOL   O56119221   4.010   1.140   1.844 -0.5233 -0.2104 -0.0861
   31MOL   C56219222   4.094   1.033   1.796  0.5319  0.4413  0.1806
   31MOL   C56319223   4.179   1.075   1.672  0.0222  0.2836  0.3929
   31MOL   C56419224   4.269   0.965   1.623  0.3117 -0.2566 -0.9146
   31MOL   C56519225   4.358   0.995   1.506 -0.0943  0.0578 -0.1178
   31MOL   C56619226   4.475   0.892   1.507  0.4001 -0.1833  0.4678
   31MOL   C56719227   4.596   0.925   1.411 -0.2863 -0.2596 -0.0726
   31MOL   C56819228   4.551   0.937   1.265 -0.5062  0.1464  0.1394
   31MOL   C56919229   4.670   0.949   1.171 -0.3992 -1.0610 -0.0024
   31MOL   C57019230   3.946   1.337   1.725 -0.5832 -0.1340 -0.1303
   31MOL   H57119231   3.912   1.146   1.650  0.2372 -2.4204  0.9044
   31MOL   H57219232   4.034   0.947   1.770  2.2770 -0.0328 -2.5689
   31MOL   H57319233   4.159   1.010   1.881 -0.4334 -1.3678  0.4551
   31MOL   H57419234   4.238   1.159   1.707  0.9383 -0.3015  0.2738
   31MOL   H57519235   4.117   1.097   1.585 -0.2650  1.8443  0.9906
   31MOL   H57619236   4.318   0.917   1.707 -0.4070  0.1894 -0.2358
   31MOL   H57719237   4.205   0.881   1.597 -1.4072  1.5573 -2.8377
   31MOL   H57819238   4.308   0.983   1.410  0.6710 -0.3401 -0.4672
   31MOL   H57919239   4.397   1.097   1.507  1.1099 -0.4080  0.2441
   31MOL   H58019240   4.507   0.869   1.609 -1.2164  1.5113  1.3702
   31MOL   H58119241   4.420   0.803   1.474 -0.9862  1.8994 -3.1050
   31MOL   H58219242   4.675   0.853   1.432  0.7447 -0.1419 -3.3320
   31MOL   H58319243   4.652   1.018   1.426 -1.9875  0.9791 -1.2629
   31MOL   H58419244   4.492   0.849   1.243 -1.3334  0.5106  0.9000
   31MOL   H58519245   4.487   1.025   1.269  2.2584  2.2353 -0.1652
   31MOL   H58619246   4.638   0.948   1.066  0.2923 -1.4112 -0.2143
   31MOL   H58719247   4.734   0.862   1.187  0.4401 -0.5300 -0.4507
   31MOL   H58819248   4.714   1.048   1.179 -0.5088 -0.8374 -1.7707
   31MOL   H58919249   3.961   1.405   1.809 -0.1646 -1.4980  0.9193
   31MOL   H59019250   4.048   1.344   1.688 -0.2725  1.1649  0.9099
   31MOL   C59119251   3.854   1.400   1.611 -0.2377  0.2834 -1.0342
   31MOL   O59219252   3.877   1.316   1.504  0.2019  0.0823  0.2180
   31MOL   C59319253   3.772   1.301   1.414  0.4001  1.0745  0.6785
   31MOL   C59419254   3.814   1.241   1.280  0.3741 -0.4518  0.7273
   31MOL   C59519255   3.714   1.274   1.168 -0.5690 -0.0754 -0.1778
   31MOL   C59619256   3.747   1.214   1.028 -0.1934 -0.2498  0.2397
   31MOL   C59719257   3.754   1.056   1.022 -0.0294 -0.7052 -0.1612
   31MOL   C59819258   3.743   0.998   0.883 -0.3081  0.4627  0.3634
   31MOL   C59919259   3.718   0.851   0.868 -0.1370  0.5179  0.2341
   31MOL   C60019260   3.755   0.795   0.730  0.6671 -0.0274 -0.1669
   31MOL   C60119261   3.896   1.544   1.585 -0.1488 -0.4999 -0.1039
   31MOL   H60219262   3.748   1.400   1.633 -0.0773 -2.9352 -0.0256
   31MOL   H60319263   3.720   1.394   1.392  3.3653  2.6787  0.1528
   31MOL   H60419264   3.696   1.233   1.452  1.1828 -0.9356 -1.2323
   31MOL   H60519265   3.822   1.132   1.283 -1.9193 -0.6926 -0.6755
   31MOL   H60619266   3.911   1.285   1.256 -0.1086 -0.0137 -0.4855
   31MOL   H60719267   3.617   1.237   1.202 -0.9516 -0.9711 -2.1805
   31MOL   H60819268   3.702   1.381   1.148 -0.0785 -0.4267 -2.4783
   31MOL   H60919269   3.665   1.240   0.961  1.8483  0.9837 -1.8294
   31MOL   H61019270   3.845   1.254   1.001  0.2442 -1.1567  0.4674
   31MOL   H61119271   3.847   1.023   1.068 -0.4798  1.3091  2.3476
   31MOL   H61219272   3.673   1.013   1.081  1.7161 -2.0827  1.2574
   31MOL   H61319273   3.823   1.039   0.821 -2.0545  1.1255 -1.5128
   31MOL   H61419274   3.656   1.042   0.835 -1.3838 -0.0634  1.7962
   31MOL   H61519275   3.772   0.805   0.950 -0.3796 -1.1913 -0.5446
   31MOL   H61619276   3.611   0.835   0.879 -0.1178  0.6860  0.6599
   31MOL   H61719277   3.706   0.844   0.646  3.2014  0.0029 -1.6870
   31MOL   H61819278   3.719   0.692   0.722  0.8903 -0.0591 -0.7676
   31MOL   H61919279   3.864   0.791   0.732  0.6510 -0.5822  3.2900
   31MOL   H62019280   3.890   1.597   1.680  1.4306  1.3988 -1.0024
   31MOL   H62119281   3.999   1.549   1.551 -0.1136 -1.4952 -0.1512
   31MOL   H62219282   3.829   1.589   1.511 -0.4743  1.7150  1.4771
   32MOL     C119283   6.154   2.871   4.379  0.0783  0.1339 -0.0607
   32MOL     O219284   6.165   2.864   4.239  0.5119  0.3562 -0.2043
   32MOL     C319285   6.290   2.917   4.189  0.6393  0.8272 -0.0048
   32MOL     C419286   6.319   2.896   4.042  0.7676  0.7540  0.4605
   32MOL     C519287   6.317   2.748   3.991 -0.1553 -0.3251 -0.3858
   32MOL     C619288   6.338   2.729   3.846 -1.1329 -0.4296 -0.2256
   32MOL     C719289   6.336   2.578   3.808  0.3011 -0.6540  0.4084
   32MOL     C819290   6.387   2.546   3.663  0.0673  0.4981  0.1550
   32MOL     C919291   6.391   2.390   3.611 -0.3904  0.4725 -0.2320
   32MOL    C1019292   6.497   2.294   3.667  0.2292  0.5660  0.4783
   32MOL    C1119293   6.147   3.005   4.439  0.8812 -0.5344  0.3236
   32MOL    H1219294   6.065   2.813   4.404 -0.4092  1.0476  0.3519
   32MOL    H1319295   6.379   2.877   4.237  1.4675  0.9274 -1.4275
   32MOL    H1419296   6.282   3.023   4.212  0.2235  0.8435 -0.2238
   32MOL    H1519297   6.413   2.950   4.030  1.5319  0.1867  3.3686
   32MOL    H1619298   6.243   2.957   3.994 -0.6648 -2.2642 -1.2876
   32MOL    H1719299   6.406   2.712   4.043  0.6956  1.6514 -0.4383
   32MOL    H1819300   6.235   2.692   4.036 -1.5475  1.9569 -0.0244
   32MOL    H1919301   6.265   2.788   3.791 -1.9652 -1.3319 -0.0890
   32MOL    H2019302   6.436   2.771   3.822 -0.3352  0.7976  4.7136
   32MOL    H2119303   6.375   2.509   3.882  0.6929 -0.4281  0.4138
   32MOL    H2219304   6.229   2.556   3.807  0.0128  0.7027 -0.2014
   32MOL    H2319305   6.486   2.587   3.640 -0.4173  0.3032 -2.3347
   32MOL    H2419306   6.323   2.596   3.592  0.0199  1.9042  1.1736
   32MOL    H2519307   6.289   2.361   3.637 -0.7955  1.5603 -0.5798
   32MOL    H2619308   6.390   2.392   3.502 -0.4582  0.9759 -0.2228
   32MOL    H2719309   6.506   2.300   3.775 -2.2854 -2.6031  0.9342
   32MOL    H2819310   6.597   2.312   3.625  0.5425 -2.9207 -0.5331
   32MOL    H2919311   6.480   2.194   3.625 -1.1978  0.6418  0.8622
   32MOL    H3019312   6.247   3.046   4.423  0.2565  0.7351 -0.4314
   32MOL    H3119313   6.071   3.068   4.392  0.6111 -0.3181  1.0386
   32MOL    H3219314   6.234   2.813   4.427 -2.1141 -1.0998  2.2634
   32MOL    C3319315   6.131   3.003   4.590 -0.5295 -0.0325  0.3341
   32MOL    O3419316   6.002   2.945   4.608  0.0923  0.7909  0.3828
   32MOL    C3519317   5.971   2.869   4.731  0.7002  0.5803 -0.7866
   32MOL    C3619318   5.817   2.826   4.732 -0.0211 -0.0826 -0.0803
   32MOL    C3719319   5.779   2.734   4.616 -0.3210 -0.4816 -0.6443
   32MOL    C3819320   5.633   2.691   4.625  0.9283  0.4092  0.0461
   32MOL    C3919321   5.605   2.586   4.731 -0.5148  0.1045 -0.1250
   32MOL    C4019322   5.642   2.440   4.703 -0.5575 -0.1901 -0.3022
   32MOL    C4119323   5.569   2.377   4.586 -1.1779 -0.5537  0.9003
   32MOL    C4219324   5.604   2.233   4.563 -0.2254  0.4860  0.8251
   32MOL    C4319325   6.131   3.143   4.652  0.2285  0.4296  0.1155
   32MOL    H4419326   6.206   2.937   4.634  2.1549  0.8239 -2.7856
   32MOL    H4519327   5.987   2.935   4.816  1.3924  1.3139 -1.4860
   32MOL    H4619328   6.035   2.781   4.738 -1.5468 -1.0744 -0.6867
   32MOL    H4719329   5.759   2.918   4.735 -1.2801 -0.9087  1.6938
   32MOL    H4819330   5.790   2.775   4.825  0.0512  0.7392  0.3887
   32MOL    H4919331   5.793   2.799   4.530  0.4759  0.4110  0.1664
   32MOL    H5019332   5.849   2.651   4.606  1.9542  1.2657  0.5808
   32MOL    H5119333   5.575   2.779   4.653 -0.0595  0.0166 -0.6990
   32MOL    H5219334   5.589   2.661   4.529  0.2296  1.5920 -0.0236
   32MOL    H5319335   5.659   2.602   4.825 -1.3953 -3.7117  1.1506
   32MOL    H5419336   5.505   2.609   4.768 -0.6044 -0.7975  0.2186
   32MOL    H5519337   5.635   2.377   4.792  0.3139 -0.4080 -0.3813
   32MOL    H5619338   5.746   2.429   4.671 -0.2689  1.1159  0.1585
   32MOL    H5719339   5.461   2.380   4.600 -1.2811  0.5926 -0.0945
   32MOL    H5819340   5.599   2.419   4.490  0.8152 -1.9870  0.8613
   32MOL    H5919341   5.577   2.167   4.646  1.0564 -0.0281  0.8456
   32MOL    H6019342   5.707   2.212   4.537 -0.7456 -1.5129  0.2259
   32MOL    H6119343   5.568   2.208   4.463  0.7095  2.1935  0.0465
   32MOL    H6219344   6.051   3.205   4.611  1.8138  2.1923 -0.4215
   32MOL    H6319345   6.113   3.116   4.756 -0.3149 -0.7308 -0.2779
   32MOL    C6419346   6.273   3.202   4.650  0.0212 -0.0524 -0.1783
   32MOL    O6519347   6.363   3.097   4.666 -0.4472  0.6787 -0.0777
   32MOL    C6619348   6.502   3.127   4.662 -0.0364  0.3171  0.3452
   32MOL    C6719349   6.546   3.059   4.531 -0.0583 -0.0154  0.2245
   32MOL    C6819350   6.537   2.906   4.536  0.1205 -0.5269 -1.5653
   32MOL    C6919351   6.618   2.842   4.432  0.0398  0.8441 -0.0516
   32MOL    C7019352   6.595   2.689   4.433 -0.3429  0.0629 -0.4780
   32MOL    C7119353   6.647   2.617   4.311 -0.0563  0.8907 -0.0367
   32MOL    C7219354   6.622   2.463   4.317 -0.4039 -0.5190 -0.2117
   32MOL    C7319355   6.651   2.387   4.184  0.0835 -0.0184  0.0724
   32MOL    C7419356   6.281   3.306   4.771 -0.4945  0.1954 -0.0026
   32MOL    H7519357   6.300   3.261   4.563  1.3685  0.5265  0.6196
   32MOL    H7619358   6.563   3.085   4.742  0.2636 -0.2017 -0.1596
   32MOL    H7719359   6.516   3.235   4.658  0.8601  0.2329  1.0550
   32MOL    H7819360   6.647   3.096   4.513  0.4660 -1.4852  0.0829
   32MOL    H7919361   6.478   3.097   4.454 -0.9204  1.2452  1.5813
   32MOL    H8019362   6.568   2.878   4.637 -0.4436  0.8221 -1.0008
   32MOL    H8119363   6.431   2.881   4.537 -0.0950  0.3616 -0.5207
   32MOL    H8219364   6.599   2.889   4.336  0.6456  0.0833 -0.5500
   32MOL    H8319365   6.723   2.861   4.456  0.2099 -1.9237  1.6460
   32MOL    H8419366   6.645   2.652   4.523 -1.2788  0.0302  0.0382
   32MOL    H8519367   6.491   2.659   4.448  0.0582 -1.4819 -0.6096
   32MOL    H8619368   6.749   2.634   4.277  0.5825 -1.5688  0.5039
   32MOL    H8719369   6.582   2.650   4.230 -2.2183 -1.1544  0.7964
   32MOL    H8819370   6.690   2.414   4.386  0.5076 -0.4968 -1.0876
   32MOL    H8919371   6.521   2.438   4.351 -0.3789 -1.2850 -0.6754
   32MOL    H9019372   6.749   2.423   4.154 -0.3614  0.6823 -0.5618
   32MOL    H9119373   6.582   2.413   4.103  0.5384  0.3385 -0.2054
   32MOL    H9219374   6.639   2.281   4.205  1.1949 -0.2537 -0.4657
   32MOL    H9319375   6.267   3.242   4.858 -0.1190 -0.4943 -0.4348
   32MOL    H9419376   6.373   3.365   4.764 -1.3328  1.4087 -0.8196
   32MOL    C9519377   6.162   3.412   4.759  0.1249 -0.3110 -0.2828
   32MOL    O9619378   6.177   3.500   4.646  0.9174  0.3292 -0.4630
   32MOL    C9719379   6.091   3.465   4.544 -0.6385  0.8252  0.1825
   32MOL    C9819380   6.080   3.599   4.469  0.6377 -0.1714  0.3064
   32MOL    C9919381   5.986   3.702   4.545 -0.2640  0.2014  0.1850
   32MOL   C10019382   5.987   3.835   4.466 -0.0017 -0.0040  0.1884
   32MOL   C10119383   5.905   3.948   4.526 -0.5088  0.5383  0.3514
   32MOL   C10219384   5.940   4.090   4.469 -0.2627 -0.0812 -0.4847
   32MOL   C10319385   5.901   4.105   4.322 -0.3203 -0.1462 -0.8311
   32MOL   C10419386   5.930   4.242   4.263  0.1015 -0.1927 -0.8277
   32MOL   C10519387   6.139   3.515   4.874 -0.4705  0.3531  0.0182
   32MOL   H10619388   6.065   3.361   4.758 -0.0275 -0.0200 -0.5657
   32MOL   H10719389   5.989   3.437   4.569 -0.6194 -0.9265 -1.5276
   32MOL   H10819390   6.130   3.386   4.480 -2.7223 -1.1644  1.3331
   32MOL   H10919391   6.062   3.589   4.362  1.9443 -1.1338  0.1638
   32MOL   H11019392   6.182   3.637   4.469  0.0044  1.5807 -0.0918
   32MOL   H11119393   5.886   3.666   4.566 -0.1251 -1.3317 -1.7073
   32MOL   H11219394   6.019   3.718   4.648  1.9194  0.9647 -0.6108
   32MOL   H11319395   6.087   3.875   4.447 -0.3590  0.3334 -1.0406
   32MOL   H11419396   5.942   3.821   4.367  1.2453 -1.0222 -0.2463
   32MOL   H11519397   5.797   3.937   4.511 -0.2843 -1.1047 -0.1470
   32MOL   H11619398   5.921   3.962   4.633  1.6856  1.5933 -0.0784
   32MOL   H11719399   6.048   4.104   4.481 -0.0865 -1.0724 -0.8952
   32MOL   H11819400   5.884   4.162   4.529  0.4511 -0.3686  0.5437
   32MOL   H11919401   5.948   4.030   4.259  2.2134 -0.3476  1.2109
   32MOL   H12019402   5.796   4.078   4.323 -0.3076 -0.1929  0.5344
   32MOL   H12119403   6.037   4.250   4.246 -0.1686 -0.0492 -2.5301
   32MOL   H12219404   5.904   4.321   4.333  1.8081 -1.8276  1.7443
   32MOL   H12319405   5.882   4.252   4.166 -0.6130 -0.8957 -0.5521
   32MOL   H12419406   6.231   3.572   4.888 -0.1349 -0.8169  2.8659
   32MOL   H12519407   6.063   3.583   4.835 -2.2718 -2.8190 -2.1834
   32MOL   C12619408   6.098   3.462   5.007  0.0098  0.3258  0.1430
   32MOL   O12719409   6.002   3.355   4.993  0.1370 -0.1149 -0.0114
   32MOL   C12819410   5.994   3.254   5.095 -0.1551 -1.2112  0.2579
   32MOL   C12919411   5.870   3.168   5.052 -0.5346 -0.9039  0.2044
   32MOL   C13019412   5.833   3.056   5.154  0.2662 -0.1426  0.4984
   32MOL   C13119413   5.744   2.949   5.093 -0.5988  0.2146  0.4433
   32MOL   C13219414   5.611   3.000   5.058  0.1170 -1.0049 -0.1120
   32MOL   C13319415   5.530   2.889   5.003  0.3582 -0.0169  0.0300
   32MOL   C13419416   5.388   2.933   4.969 -0.1471 -0.0312 -0.0213
   32MOL   C13519417   5.299   2.944   5.096 -0.2876 -0.0559  0.4802
   32MOL   C13619418   6.049   3.576   5.099  0.0729 -0.2571  0.1087
   32MOL   H13719419   6.183   3.409   5.049 -2.2685 -1.7570  2.2808
   32MOL   H13819420   5.976   3.296   5.194 -1.4910  0.8553 -0.8230
   32MOL   H13919421   6.087   3.197   5.104  0.0834 -0.5840  1.9120
   32MOL   H14019422   5.892   3.119   4.957 -1.6733 -0.2502 -0.4129
   32MOL   H14119423   5.777   3.220   5.030 -0.8297 -0.8825  1.4578
   32MOL   H14219424   5.922   3.010   5.197 -0.0017 -1.0802  0.0635
   32MOL   H14319425   5.778   3.109   5.232 -2.1645 -2.6187  0.5616
   32MOL   H14419426   5.800   2.911   5.007 -0.2842  2.1129 -0.2142
   32MOL   H14519427   5.729   2.863   5.157  0.7730 -0.8496 -0.6329
   32MOL   H14619428   5.564   3.044   5.146 -0.4765 -0.3936 -0.7316
   32MOL   H14719429   5.632   3.070   4.977 -2.2950 -0.2045 -0.0693
   32MOL   H14819430   5.504   2.810   5.074 -0.8303 -2.0806 -2.5825
   32MOL   H14919431   5.570   2.838   4.915 -2.4012 -2.3663  0.0659
   32MOL   H15019432   5.391   3.027   4.914  0.0678  1.0499  1.7944
   32MOL   H15119433   5.340   2.858   4.906  0.1366  0.2874 -0.6279
   32MOL   H15219434   5.304   2.866   5.173 -0.4135 -0.4663  0.0775
   32MOL   H15319435   5.192   2.960   5.082 -0.0313 -0.0048 -1.5255
   32MOL   H15419436   5.338   3.029   5.152 -0.6377 -0.3410  1.1595
   32MOL   H15519437   5.964   3.629   5.055  0.6021  0.7176  0.2604
   32MOL   H15619438   6.016   3.541   5.197 -0.3671  1.2418  0.5111
   32MOL   C15719439   6.161   3.683   5.124 -0.1919 -0.4824 -0.4546
   32MOL   O15819440   6.207   3.670   5.259 -0.2425  0.5174  0.6088
   32MOL   C15919441   6.290   3.554   5.286 -0.0585 -0.3547 -0.1673
   32MOL   C16019442   6.352   3.552   5.428  0.1994  0.6189  0.3890
   32MOL   C16119443   6.481   3.476   5.453  0.1488  0.0492  0.0648
   32MOL   C16219444   6.491   3.418   5.592  0.5425 -0.1839 -0.1865
   32MOL   C16319445   6.387   3.315   5.638 -0.5575 -1.0970  0.2859
   32MOL   C16419446   6.435   3.203   5.729  0.0853 -0.3958 -0.3923
   32MOL   C16519447   6.319   3.102   5.774 -0.2039 -0.5610  0.3251
   32MOL   C16619448   6.359   2.975   5.840  0.2257 -0.0426 -0.2410
   32MOL   C16719449   6.098   3.828   5.105  0.0492  0.0432  0.2639
   32MOL   H16819450   6.255   3.687   5.069  0.5155  2.5612  0.8467
   32MOL   H16919451   6.370   3.550   5.212  0.0447 -5.8633  0.0662
   32MOL   H17019452   6.228   3.467   5.268  0.1020 -0.4994 -0.0155
   32MOL   H17119453   6.279   3.527   5.505 -1.5933 -0.7688 -1.6962
   32MOL   H17219454   6.373   3.657   5.452 -0.9726  0.9839 -0.1306
   32MOL   H17319455   6.482   3.382   5.399 -0.2053 -0.0517  0.2314
   32MOL   H17419456   6.569   3.530   5.419 -0.4625  1.2466  0.3468
   32MOL   H17519457   6.594   3.384   5.604  1.4936  2.2116 -1.3070
   32MOL   H17619458   6.487   3.507   5.655 -0.1552  0.2103 -0.7837
   32MOL   H17719459   6.306   3.371   5.685  0.6690  0.6643  0.3554
   32MOL   H17819460   6.346   3.267   5.550  1.7460 -1.3705 -0.6774
   32MOL   H17919461   6.464   3.249   5.823  0.7574 -0.3540 -0.6168
   32MOL   H18019462   6.518   3.145   5.688 -0.4868 -3.2600  2.2906
   32MOL   H18119463   6.253   3.161   5.838  1.4087 -0.5373  2.0093
   32MOL   H18219464   6.249   3.071   5.696  0.3227 -0.3977 -0.2208
   32MOL   H18319465   6.368   2.979   5.949  1.7677  2.7482 -0.4283
   32MOL   H18419466   6.450   2.930   5.799  0.4804 -1.2794  1.6215
   32MOL   H18519467   6.280   2.903   5.819  0.5379 -0.3058 -0.5331
   32MOL   H18619468   6.006   3.845   5.161 -0.5113 -1.2829 -0.2510
   32MOL   H18719469   6.168   3.897   5.153  0.4344  1.7068 -2.5919
   32MOL   C18819470   6.079   3.866   4.953  0.3389 -0.0492 -0.2789
   32MOL   O18919471   6.215   3.867   4.896 -1.3252 -0.8491 -0.2711
   32MOL   C19019472   6.233   3.883   4.758  0.0630 -0.2392  0.7292
   32MOL   C19119473   6.343   3.993   4.721 -0.3547  0.2754  0.4113
   32MOL   C19219474   6.490   3.953   4.747  0.8007  0.1705 -0.7663
   32MOL   C19319475   6.587   4.071   4.713 -0.2292 -0.0657  0.1927
   32MOL   C19419476   6.731   4.023   4.690 -0.0383  0.3612 -1.5699
   32MOL   C19519477   6.837   4.128   4.658 -0.5631  0.2914 -0.3906
   32MOL   C19619478   6.844   4.259   4.744 -0.0057  0.2663  0.1849
   32MOL   C19719479   6.957   4.358   4.692  0.3261  0.3539  0.2036
   32MOL   C19819480   6.022   4.009   4.937  1.2043 -0.1180  0.3443
   32MOL   H19919481   6.011   3.793   4.910 -0.7630  0.5321  0.4465
   32MOL   H20019482   6.260   3.784   4.721 -2.6849 -1.5130  1.9504
   32MOL   H20119483   6.135   3.908   4.717  0.2375 -0.6500  0.0631
   32MOL   H20219484   6.315   4.092   4.756 -0.7122 -0.0933  1.1736
   32MOL   H20319485   6.329   4.011   4.614 -0.1246  0.5156  0.4229
   32MOL   H20419486   6.492   3.920   4.851  1.3851 -0.8336 -1.0910
   32MOL   H20519487   6.519   3.864   4.691 -0.1974 -0.6097 -0.0797
   32MOL   H20619488   6.550   4.118   4.623 -2.3470  2.3653  2.2540
   32MOL   H20719489   6.589   4.135   4.801  0.3457 -2.5076  2.0347
   32MOL   H20819490   6.768   3.977   4.782 -1.7139  1.1369 -0.4959
   32MOL   H20919491   6.741   3.941   4.619 -0.1161 -0.8990 -0.1379
   32MOL   H21019492   6.835   4.150   4.552  1.6343 -0.8423 -0.6902
   32MOL   H21119493   6.937   4.093   4.684 -0.6353  0.4047  0.0514
   32MOL   H21219494   6.750   4.314   4.741 -0.5460 -0.5441  1.5451
   32MOL   H21319495   6.859   4.248   4.851 -3.6165 -2.3562  0.5058
   32MOL   H21419496   6.940   4.372   4.586  2.1676  2.2799  0.1407
   32MOL   H21519497   7.055   4.310   4.699 -0.6531 -1.8028 -0.2689
   32MOL   H21619498   6.952   4.457   4.737  1.0137  0.4692  0.0342
   32MOL   H21719499   6.085   4.062   5.008 -1.6366  1.8269  1.5013
   32MOL   H21819500   6.043   4.044   4.836 -0.6076  1.4052  0.4851
   32MOL   C21919501   5.869   4.016   4.960 -0.2640  0.1294 -0.2538
   32MOL   O22019502   5.788   3.917   4.896  0.2998  0.0506 -0.0749
   32MOL   C22119503   5.664   3.877   4.963 -0.6366 -0.6430  0.6929
   32MOL   C22219504   5.580   3.770   4.881  0.9451  0.0230 -0.7465
   32MOL   C22319505   5.654   3.631   4.866 -0.1138  0.4458 -0.0739
   32MOL   C22419506   5.590   3.540   4.768 -0.2851  0.1017  0.7127
   32MOL   C22519507   5.673   3.415   4.747 -0.0453 -0.4511 -0.3157
   32MOL   C22619508   5.611   3.312   4.655  0.1679 -0.7039 -0.0506
   32MOL   C22719509   5.689   3.181   4.644 -0.5290  0.0558  0.2955
   32MOL   C22819510   5.635   3.094   4.529 -0.4900 -0.5731 -0.2253
   32MOL   C22919511   5.822   4.148   4.913  0.1694 -0.7040 -0.1529
   32MOL   H23019512   5.848   4.009   5.066  0.4993  0.3451 -0.0817
   32MOL   H23119513   5.607   3.969   4.965  0.8270  0.3468 -1.1707
   32MOL   H23219514   5.686   3.848   5.066 -0.0326  1.2368  1.1071
   32MOL   H23319515   5.551   3.811   4.785  1.2288  0.0061 -0.8386
   32MOL   H23419516   5.481   3.767   4.927  0.5726  0.9315 -1.4985
   32MOL   H23519517   5.747   3.662   4.818 -0.4037  0.7937 -0.4165
   32MOL   H23619518   5.673   3.589   4.965 -0.5334  2.6779  0.9921
   32MOL   H23719519   5.485   3.521   4.789 -0.1980 -3.7751 -1.8888
   32MOL   H23819520   5.588   3.586   4.669 -0.9624 -2.2488 -0.3961
   32MOL   H23919521   5.763   3.441   4.691 -1.9274  1.4058 -2.6066
   32MOL   H24019522   5.700   3.370   4.842 -0.5565  0.2824  0.1774
   32MOL   H24119523   5.611   3.358   4.556  0.9757 -2.3853 -0.8479
   32MOL   H24219524   5.505   3.299   4.678  0.2264 -0.1615  0.5753
   32MOL   H24319525   5.794   3.195   4.618 -0.7039  2.6851  0.8554
   32MOL   H24419526   5.688   3.133   4.742 -4.3854  0.0203  0.3076
   32MOL   H24519527   5.620   3.144   4.433  1.0515  0.0734 -0.1341
   32MOL   H24619528   5.540   3.042   4.543  0.1578 -1.8097 -0.4084
   32MOL   H24719529   5.705   3.014   4.509  0.0949  0.1520 -1.1540
   32MOL   H24819530   5.825   4.145   4.804  1.0361  1.4697 -0.2032
   32MOL   H24919531   5.714   4.156   4.930  0.4459  1.5008  0.7912
   32MOL   C25019532   5.901   4.277   4.965  1.1270  0.5597  0.5537
   32MOL   O25119533   5.883   4.271   5.107 -0.0897 -0.1639  0.1923
   32MOL   C25219534   5.990   4.306   5.188  0.0216  0.3148 -0.0514
   32MOL   C25319535   5.945   4.287   5.341 -0.1228 -0.6732 -0.1104
   32MOL   C25419536   5.894   4.141   5.370  0.3576 -0.1714  0.0450
   32MOL   C25519537   5.833   4.132   5.508  0.1972 -0.1516  0.5101
   32MOL   C25619538   5.766   3.997   5.538  0.1626 -0.3047  0.2201
   32MOL   C25719539   5.710   4.009   5.673  0.8182 -0.3646 -0.3140
   32MOL   C25819540   5.639   3.875   5.720 -0.3675 -0.4225  0.6611
   32MOL   C25919541   5.559   3.887   5.843 -0.2535 -0.4454  0.0810
   32MOL   C26019542   5.826   4.393   4.904  0.1376 -0.3849  0.0046
   32MOL   H26119543   6.004   4.269   4.932  0.8349  3.0672 -1.0025
   32MOL   H26219544   6.011   4.412   5.176 -3.3184  1.5580  3.9257
   32MOL   H26319545   6.072   4.235   5.171 -1.6796 -2.1995  1.8697
   32MOL   H26419546   5.861   4.354   5.359 -1.2058 -2.4064  1.4525
   32MOL   H26519547   6.023   4.321   5.409 -1.8631  0.7305  1.2479
   32MOL   H26619548   5.824   4.112   5.291 -0.2661  2.2527 -0.3290
   32MOL   H26719549   5.977   4.069   5.372  0.1159 -0.4191  2.2332
   32MOL   H26819550   5.906   4.147   5.588  2.1471 -1.7115 -0.9393
   32MOL   H26919551   5.770   4.220   5.521  2.9232  1.8050  1.1117
   32MOL   H27019552   5.683   3.996   5.467  0.5681 -0.1258 -0.2500
   32MOL   H27119553   5.842   3.919   5.528  0.3281 -0.1007 -0.1011
   32MOL   H27219554   5.644   4.095   5.679 -0.7595 -1.4680 -1.3748
   32MOL   H27319555   5.788   4.029   5.747  0.7155  1.8271 -0.7917
   32MOL   H27419556   5.572   3.846   5.639  0.7334  2.3793 -1.3334
   32MOL   H27519557   5.716   3.798   5.727 -1.3436 -1.3720  1.1100
   32MOL   H27619558   5.522   3.786   5.863  2.1066 -1.6995 -1.7402
   32MOL   H27719559   5.472   3.952   5.830  1.6137  2.3583  1.2175
   32MOL   H27819560   5.618   3.927   5.925  1.3907  0.8896 -1.6978
   32MOL   H27919561   5.719   4.382   4.919  0.0937  1.1135  0.8860
   32MOL   H28019562   5.856   4.481   4.961 -0.5751 -0.6645  0.8124
   32MOL   C28119563   5.848   4.415   4.757  0.2288  0.2937  0.6164
   32MOL   O28219564   5.968   4.471   4.725 -0.3331 -0.1389  0.0017
   32MOL   C28319565   6.043   4.404   4.624 -0.2579 -0.3910 -0.3139
   32MOL   C28419566   6.183   4.463   4.618  0.2185 -0.1210  0.2747
   32MOL   C28519567   6.265   4.432   4.746 -0.1826  0.5961 -0.0557
   32MOL   C28619568   6.416   4.440   4.740 -0.1761 -0.6409 -0.1282
   32MOL   C28719569   6.467   4.583   4.721  0.2153 -1.3486  1.1460
   32MOL   C28819570   6.624   4.588   4.735  0.3859 -0.2842  0.4665
   32MOL   C28919571   6.674   4.725   4.694 -0.3428 -0.6039  0.2478
   32MOL   C29019572   6.828   4.751   4.699  0.4893 -0.2303 -0.3444
   32MOL   C29119573   5.736   4.502   4.692 -0.0636  1.0701  0.0206
   32MOL   H29219574   5.843   4.317   4.710 -0.1046 -0.7227  2.6970
   32MOL   H29319575   5.991   4.432   4.532  0.5338  1.5266 -0.1913
   32MOL   H29419576   6.049   4.297   4.641  1.1596  0.0364  2.1097
   32MOL   H29519577   6.180   4.568   4.588 -2.4677 -0.5813 -1.3019
   32MOL   H29619578   6.231   4.417   4.532 -0.3933  0.5285 -0.4303
   32MOL   H29719579   6.230   4.487   4.834 -1.3891 -0.5199  0.1781
   32MOL   H29819580   6.252   4.329   4.779  0.7682 -0.3939 -2.6750
   32MOL   H29919581   6.453   4.404   4.836  1.0098 -2.2387 -1.1385
   32MOL   H30019582   6.445   4.376   4.656 -1.7529 -3.2729  1.2434
   32MOL   H30119583   6.429   4.619   4.625 -0.6442 -1.3736  1.4723
   32MOL   H30219584   6.429   4.652   4.796 -2.0514 -0.6628 -0.5465
   32MOL   H30319585   6.680   4.520   4.671  0.6684 -0.8028  1.2650
   32MOL   H30419586   6.652   4.569   4.839 -0.0618  0.1553  0.6679
   32MOL   H30519587   6.637   4.746   4.594 -0.1334 -2.2919 -0.2089
   32MOL   H30619588   6.634   4.808   4.752  0.6066  0.1256 -0.1393
   32MOL   H30719589   6.870   4.721   4.795  3.0316  2.7112 -0.4156
   32MOL   H30819590   6.847   4.859   4.700  2.3309 -0.5185  1.4066
   32MOL   H30919591   6.881   4.704   4.617  1.0774  0.5205 -0.4058
   32MOL   H31019592   5.732   4.597   4.746  0.3342  0.4793  1.1118
   32MOL   H31119593   5.776   4.543   4.599 -2.0899  1.5433 -0.6635
   32MOL   C31219594   5.593   4.440   4.686  0.3187 -0.0340 -0.4428
   32MOL   O31319595   5.606   4.328   4.607  0.1057  0.3226  0.1382
   32MOL   C31419596   5.524   4.220   4.630  0.4456  0.9529 -0.1858
   32MOL   C31519597   5.543   4.118   4.511  0.5614 -0.5781  0.1524
   32MOL   C31619598   5.460   3.990   4.525  0.5840 -0.2736 -0.2232
   32MOL   C31719599   5.489   3.872   4.440 -0.1234 -0.0836  0.0814
   32MOL   C31819600   5.375   3.766   4.443 -0.3234  0.1432  0.7052
   32MOL   C31919601   5.420   3.626   4.400 -0.5888 -0.3590 -0.3901
   32MOL   C32019602   5.416   3.587   4.256 -0.2750  0.1991 -0.1097
   32MOL   C32119603   5.512   3.674   4.162 -0.5829 -0.6229 -0.5674
   32MOL   C32219604   5.490   4.522   4.614 -0.0567 -0.2138 -0.0218
   32MOL   H32319605   5.564   4.413   4.788  1.6092  1.8710  0.4555
   32MOL   H32419606   5.417   4.237   4.646 -0.2629 -2.8468 -0.2184
   32MOL   H32519607   5.553   4.167   4.720  0.5409  1.7043  0.2282
   32MOL   H32619608   5.644   4.085   4.491  0.8147  1.1410 -1.5127
   32MOL   H32719609   5.508   4.164   4.418  0.4606  1.0859  0.9823
   32MOL   H32819610   5.450   3.952   4.626 -1.6011  1.2348  0.1545
   32MOL   H32919611   5.359   4.020   4.496  0.8967 -0.0362 -1.1051
   32MOL   H33019612   5.503   3.905   4.337 -0.8536  2.7313  0.8500
   32MOL   H33119613   5.586   3.832   4.470 -0.7314 -1.3672  0.3570
   32MOL   H33219614   5.316   3.775   4.534  2.0658  0.4101  2.2784
   32MOL   H33319615   5.316   3.798   4.357  0.9008 -2.1734 -1.0427
   32MOL   H33419616   5.360   3.553   4.455 -0.8037 -1.0420 -1.5244
   32MOL   H33519617   5.522   3.606   4.435 -0.4794  0.3544 -0.3015
   32MOL   H33619618   5.437   3.481   4.246  0.0345  0.0866  1.5487
   32MOL   H33719619   5.314   3.603   4.223 -0.5385 -1.7144 -0.2832
   32MOL   H33819620   5.607   3.677   4.214 -1.1647 -1.9856  0.5980
   32MOL   H33919621   5.483   3.778   4.145 -0.6751 -0.5819 -0.1493
   32MOL   H34019622   5.518   3.642   4.058  0.8239  0.6911 -0.9160
   32MOL   H34119623   5.530   4.563   4.521  0.5263  0.2215  0.4190
   32MOL   H34219624   5.406   4.458   4.588  2.1866 -3.2767 -0.0577
   32MOL   C34319625   5.428   4.643   4.687 -0.1150  0.0907  0.1610
   32MOL   O34419626   5.355   4.594   4.798 -0.2104 -0.4191  0.6391
   32MOL   C34519627   5.309   4.689   4.888  0.3831  0.1405 -0.8624
   32MOL   C34619628   5.258   4.614   5.012  0.2524  0.5352  0.7618
   32MOL   C34719629   5.195   4.704   5.104  0.1581 -0.5369 -1.0512
   32MOL   C34819630   5.104   4.644   5.212  0.8139  0.3579  0.6606
   32MOL   C34919631   5.072   4.737   5.335 -0.4945 -0.1568  0.0511
   32MOL   C35019632   4.954   4.692   5.427  0.0348  0.5041 -0.7359
   32MOL   C35119633   4.917   4.793   5.534 -0.3988  0.1907 -0.2810
   32MOL   C35219634   4.793   4.738   5.599 -0.2739  0.0242  0.4212
   32MOL   C35319635   5.346   4.732   4.587 -0.1924 -0.3414  0.3460
   32MOL   H35419636   5.506   4.702   4.734 -0.8273 -0.5713  2.1979
   32MOL   H35519637   5.221   4.729   4.837 -0.3660 -3.1202 -2.2049
   32MOL   H35619638   5.375   4.775   4.901  1.7831 -1.0990  0.3393
   32MOL   H35719639   5.345   4.564   5.056  1.0396  2.1262  1.0257
   32MOL   H35819640   5.191   4.537   4.972 -0.1112  0.8904  0.6852
   32MOL   H35919641   5.251   4.782   5.157 -2.0822  0.4810 -0.1194
   32MOL   H36019642   5.119   4.753   5.044 -2.3513 -3.5766 -0.5008
   32MOL   H36119643   5.022   4.588   5.168  0.1345  1.3416  0.6649
   32MOL   H36219644   5.163   4.569   5.264  0.4207  0.9143  1.9236
   32MOL   H36319645   5.155   4.752   5.405 -1.6085  1.4517  1.0656
   32MOL   H36419646   5.067   4.841   5.302  1.3927 -0.0526  0.0520
   32MOL   H36519647   4.989   4.597   5.466 -0.7453  0.0907 -1.0360
   32MOL   H36619648   4.870   4.681   5.358 -1.4421  1.1070  0.9381
   32MOL   H36719649   4.994   4.794   5.611 -0.2846 -0.5760 -0.3866
   32MOL   H36819650   4.901   4.892   5.491 -1.4667  0.5531  0.9211
   32MOL   H36919651   4.749   4.802   5.676 -2.2833 -2.0526  1.0762
   32MOL   H37019652   4.795   4.633   5.628  0.2912  0.0315  0.4068
   32MOL   H37119653   4.706   4.724   5.535 -0.2714 -1.3687  0.7002
   32MOL   H37219654   5.337   4.834   4.626 -0.0009 -0.3237  0.3434
   32MOL   H37319655   5.408   4.739   4.498  1.7396  1.2200  1.7688
   32MOL   C37419656   5.202   4.685   4.543 -0.5454  0.0695 -0.1554
   32MOL   O37519657   5.212   4.579   4.446  0.1994  0.5586  0.0006
   32MOL   C37619658   5.140   4.457   4.484  0.3877 -0.4717  0.0388
   32MOL   C37719659   5.152   4.340   4.383 -0.0962  0.5454  0.1970
   32MOL   C37819660   5.059   4.226   4.430  0.4954 -0.4899  0.8384
   32MOL   C37919661   5.060   4.095   4.352  0.3110  0.9734 -0.7842
   32MOL   C38019662   4.955   3.984   4.402  0.0573 -0.1352 -0.0305
   32MOL   C38119663   4.963   3.859   4.313 -0.2578  0.0160  0.1034
   32MOL   C38219664   4.876   3.747   4.376 -0.2812 -0.4367  0.3215
   32MOL   C38319665   4.863   3.639   4.270 -0.4600 -0.5776  0.6116
   32MOL   C38419666   5.135   4.802   4.459 -0.4179 -0.5373 -0.6449
   32MOL   H38519667   5.146   4.671   4.635  0.0343 -0.3792  0.1365
   32MOL   H38619668   5.034   4.478   4.473  0.5793 -0.4068 -1.7897
   32MOL   H38719669   5.172   4.425   4.583 -1.6610 -3.0612 -0.1101
   32MOL   H38819670   5.257   4.312   4.386  0.5914  3.1518  1.9644
   32MOL   H38919671   5.129   4.363   4.279  2.2896 -3.1531 -1.2807
   32MOL   H39019672   5.086   4.211   4.534  0.4155  0.2553  0.9653
   32MOL   H39119673   4.958   4.267   4.438 -0.0026 -1.1491 -1.4395
   32MOL   H39219674   5.050   4.112   4.245 -0.2541  1.2047 -0.6963
   32MOL   H39319675   5.159   4.050   4.358  0.1027  0.5691 -0.3084
   32MOL   H39419676   4.985   3.952   4.501 -2.3164 -1.8317  0.1888
   32MOL   H39519677   4.855   4.027   4.410  0.6833  1.3098  0.2510
   32MOL   H39619678   5.066   3.826   4.310 -0.3215 -0.0880 -1.2586
   32MOL   H39719679   4.937   3.903   4.216  1.1319 -0.4759 -0.4962
   32MOL   H39819680   4.930   3.716   4.466  0.0361 -1.5113 -0.2200
   32MOL   H39919681   4.776   3.777   4.407  0.9146  2.8408  1.1776
   32MOL   H40019682   4.956   3.607   4.224  0.5684  2.1143  0.7497
   32MOL   H40119683   4.803   3.689   4.195  0.3634 -0.5066 -0.0028
   32MOL   H40219684   4.807   3.561   4.322 -0.6454 -0.1816  1.0174
   32MOL   H40319685   5.144   4.893   4.517 -1.7295 -0.8410  0.0615
   32MOL   H40419686   5.200   4.815   4.373 -1.4818 -0.0193 -1.3886
   32MOL   C40519687   4.986   4.773   4.415  0.0383 -1.2939 -0.4984
   32MOL   O40619688   4.963   4.814   4.275 -0.1336  0.3951 -0.8591
   32MOL   C40719689   5.005   4.713   4.189  0.1378  0.9393 -0.8391
   32MOL   C40819690   4.892   4.608   4.177 -0.9004  0.0248 -0.2593
   32MOL   C40919691   4.763   4.680   4.123 -0.1681 -0.3794  1.0175
   32MOL   C41019692   4.657   4.581   4.066 -0.2294 -0.1387 -0.5494
   32MOL   C41119693   4.529   4.655   4.026 -0.3898  0.0305 -0.5082
   32MOL   C41219694   4.408   4.573   4.023  0.0215 -0.1160 -0.5006
   32MOL   C41319695   4.282   4.649   3.971  0.1114 -1.0788 -1.0656
   32MOL   C41419696   4.143   4.582   3.990  0.7353 -0.1873 -0.1997
   32MOL   C41519697   4.891   4.861   4.505  0.4015 -0.5001  0.6033
   32MOL   H41619698   4.959   4.668   4.431  2.3594 -1.6572  1.4637
   32MOL   H41719699   5.099   4.667   4.219  0.4651  1.0872 -1.6216
   32MOL   H41819700   5.018   4.753   4.088 -0.2391  1.8477 -0.5318
   32MOL   H41919701   4.863   4.556   4.268  0.7230  1.6257  1.2132
   32MOL   H42019702   4.930   4.532   4.109 -0.2553 -1.1212  1.3605
   32MOL   H42119703   4.726   4.730   4.212  0.1946 -0.6955  1.3540
   32MOL   H42219704   4.786   4.755   4.047 -1.0068 -2.7213 -1.6513
   32MOL   H42319705   4.698   4.541   3.973  0.1550  0.5010 -0.6598
   32MOL   H42419706   4.644   4.516   4.152 -0.0639 -0.4715 -0.7762
   32MOL   H42519707   4.507   4.739   4.092 -0.5555 -0.7096  0.3914
   32MOL   H42619708   4.546   4.691   3.925 -1.4316 -0.5320 -0.8885
   32MOL   H42719709   4.397   4.525   4.120 -1.9919 -0.7147 -0.9934
   32MOL   H42819710   4.431   4.493   3.953 -2.7308 -0.1941 -1.3925
   32MOL   H42919711   4.274   4.749   4.015 -2.5679 -1.1731 -1.2854
   32MOL   H43019712   4.305   4.669   3.866 -0.7366  1.3779 -0.8268
   32MOL   H43119713   4.133   4.558   4.096 -2.5668  2.8789  0.2748
   32MOL   H43219714   4.116   4.492   3.935 -1.9982  1.6655 -1.9876
   32MOL   H43319715   4.074   4.658   3.952  1.1583 -0.0524 -0.7118
   32MOL   H43419716   4.926   4.963   4.488  0.8115 -0.7092  0.1902
   32MOL   H43519717   4.795   4.846   4.456  0.8544  1.3984 -0.9281
   32MOL   C43619718   4.869   4.822   4.652 -0.0887 -0.3245  0.1814
   32MOL   O43719719   4.781   4.714   4.651  0.5036 -0.2708 -0.1300
   32MOL   C43819720   4.811   4.624   4.760 -0.0793  0.2636 -0.2119
   32MOL   C43919721   4.710   4.508   4.762 -0.2054 -0.0503 -0.1230
   32MOL   C44019722   4.714   4.412   4.643  0.4054  0.0116  0.0059
   32MOL   C44119723   4.603   4.307   4.653 -0.1930 -0.1976  0.4720
   32MOL   C44219724   4.620   4.223   4.527 -0.3438 -0.3030 -0.0266
   32MOL   C44319725   4.510   4.116   4.528  0.2576  0.0574  0.1904
   32MOL   C44419726   4.504   4.034   4.402 -0.2080 -0.5608 -0.2886
   32MOL   C44519727   4.434   3.901   4.424  0.4180  0.5140 -0.3274
   32MOL   C44619728   4.801   4.942   4.724 -0.4300 -0.8618 -0.4170
   32MOL   H44719729   4.964   4.794   4.696 -0.5584 -2.8914 -0.3604
   32MOL   H44819730   4.909   4.576   4.752  0.8735  1.6031  2.6426
   32MOL   H44919731   4.816   4.669   4.859 -0.6605  0.6730 -0.3709
   32MOL   H45019732   4.614   4.560   4.763  0.5483  1.3789  0.2709
   32MOL   H45119733   4.728   4.449   4.852  0.5337  1.5195  0.7927
   32MOL   H45219734   4.710   4.466   4.548 -1.0062 -0.4787 -0.2198
   32MOL   H45319735   4.812   4.365   4.648  1.3815  1.8583 -1.0996
   32MOL   H45419736   4.609   4.245   4.742  1.2620 -1.7696 -0.7053
   32MOL   H45519737   4.502   4.346   4.663 -0.8704 -0.9196 -2.9655
   32MOL   H45619738   4.613   4.294   4.444  3.0233  0.5101  0.3049
   32MOL   H45719739   4.715   4.170   4.512  0.5389  0.1083  3.6782
   32MOL   H45819740   4.411   4.161   4.536  0.0070 -0.6173  0.9839
   32MOL   H45919741   4.533   4.061   4.620  3.4676 -1.1922 -1.2771
   32MOL   H46019742   4.460   4.100   4.326  0.5573  2.4647  1.7775
   32MOL   H46119743   4.607   4.014   4.373  0.4975  2.2345  0.1654
   32MOL   H46219744   4.451   3.844   4.515  0.7482 -0.1128 -0.7743
   32MOL   H46319745   4.437   3.836   4.336 -1.1813  1.4338 -1.0874
   32MOL   H46419746   4.327   3.923   4.432 -0.5015 -3.5974  0.1196
   32MOL   H46519747   4.741   5.001   4.655  0.1778 -0.1815 -0.3715
   32MOL   H46619748   4.726   4.909   4.796 -2.2252  1.4342 -1.1606
   32MOL   C46719749   4.901   5.034   4.819  0.2649  0.5656 -0.5209
   32MOL   O46819750   5.020   5.074   4.743 -0.3883 -0.3212  0.2345
   32MOL   C46919751   4.982   5.182   4.657 -0.2388  0.3556 -0.6017
   32MOL   C47019752   5.095   5.238   4.564 -0.3970  0.3628 -0.0670
   32MOL   C47119753   5.221   5.307   4.639 -0.0108 -0.6834 -0.2132
   32MOL   C47219754   5.323   5.201   4.687 -0.0240 -0.0800  0.2449
   32MOL   C47319755   5.452   5.257   4.740  0.1257 -0.6254  0.8001
   32MOL   C47419756   5.582   5.174   4.721 -0.2159  0.3486  0.2314
   32MOL   C47519757   5.691   5.217   4.817 -0.1285 -0.5623 -0.5558
   32MOL   C47619758   5.776   5.100   4.867 -0.0313  0.2004  0.8575
   32MOL   C47719759   4.951   4.946   4.933 -0.9204  0.0493  0.3723
   32MOL   H47819760   4.841   5.109   4.870  0.0048  0.6056 -0.8809
   32MOL   H47919761   4.945   5.265   4.718 -1.2748  0.5767 -1.5179
   32MOL   H48019762   4.895   5.150   4.599 -1.2537  1.4569  0.2653
   32MOL   H48119763   5.049   5.317   4.505 -0.5503 -0.7732 -1.4845
   32MOL   H48219764   5.112   5.157   4.494  1.1400  1.3780 -0.9143
   32MOL   H48319765   5.280   5.367   4.569  0.4879  1.6328  2.1171
   32MOL   H48419766   5.185   5.370   4.721  0.3055 -0.2585 -0.4007
   32MOL   H48519767   5.275   5.143   4.766 -3.5354  2.3084  0.0189
   32MOL   H48619768   5.340   5.141   4.598  2.0744 -0.7167  1.0634
   32MOL   H48719769   5.467   5.357   4.701 -2.4507 -0.1618  0.9219
   32MOL   H48819770   5.435   5.277   4.846 -2.2752 -0.0364  0.3426
   32MOL   H48919771   5.627   5.190   4.624 -1.2405 -1.4179 -0.5507
   32MOL   H49019772   5.559   5.068   4.723  0.6599  0.1585  0.2869
   32MOL   H49119773   5.752   5.291   4.764 -0.6881 -1.0163 -1.8461
   32MOL   H49219774   5.646   5.270   4.901  0.6906 -2.4737  1.1320
   32MOL   H49319775   5.825   5.049   4.784  0.1583  1.8980 -0.0869
   32MOL   H49419776   5.712   5.035   4.926  0.5410 -0.3366  0.8909
   32MOL   H49519777   5.850   5.144   4.934  4.2524 -0.8998 -2.9740
   32MOL   H49619778   4.867   4.884   4.964  0.8089 -2.1235  0.7889
   32MOL   H49719779   5.021   4.869   4.902 -1.0738 -1.0771  2.7641
   32MOL   C49819780   5.001   5.034   5.052  0.7148 -0.1094 -0.1196
   32MOL   O49919781   4.889   5.103   5.122  0.0193 -0.1424 -0.1329
   32MOL   C50019782   4.849   5.028   5.228  0.4755 -0.5368 -0.8132
   32MOL   C50119783   4.731   5.076   5.305 -0.0673 -0.1726 -0.2082
   32MOL   C50219784   4.751   5.217   5.367 -0.1337  1.0167  0.4535
   32MOL   C50319785   4.630   5.254   5.456  0.1397  0.3626 -0.0456
   32MOL   C50419786   4.633   5.385   5.537  0.6207 -0.1739 -0.3651
   32MOL   C50519787   4.514   5.411   5.627 -0.8750 -0.3941 -0.1126
   32MOL   C50619788   4.527   5.553   5.689  0.3220 -0.2526  0.6180
   32MOL   C50719789   4.406   5.582   5.783 -0.0018 -0.3905 -0.2658
   32MOL   C50819790   5.101   5.152   5.009  0.5003  0.5152 -0.0621
   32MOL   H50919791   5.059   4.981   5.127  2.0599  2.8112  0.9823
   32MOL   H51019792   4.928   5.016   5.301 -1.6248  0.5193  1.7161
   32MOL   H51119793   4.814   4.929   5.200  0.1197 -0.4087 -0.8342
   32MOL   H51219794   4.711   5.000   5.379  4.2454  1.4737  2.8708
   32MOL   H51319795   4.639   5.080   5.247 -0.6824 -0.4850  0.7420
   32MOL   H51419796   4.841   5.208   5.428 -0.2155 -1.6898  0.2482
   32MOL   H51519797   4.765   5.293   5.291  1.2671  0.1903 -0.1294
   32MOL   H51619798   4.550   5.257   5.382  0.4012 -2.8590 -0.5602
   32MOL   H51719799   4.612   5.172   5.526 -0.5711  0.9079  0.4183
   32MOL   H51819800   4.723   5.386   5.599  0.8850  0.9030 -0.7554
   32MOL   H51919801   4.643   5.466   5.465 -0.3544  0.0703 -0.2245
   32MOL   H52019802   4.528   5.330   5.697  0.9192 -0.3817 -0.4311
   32MOL   H52119803   4.419   5.391   5.577 -0.7083  0.5851 -0.8501
   32MOL   H52219804   4.619   5.552   5.748  0.7053  0.9245  0.0619
   32MOL   H52319805   4.541   5.625   5.608 -2.5356 -1.9277 -1.4571
   32MOL   H52419806   4.326   5.623   5.722  0.7403  1.2128 -0.2063
   32MOL   H52519807   4.419   5.652   5.866  0.7947  0.5170 -1.1418
   32MOL   H52619808   4.377   5.483   5.818  0.4564  0.0393  1.3850
   32MOL   H52719809   5.182   5.100   4.957 -0.2275 -1.5755  0.8410
   32MOL   H52819810   5.048   5.217   4.940 -1.8056 -1.3289 -0.0653
   32MOL   C52919811   5.170   5.221   5.127  0.3572 -0.0956  0.1728
   32MOL   O53019812   5.218   5.342   5.065  0.0804  0.1242  0.0700
   32MOL   C53119813   5.121   5.448   5.067 -0.8984  0.0546  0.1569
   32MOL   C53219814   5.103   5.519   5.196  0.0482 -0.0621 -0.1600
   32MOL   C53319815   4.983   5.616   5.175  0.0862  0.6077  0.1882
   32MOL   C53419816   4.922   5.665   5.306  0.1949 -0.3547 -0.1676
   32MOL   C53519817   5.017   5.724   5.414 -0.0905  0.1436 -0.4530
   32MOL   C53619818   5.104   5.839   5.363 -0.2034 -0.2926 -0.1912
   32MOL   C53719819   5.116   5.959   5.467 -0.2023  0.3663  0.1350
   32MOL   C53819820   5.228   6.048   5.440 -0.0773  0.4971 -0.6381
   32MOL   C53919821   5.292   5.136   5.173  0.1615 -0.7087 -0.0788
   32MOL   H54019822   5.111   5.238   5.217  1.8861  1.9913  0.8382
   32MOL   H54119823   5.157   5.527   5.001 -0.8406  3.5124  4.1785
   32MOL   H54219824   5.028   5.424   5.015 -0.9505  0.0614  0.2471
   32MOL   H54319825   5.200   5.560   5.226 -1.1697  1.7438  1.4716
   32MOL   H54419826   5.073   5.445   5.270 -0.4269 -1.3148 -1.6053
   32MOL   H54519827   5.021   5.706   5.126  0.9366  0.7297  1.0558
   32MOL   H54619828   4.903   5.565   5.122  2.4926 -2.3516 -0.7116
   32MOL   H54719829   4.847   5.744   5.299  0.5295  0.2289  2.3096
   32MOL   H54819830   4.862   5.579   5.333 -0.3740  0.4318  1.1098
   32MOL   H54919831   4.960   5.765   5.497 -0.0066 -2.7751  1.0983
   32MOL   H55019832   5.072   5.641   5.458  0.0348  1.0043  1.0643
   32MOL   H55119833   5.065   5.871   5.266  0.7362 -3.4701 -1.6625
   32MOL   H55219834   5.202   5.805   5.331 -0.6271 -1.0481 -0.6876
   32MOL   H55319835   5.019   6.008   5.475  0.1818  1.1790 -0.1148
   32MOL   H55419836   5.127   5.928   5.571 -1.2042 -0.5300 -0.0194
   32MOL   H55519837   5.326   6.000   5.440 -0.0265  0.5378  1.8747
   32MOL   H55619838   5.237   6.126   5.516  1.7188  1.4313 -1.7556
   32MOL   H55719839   5.206   6.105   5.349  0.8653 -0.1234 -1.2674
   32MOL   H55819840   5.281   5.028   5.165  3.5086 -1.0222 -1.2199
   32MOL   H55919841   5.374   5.158   5.104 -0.7043  0.4610 -0.7482
   32MOL   C56019842   5.341   5.171   5.311 -0.2558 -0.3165 -0.0177
   32MOL   O56119843   5.482   5.128   5.319 -0.3101  0.2566 -0.4336
   32MOL   C56219844   5.565   5.234   5.284 -0.2485  0.2393  0.0567
   32MOL   C56319845   5.698   5.168   5.258 -0.2348 -0.5944 -0.3793
   32MOL   C56419846   5.808   5.270   5.220 -0.1952 -0.0849  0.4875
   32MOL   C56519847   5.949   5.212   5.191 -0.3601 -0.1328  0.0569
   32MOL   C56619848   6.043   5.300   5.099  0.3645  0.7006  0.2225
   32MOL   C56719849   6.131   5.407   5.180  0.0882  0.4701  0.3930
   32MOL   C56819850   6.227   5.481   5.087 -0.1220  0.5092  0.0249
   32MOL   C56919851   6.340   5.382   5.036 -0.1831  0.0967 -0.0212
   32MOL   C57019852   5.245   5.109   5.417 -0.0158 -0.5290  0.6118
   32MOL   H57119853   5.341   5.280   5.320 -0.0870 -0.3994  1.0200
   32MOL   H57219854   5.571   5.303   5.368 -2.2400  1.1816 -0.5333
   32MOL   H57319855   5.548   5.287   5.190 -0.2275  0.7894  0.3585
   32MOL   H57419856   5.673   5.094   5.181 -0.1199  0.4810 -1.4565
   32MOL   H57519857   5.728   5.112   5.347  3.2018 -0.5749 -1.4701
   32MOL   H57619858   5.772   5.326   5.134 -1.6732 -0.0915  1.0873
   32MOL   H57719859   5.821   5.344   5.299 -1.2482 -0.4194  0.9852
   32MOL   H57819860   6.003   5.175   5.279 -2.5836  3.4634  3.0746
   32MOL   H57919861   5.931   5.122   5.132 -4.1195  0.8741 -0.4414
   32MOL   H58019862   6.097   5.224   5.044 -0.0333 -1.2810  2.4915
   32MOL   H58119863   5.976   5.332   5.019  1.1630  1.6698 -0.0612
   32MOL   H58219864   6.189   5.358   5.258  0.7885  3.1626  1.6195
   32MOL   H58319865   6.067   5.478   5.231  0.0490  1.4731 -1.0110
   32MOL   H58419866   6.180   5.523   4.998  1.6178 -1.3582 -1.8259
   32MOL   H58519867   6.261   5.559   5.155 -2.2379  2.6189 -1.2529
   32MOL   H58619868   6.288   5.296   4.993 -0.0495  0.7085 -1.4381
   32MOL   H58719869   6.403   5.335   5.112 -0.1105  0.9013  0.4149
   32MOL   H58819870   6.414   5.421   4.965 -1.6426 -0.7967 -2.0857
   32MOL   H58919871   5.143   5.098   5.380  0.5354 -0.7827 -0.8449
   32MOL   H59019872   5.283   5.012   5.446  0.0265 -0.1478  1.8499
   32MOL   C59119873   5.235   5.191   5.547 -0.8286  0.5109 -0.8307
   32MOL   O59219874   5.139   5.123   5.621 -0.1084 -0.0780  0.2553
   32MOL   C59319875   5.175   5.097   5.758  0.4586  0.4396  0.4097
   32MOL   C59419876   5.058   5.047   5.839 -1.1138 -0.3350  0.8337
   32MOL   C59519877   4.964   5.157   5.877  0.4666  0.0473 -0.2902
   32MOL   C59619878   4.850   5.113   5.967 -0.1669 -0.3291  0.1587
   32MOL   C59719879   4.724   5.188   5.935  0.2127  0.1051  0.0538
   32MOL   C59819880   4.608   5.145   6.024  0.8345  0.0327 -0.2312
   32MOL   C59919881   4.474   5.203   5.975 -0.2723  0.2691  0.0291
   32MOL   C60019882   4.356   5.194   6.071  0.2712  0.0356  0.1815
   32MOL   C60119883   5.193   5.344   5.542 -0.1458 -0.0615  0.8069
   32MOL   H60219884   5.335   5.190   5.591 -1.5333 -2.8670  0.8072
   32MOL   H60319885   5.209   5.190   5.804  1.2869  0.2561  0.1753
   32MOL   H60419886   5.253   5.020   5.755 -1.1638 -1.2349 -0.0178
   32MOL   H60519887   5.093   5.006   5.934  0.9594  0.1600  0.3082
   32MOL   H60619888   4.999   4.974   5.784 -1.9245  0.6683  0.3686
   32MOL   H60719889   5.021   5.233   5.932  0.1959 -1.1397  1.6596
   32MOL   H60819890   4.926   5.202   5.786  1.4989  0.7926 -0.3667
   32MOL   H60919891   4.825   5.009   5.947  1.0043 -0.8207  1.2338
   32MOL   H61019892   4.883   5.125   6.070  1.0234  1.3093 -0.3861
   32MOL   H61119893   4.731   5.296   5.949 -0.9779 -0.0319  1.9248
   32MOL   H61219894   4.692   5.158   5.835  0.9098 -0.4899  0.0116
   32MOL   H61319895   4.629   5.152   6.131  0.4812  0.0595 -0.1639
   32MOL   H61419896   4.595   5.038   6.012 -2.7030  0.4566 -0.6355
   32MOL   H61519897   4.491   5.306   5.945  2.7918 -0.1365  0.1590
   32MOL   H61619898   4.441   5.154   5.884 -0.1751  0.3377 -0.0424
   32MOL   H61719899   4.279   5.265   6.042  0.9107  1.5628  2.1176
   32MOL   H61819900   4.389   5.201   6.174  0.4672  1.4902  0.0258
   32MOL   H61919901   4.304   5.098   6.062  0.1965 -0.1439  2.2699
   32MOL   H62019902   5.097   5.353   5.491  0.4309 -0.6740 -0.4217
   32MOL   H62119903   5.194   5.385   5.643 -0.9484  1.6722  0.1359
   32MOL   H62219904   5.262   5.403   5.480  1.5974  0.7291  3.4203
   33MOL     C119905   7.164   1.412   7.086 -0.0880 -0.2263  0.1541
   33MOL     O219906   7.079   1.525   7.105  0.2789  0.5045 -0.8503
   33MOL     C319907   7.119   1.619   7.209  1.0209  0.3074  0.0795
   33MOL     C419908   7.010   1.720   7.232 -0.0404  0.1141  0.1925
   33MOL     C519909   7.069   1.827   7.319  0.3523 -0.6799 -0.3678
   33MOL     C619910   6.972   1.937   7.361 -0.3046  0.5123  0.2618
   33MOL     C719911   6.907   2.009   7.237 -0.1937  0.4661 -0.3542
   33MOL     C819912   6.828   2.129   7.291  0.8571 -0.3087 -0.1150
   33MOL     C919913   6.772   2.215   7.176  1.2258 -0.6655  0.3618
   33MOL    C1019914   6.658   2.308   7.219 -0.1732 -0.1418  0.1502
   33MOL    C1119915   7.099   1.304   7.170  0.0501  0.0593 -0.5382
   33MOL    H1219916   7.162   1.404   6.977 -1.4005  0.5463  0.1129
   33MOL    H1319917   7.211   1.665   7.173  0.5885  2.0064  1.0890
   33MOL    H1419918   7.140   1.572   7.305 -0.6033  1.5692  1.0818
   33MOL    H1519919   6.925   1.677   7.284 -0.1765 -0.1130 -0.2187
   33MOL    H1619920   6.965   1.750   7.137  0.1132 -1.2027 -0.3054
   33MOL    H1719921   7.103   1.774   7.408  0.3818 -1.1358 -0.6474
   33MOL    H1819922   7.153   1.870   7.265  0.4609  0.3189  0.5694
   33MOL    H1919923   6.892   1.899   7.425 -0.5678  0.7745  0.0889
   33MOL    H2019924   7.032   2.006   7.420  1.3837  0.4007 -1.2902
   33MOL    H2119925   6.977   2.029   7.156 -1.1826  0.3220 -1.2596
   33MOL    H2219926   6.823   1.955   7.193 -1.0685  1.1302  0.4951
   33MOL    H2319927   6.900   2.182   7.354 -0.3389  2.0084 -0.6258
   33MOL    H2419928   6.747   2.093   7.354  0.1595 -0.3809 -1.0365
   33MOL    H2519929   6.855   2.276   7.140  0.3660  0.9820  1.1067
   33MOL    H2619930   6.743   2.147   7.096  0.9547  0.9866 -0.9667
   33MOL    H2719931   6.565   2.252   7.233 -1.5274  1.2713 -2.7811
   33MOL    H2819932   6.643   2.386   7.144  0.6944 -0.3416 -0.2353
   33MOL    H2919933   6.673   2.366   7.310  0.2077  0.0546 -0.0412
   33MOL    H3019934   7.085   1.331   7.275 -0.5524  2.6567 -1.2638
   33MOL    H3119935   7.004   1.282   7.121 -0.9050 -1.1425  1.7638
   33MOL    H3219936   7.266   1.432   7.120  0.6341 -0.3115 -1.8723
   33MOL    C3319937   7.180   1.177   7.163 -0.7349 -0.0536  0.0304
   33MOL    O3419938   7.183   1.116   7.025  0.5091 -0.0742 -0.8475
   33MOL    C3519939   7.305   1.141   6.957  0.0392 -0.3557 -0.1220
   33MOL    C3619940   7.276   1.104   6.812 -1.3460 -0.4919 -0.6216
   33MOL    C3719941   7.261   0.957   6.787 -0.3041  0.5651 -0.2054
   33MOL    C3819942   7.240   0.921   6.643  0.1648 -0.3854 -0.1795
   33MOL    C3919943   7.237   0.769   6.615 -0.8144 -0.3990 -0.3341
   33MOL    C4019944   7.241   0.736   6.466 -0.3698 -0.6234  0.6254
   33MOL    C4119945   7.296   0.597   6.431 -0.0248 -0.2189  0.4445
   33MOL    C4219946   7.206   0.515   6.340  0.2685 -0.5202 -0.6238
   33MOL    C4319947   7.139   1.074   7.269  0.1324 -0.0520  0.1618
   33MOL    H4419948   7.280   1.209   7.192  0.0873 -1.8817 -0.7190
   33MOL    H4519949   7.382   1.077   7.002  0.7196  0.8143  0.3952
   33MOL    H4619950   7.335   1.246   6.963  0.3430 -0.4323 -0.2584
   33MOL    H4719951   7.370   1.140   6.768 -0.3413 -0.4444  1.5165
   33MOL    H4819952   7.194   1.158   6.765 -0.0878  1.4178 -0.7153
   33MOL    H4919953   7.350   0.916   6.835 -0.9355  1.7608  2.1053
   33MOL    H5019954   7.188   0.912   6.854  1.6037  1.0335  2.2738
   33MOL    H5119955   7.148   0.969   6.612 -0.8291 -1.9706  0.2655
   33MOL    H5219956   7.326   0.968   6.594 -0.5787  1.5574  0.3877
   33MOL    H5319957   7.322   0.723   6.665 -0.7033 -0.1386 -0.2857
   33MOL    H5419958   7.157   0.717   6.668  0.0817  0.2177  1.6516
   33MOL    H5519959   7.306   0.809   6.418  1.5349 -2.6892 -0.0107
   33MOL    H5619960   7.144   0.754   6.419  0.0704  0.0826 -0.0204
   33MOL    H5719961   7.395   0.603   6.386 -0.8257 -1.8765 -1.6169
   33MOL    H5819962   7.295   0.530   6.517  0.3547  1.3578  1.7095
   33MOL    H5919963   7.248   0.415   6.322  2.7113  0.0138  1.7740
   33MOL    H6019964   7.188   0.570   6.248  0.5313 -2.4138 -1.8430
   33MOL    H6119965   7.111   0.501   6.391 -0.1346  1.1459 -0.9028
   33MOL    H6219966   7.157   1.119   7.366 -2.6106  0.4248  0.4822
   33MOL    H6319967   7.035   1.047   7.258  0.1528  0.0036 -0.1807
   33MOL    C6419968   7.227   0.946   7.259  0.3978  0.2946  0.4866
   33MOL    O6519969   7.180   0.857   7.358 -0.2618  0.2467  0.5327
   33MOL    C6619970   7.102   0.754   7.311  0.8090  0.4378 -1.1839
   33MOL    C6719971   7.044   0.683   7.429 -0.0187 -0.3363 -0.2959
   33MOL    C6819972   6.984   0.547   7.380 -0.6855  0.0159 -0.1565
   33MOL    C6919973   6.921   0.474   7.502  0.0649 -0.2300  0.5116
   33MOL    C7019974   6.850   0.351   7.458  0.4913  0.3956  0.1023
   33MOL    C7119975   6.807   0.261   7.581  0.2375  0.5807 -0.3062
   33MOL    C7219976   6.746   0.123   7.549  0.1399 -0.2953 -0.0657
   33MOL    C7319977   6.801   0.004   7.637 -0.3843 -0.4160 -0.8375
   33MOL    C7419978   7.379   0.964   7.281 -0.4777 -0.1231 -0.3347
   33MOL    H7519979   7.216   0.907   7.158 -1.5267  1.0175  0.4085
   33MOL    H7619980   7.153   0.686   7.242 -1.1228 -0.9632 -1.2863
   33MOL    H7719981   7.022   0.788   7.245 -1.2215 -1.3645  0.2603
   33MOL    H7819982   6.962   0.747   7.463  1.1271  0.4629  1.0448
   33MOL    H7919983   7.121   0.679   7.506 -1.2672 -0.9522  0.9415
   33MOL    H8019984   6.905   0.547   7.304  0.2818 -2.7066 -1.2195
   33MOL    H8119985   7.065   0.489   7.336 -1.5944 -1.5632  0.2305
   33MOL    H8219986   6.998   0.452   7.576  1.2122 -0.6508 -0.7873
   33MOL    H8319987   6.860   0.543   7.560  0.4323 -0.1757  0.8382
   33MOL    H8419988   6.763   0.370   7.395  0.4789 -0.5893 -0.2002
   33MOL    H8519989   6.923   0.294   7.400  0.1812 -0.2143  0.3063
   33MOL    H8619990   6.744   0.323   7.644  0.3426 -0.5304  0.8998
   33MOL    H8719991   6.899   0.259   7.640 -0.7116  0.2742  1.1849
   33MOL    H8819992   6.638   0.133   7.544  0.0624 -1.3024 -0.4646
   33MOL    H8919993   6.774   0.094   7.448 -0.5430 -0.5677 -0.1763
   33MOL    H9019994   6.815   0.043   7.738 -3.1612  0.2893 -0.6747
   33MOL    H9119995   6.902   7.755   7.603 -0.9844  1.4255 -4.1302
   33MOL    H9219996   6.746   7.684   7.646  0.2289 -0.5513  1.6335
   33MOL    H9319997   7.422   0.864   7.287  2.4974  1.1980  1.1070
   33MOL    H9419998   7.422   1.028   7.205 -0.9082 -0.1592 -0.6115
   33MOL    C9519999   7.419   1.021   7.418  0.4031 -0.6036 -0.4780
   33MOL    O9620000   7.388   1.165   7.412  0.1508  0.0075  0.4746
   33MOL    C9720001   7.362   1.232   7.535  0.8346  0.5210 -0.5312
   33MOL    C9820002   7.361   1.380   7.497 -0.0726  0.1799  0.5380
   33MOL    C9920003   7.497   1.428   7.430 -0.2969 -0.2080 -0.6578
   33MOL   C10020004   7.489   1.577   7.388 -0.7540 -0.0456 -0.0439
   33MOL   C10120005   7.628   1.634   7.359  0.6102 -0.0700  0.1992
   33MOL   C10220006   7.622   1.781   7.301  0.5694  0.4950 -0.9849
   33MOL   C10320007   7.741   1.822   7.222  0.4442 -0.5409  0.0538
   33MOL   C10420008   0.094   1.817   7.299 -0.0655  0.5492  0.3411
   33MOL   C10520009   7.572   1.004   7.436 -1.2906  0.2145 -0.2430
   33MOL   H10620010   7.362   0.976   7.499  1.3487  0.1141  0.6169
   33MOL   H10720011   7.432   1.219   7.617  0.1651 -2.0331 -0.3313
   33MOL   H10820012   7.265   1.207   7.579  1.5767 -0.1593  0.7540
   33MOL   H10920013   7.352   1.433   7.592  2.7330 -0.6984  1.3249
   33MOL   H11020014   7.276   1.392   7.430 -0.7757 -1.0085  1.1835
   33MOL   H11120015   7.587   1.405   7.488 -1.4770  2.3149  2.2570
   33MOL   H11220016   7.520   1.378   7.336  1.2269  0.9328 -0.9109
   33MOL   H11320017   7.419   1.595   7.307 -0.3220 -2.2161 -0.9457
   33MOL   H11420018   7.449   1.635   7.471 -1.6859 -0.5539 -0.1345
   33MOL   H11520019   7.696   1.634   7.444  1.7168  2.2608 -0.6558
   33MOL   H11620020   7.663   1.581   7.271  1.1145 -1.7549  1.3910
   33MOL   H11720021   7.593   1.847   7.382 -0.8270 -1.9337  0.5419
   33MOL   H11820022   7.534   1.806   7.242 -1.0734 -0.0173  1.1679
   33MOL   H11920023   7.743   1.763   7.131  0.4994 -2.6193  1.3810
   33MOL   H12020024   7.721   1.927   7.202  0.2873 -0.3527  1.1640
   33MOL   H12120025   0.131   1.717   7.321 -0.2979  0.3540 -0.1455
   33MOL   H12220026   0.081   1.864   7.396 -2.2979 -0.5980  0.6354
   33MOL   H12320027   0.180   1.860   7.249 -1.2236  3.0411  0.4229
   33MOL   H12420028   7.631   1.042   7.353  0.4721  0.8798  1.2748
   33MOL   H12520029   7.609   1.072   7.512 -0.3626  0.8785 -1.2876
   33MOL   C12620030   7.612   0.861   7.487 -0.3079  0.0066 -0.3693
   33MOL   O12720031   7.549   0.847   7.607  0.0048 -0.4213 -0.1043
   33MOL   C12820032   7.513   0.710   7.630 -0.2096 -0.1976  0.7812
   33MOL   C12920033   7.406   0.708   7.742 -0.3743  0.0496  0.6126
   33MOL   C13020034   7.360   0.570   0.018 -0.7325  0.1766  0.0329
   33MOL   C13120035   7.301   0.474   7.680 -1.0384  0.2691  0.2774
   33MOL   C13220036   7.246   0.345   7.743  0.4371  0.1393  0.3916
   33MOL   C13320037   7.363   0.261   0.012 -0.2732 -0.5649 -0.2285
   33MOL   C13420038   7.341   0.106   0.023 -0.0758  0.3892 -0.3080
   33MOL   C13520039   7.470   0.033   0.047 -0.2254  0.4857 -0.1194
   33MOL   C13620040   7.763   0.821   7.508  0.1638  0.7458  0.0029
   33MOL   H13720041   7.573   0.794   7.411 -0.3186  0.3013 -0.6279
   33MOL   H13820042   7.604   0.658   7.661  1.4204  0.7439 -2.2228
   33MOL   H13920043   7.486   0.655   7.540  3.4895  0.2615 -0.6881
   33MOL   H14020044   7.325   0.779   7.721 -0.3880 -0.7058 -2.0869
   33MOL   H14120045   7.457   0.760   0.049 -0.5472  1.3614 -0.0936
   33MOL   H14220046   7.449   0.528   0.065 -0.5139 -1.6416 -1.9035
   33MOL   H14320047   7.289   0.580   0.099 -0.6417  2.3218 -0.1363
   33MOL   H14420048   7.227   0.523   7.617 -0.3733  0.3467 -0.4494
   33MOL   H14520049   7.381   0.457   7.608 -0.1311  1.8028  0.8905
   33MOL   H14620050   7.179   0.366   0.052  0.7838 -1.1282  1.0151
   33MOL   H14720051   7.199   0.293   7.659 -0.5980  0.2881  0.8734
   33MOL   H14820052   7.406   0.304   0.102  2.6200 -0.3460 -1.6438
   33MOL   H14920053   7.446   0.282   7.720 -0.4168  2.6385  0.5496
   33MOL   H15020054   7.278   0.088   0.111 -1.5340  1.5316 -1.1023
   33MOL   H15120055   7.295   0.060   7.710  2.0351 -2.0465 -0.1788
   33MOL   H15220056   7.437   7.707   0.077 -2.7602  1.0835 -0.7369
   33MOL   H15320057   7.510   0.082   0.135  0.7955  0.8199 -0.7635
   33MOL   H15420058   7.545   0.033   7.742  0.2376  0.5910  0.3165
   33MOL   H15520059   0.034   0.883   7.586 -0.4532  0.2909  0.7276
   33MOL   H15620060   0.001   0.717   7.535 -1.9404  0.2404 -0.8736
   33MOL   C15720061   0.073   0.844   7.387  0.6608  0.0592  0.1554
   33MOL   O15820062   0.024   0.760   7.285 -0.3186 -0.1578  0.9198
   33MOL   C15920063   0.000   0.823   7.162  0.0592 -0.2816 -0.2310
   33MOL   C16020064   7.720   0.730   7.049 -0.1581 -0.5367 -0.2313
   33MOL   C16120065   7.575   0.674   7.075  0.1016 -0.1803 -0.4286
   33MOL   C16220066   7.518   0.608   6.947  1.1817  0.5418  1.2096
   33MOL   C16320067   7.591   0.483   6.900  0.4359  0.1088  0.8943
   33MOL   C16420068   7.543   0.429   6.764  0.2604  0.7375 -1.3209
   33MOL   C16520069   7.573   0.524   6.646  0.2328  0.4060 -0.5660
   33MOL   C16620070   7.721   0.558   6.635  0.4110  0.2859 -0.3607
   33MOL   C16720071   0.220   0.802   7.413 -0.2140 -0.5956 -0.1570
   33MOL   H16820072   0.056   0.947   7.359 -2.7441 -0.6891 -0.7374
   33MOL   H16920073   0.091   0.868   7.122 -0.1347 -0.2606 -0.6394
   33MOL   H17020074   7.712   0.910   7.183  1.0675  0.1208  1.2182
   33MOL   H17120075   0.018   0.652   7.023 -0.5074 -0.4246 -1.5760
   33MOL   H17220076   7.716   0.798   6.964  0.8754  3.3315  2.6254
   33MOL   H17320077   7.575   0.610   7.163 -1.1986  1.5524  0.8592
   33MOL   H17420078   7.503   0.752   7.099 -1.1144 -0.8857 -1.6693
   33MOL   H17520079   7.409   0.600   6.955  0.9292  2.5493  0.1233
   33MOL   H17620080   7.525   0.682   6.868 -1.7330 -0.1887  0.1906
   33MOL   H17720081   7.697   0.504   6.892 -0.1208  3.5920  1.7304
   33MOL   H17820082   7.573   0.403   6.973  2.5742  0.4032  1.7824
   33MOL   H17920083   7.434   0.418   6.762  0.2189  0.4464  1.0662
   33MOL   H18020084   7.593   0.336   6.741  1.0761  0.9298 -0.3843
   33MOL   H18120085   7.548   0.463   6.559  0.0105  0.8090 -0.7853
   33MOL   H18220086   7.522   0.620   6.643  0.0744  0.3807  0.6987
   33MOL   H18320087   7.755   0.636   6.704 -1.9393  1.6899 -0.7086
   33MOL   H18420088   7.739   0.598   6.535  1.1502 -0.8428 -0.6814
   33MOL   H18520089   0.007   0.469   6.652  2.3548  1.5244 -0.5560
   33MOL   H18620090   0.229   0.701   7.453  1.0628  0.3014  1.8995
   33MOL   H18720091   0.275   0.795   7.320 -1.4703  1.2471 -1.0724
   33MOL   C18820092   0.302   0.898   7.502 -0.8033  0.0684  0.3057
   33MOL   O18920093   0.267   0.902   7.641  0.1633  0.3512  0.2001
   33MOL   C19020094   0.311   0.787   7.717  0.1782  0.1370  0.7276
   33MOL   C19120095   0.244   0.802   0.077 -0.2302 -0.0830  0.2322
   33MOL   C19220096   0.098   0.777   0.085  0.3187  0.4780  0.4708
   33MOL   C19320097   0.045   0.788   0.227  0.0281  0.3763 -0.0446
   33MOL   C19420098   7.678   0.742   0.254 -0.7529  0.0206  0.6851
   33MOL   C19520099   7.626   0.780   0.391 -0.4454 -0.4679  0.2586
   33MOL   C19620100   7.478   0.733   0.420  0.8715 -0.1509  0.0253
   33MOL   C19720101   7.426   0.725   0.564  0.1520  0.0379 -0.0272
   33MOL   C19820102   0.311   1.045   7.448  0.1912  0.6478 -0.2784
   33MOL   H19920103   0.403   0.857   7.502 -1.2738 -1.2220  3.2770
   33MOL   H20020104   0.281   0.692   7.673 -0.1521 -0.4758  2.2381
   33MOL   H20120105   0.418   0.783   7.737  0.9399 -0.7706 -3.1864
   33MOL   H20220106   0.264   0.898   0.124 -0.3625 -0.7541  1.6797
   33MOL   H20320107   0.284   0.731   0.149  2.9585 -0.5968 -1.9381
   33MOL   H20420108   0.039   0.850   0.029  2.1862  1.0790 -0.7690
   33MOL   H20520109   0.076   0.676   0.052 -2.2697  1.1641 -0.0159
   33MOL   H20620110   0.119   0.741   0.293  0.1159  0.4035 -0.1244
   33MOL   H20720111   0.051   0.893   0.253  0.5468 -0.1037  1.9419
   33MOL   H20820112   7.619   0.802   0.185  1.7437 -1.4236 -2.8374
   33MOL   H20920113   7.669   0.639   0.221 -1.2174  0.6967 -1.3679
   33MOL   H21020114   7.640   0.888   0.387 -0.0744 -0.5806 -1.9927
   33MOL   H21120115   7.688   0.735   0.469  1.3301 -0.0585 -0.8996
   33MOL   H21220116   7.421   0.800   0.356  0.2233 -0.4990  0.2334
   33MOL   H21320117   7.454   0.637   0.373 -0.7553 -0.1066  0.7319
   33MOL   H21420118   7.428   0.824   0.609 -1.1156 -0.3266  0.8576
   33MOL   H21520119   7.482   0.658   0.630 -0.0334 -1.7578 -1.6458
   33MOL   H21620120   7.320   0.699   0.570  0.2596 -0.4345 -0.1063
   33MOL   H21720121   0.225   1.108   7.470 -1.6445 -2.7909  3.1533
   33MOL   H21820122   0.377   1.106   7.509 -0.2234  1.8785 -1.0552
   33MOL   C21920123   0.359   1.054   7.304  0.3115  0.4290  0.3825
   33MOL   O22020124   0.492   1.002   7.307 -0.1725 -0.2640  0.5167
   33MOL   C22120125   0.538   0.956   7.184  0.8879 -1.1047  0.4125
   33MOL   C22220126   0.678   0.901   7.191  0.0890  0.0886  0.6019
   33MOL   C22320127   0.778   1.015   7.230 -0.1027  0.1738 -0.6510
   33MOL   C22420128   0.923   0.965   7.255 -0.1293  0.2305  0.1099
   33MOL   C22520129   1.005   1.083   7.296  0.1253 -0.7597  0.3260
   33MOL   C22620130   1.153   1.054   7.329 -0.2251 -0.3546 -0.1157
   33MOL   C22720131   1.164   0.977   7.459  0.2079  0.2663 -0.1489
   33MOL   C22820132   1.300   0.962   7.518  0.1902 -0.7747  0.0476
   33MOL   C22920133   0.369   1.202   7.254  0.3891 -0.7430 -0.0535
   33MOL   H23020134   0.286   0.998   7.246  0.9355 -1.0954  1.0369
   33MOL   H23120135   0.544   1.044   7.120 -1.3300 -2.0872 -1.2294
   33MOL   H23220136   0.467   0.882   7.145 -0.4927  0.7174 -0.6002
   33MOL   H23320137   0.720   0.861   7.099  0.9604  0.8133  0.6784
   33MOL   H23420138   0.684   0.824   7.268  1.9655 -1.7757 -1.3381
   33MOL   H23520139   0.776   1.085   7.147  2.4926  2.0335  0.7830
   33MOL   H23620140   0.738   1.066   7.318  0.3519 -0.6750  0.0661
   33MOL   H23720141   0.911   0.893   7.335 -0.2303 -0.6234 -0.6676
   33MOL   H23820142   0.965   0.926   7.162 -0.6662  2.8866 -1.3081
   33MOL   H23920143   1.005   1.155   7.214 -1.4129  0.6058  1.4736
   33MOL   H24020144   0.948   1.138   7.371  0.0909 -0.7902  0.3209
   33MOL   H24120145   1.228   1.133   7.321 -0.2050  0.0956  3.7819
   33MOL   H24220146   1.179   0.990   7.244 -0.5617 -1.6297  0.7260
   33MOL   H24320147   1.109   1.042   7.528 -0.4595  0.5614 -0.9551
   33MOL   H24420148   1.111   0.883   7.449  1.4336 -0.4817  0.1993
   33MOL   H24520149   1.329   1.060   7.555 -1.3298 -1.0836  2.1318
   33MOL   H24620150   1.376   0.918   7.452  0.9110 -0.8105  0.8949
   33MOL   H24720151   1.313   0.903   7.609 -1.7843 -0.8660  0.2825
   33MOL   H24820152   0.459   1.249   7.294 -0.1204  1.2832 -1.1852
   33MOL   H24920153   0.382   1.199   7.145 -3.7825  1.7063 -0.7303
   33MOL   C25020154   0.254   1.298   7.271  0.3038  0.1263 -0.0398
   33MOL   O25120155   0.169   1.256   7.161  0.0927 -0.1629 -0.1784
   33MOL   C25220156   0.028   1.304   7.166 -0.1602  0.4320 -0.0258
   33MOL   C25320157   7.745   1.304   7.025  0.1264 -0.3708  0.3314
   33MOL   C25420158   7.741   1.164   6.967 -0.0091 -0.2129 -0.4426
   33MOL   C25520159   7.671   1.168   6.829  0.1962  0.2574  0.4186
   33MOL   C25620160   7.675   1.030   6.759 -0.1683  0.3693 -0.5144
   33MOL   C25720161   7.627   1.025   6.614  0.0206 -0.2992  0.5132
   33MOL   C25820162   7.641   0.878   6.557 -0.5459  0.0976  0.1495
   33MOL   C25920163   7.623   0.860   6.404  0.0600  0.3209 -0.3407
   33MOL   C26020164   0.291   1.448   7.249  0.5406 -0.2453 -0.1962
   33MOL   H26120165   0.206   1.292   7.369  0.3050  2.1053  0.1045
   33MOL   H26220166   0.022   1.406   7.204 -1.0682 -0.1669  1.4624
   33MOL   H26320167   7.743   1.250   7.239 -0.2406  1.4562  0.6798
   33MOL   H26420168   0.038   1.359   6.959  1.3407 -0.4733  1.4742
   33MOL   H26520169   7.652   1.360   7.021 -1.6840 -3.2637  0.2305
   33MOL   H26620170   0.069   1.134   6.947  0.8159  1.1384  1.6541
   33MOL   H26720171   7.691   1.097   7.036  1.7072  0.5497  1.5941
   33MOL   H26820172   7.575   1.221   6.833 -0.0997 -0.0712 -1.9762
   33MOL   H26920173   7.744   1.227   6.774  0.0222 -0.3223 -0.4409
   33MOL   H27020174   7.774   0.985   6.767  0.5663  2.3600  2.2614
   33MOL   H27120175   7.613   0.961   6.815  1.4728 -0.6963  0.0086
   33MOL   H27220176   7.672   1.101   6.551 -3.4813  0.9439 -0.6073
   33MOL   H27320177   7.520   1.045   6.613  0.0819 -0.0026 -0.6973
   33MOL   H27420178   7.736   0.838   6.594 -0.3669 -0.5960 -1.0422
   33MOL   H27520179   7.564   0.821   6.609  0.7070 -0.6773  1.1954
   33MOL   H27620180   7.666   0.766   6.369  2.7621  1.3443  0.0557
   33MOL   H27720181   7.684   0.938   6.358  1.0465 -0.7276 -0.8118
   33MOL   H27820182   7.521   0.888   6.380 -0.3428 -2.0016 -1.4249
   33MOL   H27920183   0.370   1.457   7.174 -0.2386  1.7278 -0.8086
   33MOL   H28020184   0.217   1.516   7.208  0.1059  2.3340  4.5337
   33MOL   C28120185   0.342   1.497   7.377 -0.3820 -0.5467  0.1670
   33MOL   O28220186   0.227   1.524   7.453 -0.0120  0.1427 -0.1447
   33MOL   C28320187   0.254   1.531   7.587 -0.0458  0.3800  0.0622
   33MOL   C28420188   0.134   1.479   7.668 -0.1495  0.1626 -0.0790
   33MOL   C28520189   0.149   1.492   0.042 -0.2148 -0.4039  0.2101
   33MOL   C28620190   0.039   1.417   0.116  0.1057 -0.6044  0.6081
   33MOL   C28720191   0.050   1.441   0.264 -0.7970 -0.2451 -0.2759
   33MOL   C28820192   0.177   1.400   0.331  0.6566  0.0180  0.5215
   33MOL   C28920193   0.182   1.437   0.479  0.3736  0.8182  0.4295
   33MOL   C29020194   0.278   1.369   0.573 -0.2526 -0.3139 -0.2893
   33MOL   C29120195   0.418   1.638   7.353 -0.1777  0.6374  0.5839
   33MOL   H29220196   0.406   1.427   7.431  0.7485  1.4589  1.5235
   33MOL   H29320197   0.271   1.638   7.593 -1.6626  0.7124 -1.1624
   33MOL   H29420198   0.339   1.470   7.619 -0.3268  0.3436  0.7461
   33MOL   H29520199   0.135   1.375   7.636 -0.2577 -0.2433  1.1963
   33MOL   H29620200   0.032   1.509   7.645 -0.8312 -1.9104  0.0582
   33MOL   H29720201   0.240   1.445   0.077 -0.0451 -0.5627 -0.4361
   33MOL   H29820202   0.160   1.597   0.069  3.1416 -1.1434  1.9712
   33MOL   H29920203   7.712   1.438   0.082  0.4696  0.7321  0.3308
   33MOL   H30020204   0.053   1.310   0.099 -0.4115 -0.3608 -1.4604
   33MOL   H30120205   0.033   1.545   0.289 -2.4476 -0.6839  0.4875
   33MOL   H30220206   7.744   1.381   0.307  1.0785 -2.2557  0.5345
   33MOL   H30320207   0.256   1.459   0.285  2.2265 -0.8009  2.0738
   33MOL   H30420208   0.199   1.293   0.324  2.1147  0.1497  2.5846
   33MOL   H30520209   0.190   1.545   0.491 -1.4859  0.9214  0.9040
   33MOL   H30620210   0.086   1.417   0.526  1.1188 -0.3351  1.5134
   33MOL   H30720211   0.283   1.263   0.547 -0.2584 -0.5073  0.4776
   33MOL   H30820212   0.254   1.387   0.678  0.4473 -1.4108  0.0673
   33MOL   H30920213   0.374   1.399   0.531  0.3662 -2.9761 -0.9204
   33MOL   H31020214   0.384   1.696   7.267 -0.2800  0.9421  0.8279
   33MOL   H31120215   0.407   1.710   7.434 -0.4580  0.2337  0.9076
   33MOL   C31220216   0.571   1.619   7.333  0.3096  0.0746 -0.1564
   33MOL   O31320217   0.596   1.493   7.273  0.1507  0.0291 -0.6575
   33MOL   C31420218   0.681   1.496   7.154  0.3607 -0.1711  0.7738
   33MOL   C31520219   0.718   1.354   7.123 -0.0692 -0.2911  0.4446
   33MOL   C31620220   0.806   1.338   6.998  0.2972 -0.5317  0.3140
   33MOL   C31720221   0.946   1.404   7.017 -0.5112  0.5330  0.1435
   33MOL   C31820222   1.034   1.386   6.886 -0.4693  0.1631 -0.6995
   33MOL   C31920223   1.174   1.448   6.894  0.7269  0.0594  1.1033
   33MOL   C32020224   1.250   1.423   6.759  0.7564 -0.1556  0.4127
   33MOL   C32120225   1.405   1.439   6.756  0.2312  0.3177 -0.4574
   33MOL   C32220226   0.646   1.611   7.468 -0.4161 -0.0901 -0.2238
   33MOL   H32320227   0.595   1.702   7.266 -2.7455 -0.0627 -1.5221
   33MOL   H32420228   0.761   1.567   7.177  1.1474 -1.2722  1.5424
   33MOL   H32520229   0.614   1.544   7.084 -0.7580  0.6612  2.3731
   33MOL   H32620230   0.628   1.294   7.109 -0.5160  0.5487 -0.2830
   33MOL   H32720231   0.775   1.313   7.207  0.1477  0.6853  0.7776
   33MOL   H32820232   0.814   1.230   6.982 -0.1376 -0.5448  0.1759
   33MOL   H32920233   0.747   1.381   6.916  0.4105 -1.2990 -0.1795
   33MOL   H33020234   0.923   1.508   7.041 -0.0039  0.4549  0.9704
   33MOL   H33120235   0.993   1.354   7.101  0.0835 -2.5864 -1.9357
   33MOL   H33220236   1.046   1.278   6.872  0.8737  0.3348 -1.0060
   33MOL   H33320237   0.976   1.425   6.803 -0.7209  1.7722  0.2044
   33MOL   H33420238   1.221   1.406   6.984 -0.3893  0.8795  2.0861
   33MOL   H33520239   1.169   1.554   6.917  1.3968  0.4028 -0.3246
   33MOL   H33620240   1.242   1.315   6.747  1.2352 -0.0313 -1.0942
   33MOL   H33720241   1.211   1.498   6.690 -0.3501 -1.2363 -0.1647
   33MOL   H33820242   1.441   1.389   6.667  0.5213 -0.0501 -0.1297
   33MOL   H33920243   1.451   1.383   6.836  1.0195  1.1949 -0.2812
   33MOL   H34020244   1.433   1.545   6.756  1.3567  0.0271  0.6701
   33MOL   H34120245   0.616   1.524   7.527 -1.8870  0.3422 -0.3032
   33MOL   H34220246   0.748   1.603   7.433  0.4392  1.6078  1.7135
   33MOL   C34320247   0.652   1.745   7.550  0.5169 -0.8437 -0.4243
   33MOL   O34420248   0.692   1.840   7.456  0.0901  0.1771 -0.2476
   33MOL   C34520249   0.644   1.973   7.485 -0.6594  0.4635  0.1661
   33MOL   C34620250   0.745   2.063   7.416 -0.2111 -1.1560 -0.5039
   33MOL   C34720251   0.892   2.057   7.469  0.4972 -0.3933  0.1100
   33MOL   C34820252   0.986   2.162   7.401  0.3546  0.4895 -0.4435
   33MOL   C34920253   1.036   2.133   7.262  0.3512  0.4179 -0.5700
   33MOL   C35020254   1.110   2.251   7.200  0.3019 -0.5264 -0.7638
   33MOL   C35120255   1.021   2.334   7.109  0.5641  0.1023 -0.5274
   33MOL   C35220256   1.078   2.473   7.066 -0.2765 -0.4520 -0.4291
   33MOL   C35320257   0.751   1.724   7.664  0.5107 -0.3122 -0.1985
   33MOL   H35420258   0.559   1.776   7.598  1.2997  0.4019  0.3050
   33MOL   H35520259   0.633   1.986   7.592 -1.0681 -2.1528  0.4618
   33MOL   H35620260   0.545   1.973   7.440  0.4291  1.0522 -2.3703
   33MOL   H35720261   0.706   2.165   7.419 -0.8061 -1.3784 -0.6077
   33MOL   H35820262   0.737   2.036   7.310  0.0068 -2.5143 -0.1809
   33MOL   H35920263   0.896   2.070   7.577 -0.6639  0.5142  0.0539
   33MOL   H36020264   0.930   1.958   7.445 -1.3829 -1.2550  0.6514
   33MOL   H36120265   0.921   2.250   7.396  0.2222  0.4122 -0.0445
   33MOL   H36220266   1.052   2.202   7.477  0.1283 -1.4524  0.8155
   33MOL   H36320267   1.096   2.043   7.272 -0.9337 -0.4730 -0.7024
   33MOL   H36420268   0.949   2.110   7.200  0.0121 -4.2750  1.3598
   33MOL   H36520269   1.186   2.215   7.131  2.1617  1.8768 -0.0330
   33MOL   H36620270   1.170   2.304   7.273  0.2910  0.3145 -1.3618
   33MOL   H36720271   0.986   2.271   7.028 -0.0066 -0.7024  0.3254
   33MOL   H36820272   0.923   2.352   7.153  0.1826  0.3923 -1.4900
   33MOL   H36920273   1.017   2.499   6.980 -0.9828 -0.6838  0.0011
   33MOL   H37020274   1.184   2.470   7.039 -0.5270 -0.2606 -1.4412
   33MOL   H37120275   1.063   2.545   7.146 -1.9468 -0.1818 -0.9809
   33MOL   H37220276   0.834   1.663   7.631 -0.6825 -1.6107 -0.8390
   33MOL   H37320277   0.786   1.826   7.678 -1.0454  0.2583 -0.2882
   33MOL   C37420278   0.698   1.659   0.016 -1.7191  0.0894 -0.1693
   33MOL   O37520279   0.601   1.755   0.057 -0.1757  0.3459 -0.7852
   33MOL   C37620280   0.493   1.711   0.144 -0.2906  0.3403  0.2171
   33MOL   C37720281   0.428   1.838   0.208  0.7799 -0.4723 -0.1116
   33MOL   C37820282   0.319   1.801   0.307  0.1560  0.4578  0.0162
   33MOL   C37920283   0.246   1.929   0.369 -0.6187  0.3199  0.3527
   33MOL   C38020284   0.135   1.892   0.463 -0.4034 -0.1849  0.3927
   33MOL   C38120285   0.044   2.010   0.519 -0.3297 -0.3268 -0.1404
   33MOL   C38220286   7.722   1.989   0.633  0.1300  0.7414 -0.0600
   33MOL   C38320287   7.586   2.078   0.642 -0.2351  0.4793  0.9023
   33MOL   C38420288   0.801   1.637   0.121  0.4474 -0.1076  0.2344
   33MOL   H38520289   0.655   1.561   7.773 -1.3622 -0.6318  2.7253
   33MOL   H38620290   0.538   1.654   0.226 -0.1661  0.5798  0.3152
   33MOL   H38720291   0.418   1.646   0.098  1.4499 -0.3228 -1.7416
   33MOL   H38820292   0.381   1.900   0.132  2.0394  1.1673  0.4046
   33MOL   H38920293   0.498   1.908   0.255 -0.0994  0.7930 -0.6675
   33MOL   H39020294   0.244   1.744   0.251 -0.8258 -0.5973  2.3405
   33MOL   H39120295   0.348   1.726   0.381 -1.8911 -0.4662 -0.0925
   33MOL   H39220296   0.325   1.984   0.420 -2.1395  2.1345  0.7850
   33MOL   H39320297   0.207   1.995   0.291 -0.8341 -0.5514 -0.2926
   33MOL   H39420298   0.076   1.810   0.421  1.6222 -0.2032 -2.5607
   33MOL   H39520299   0.171   1.849   0.557 -2.3069  1.2589  1.8319
   33MOL   H39620300   7.753   2.034   0.435 -1.1371 -0.7225  0.3770
   33MOL   H39720301   0.095   2.105   0.537  0.3989 -1.3790  3.6330
   33MOL   H39820302   7.699   1.882   0.626  0.8200  0.4805  1.4124
   33MOL   H39920303   0.000   1.978   0.728 -0.3895 -0.1488  0.1347
   33MOL   H40020304   7.522   2.032   0.717 -1.5702 -0.5804 -0.8474
   33MOL   H40120305   7.533   2.073   0.547  0.2502 -3.3283  0.7868
   33MOL   H40220306   7.602   2.181   0.675  0.4590  0.4846  0.5462
   33MOL   H40320307   0.847   1.726   0.163 -1.1969  1.6030 -1.5249
   33MOL   H40420308   0.739   1.596   0.200 -1.3163  1.9872 -0.0347
   33MOL   C40520309   0.918   1.543   0.109  0.4900  0.5478  1.3069
   33MOL   O40620310   0.861   1.422   0.053 -0.5413  0.5198 -0.1147
   33MOL   C40720311   0.949   1.353   7.737  0.2244  0.0739 -0.1114
   33MOL   C40820312   0.903   1.214   7.699  0.3936 -0.1129 -0.1787
   33MOL   C40920313   0.775   1.220   7.612  0.4282  0.3147  1.0915
   33MOL   C41020314   0.697   1.096   7.624 -0.4788  0.4462 -0.3115
   33MOL   C41120315   0.622   1.088   7.760  0.2034 -0.2182 -0.2034
   33MOL   C41220316   0.495   1.179   7.767  0.2482  0.7295  0.1767
   33MOL   C41320317   0.433   1.202   0.131 -0.5800 -0.3884 -0.3404
   33MOL   C41420318   0.495   1.318   0.205  0.1672  0.3894 -0.3241
   33MOL   C41520319   0.977   1.505   0.244  0.3330 -0.2261  0.3819
   33MOL   H41620320   0.996   1.576   0.041 -0.0592  2.9278  1.7655
   33MOL   H41720321   1.054   1.347   7.766 -0.0885 -1.1524  0.8428
   33MOL   H41820322   0.951   1.418   7.650  2.6566  0.6373  0.3136
   33MOL   H41920323   0.881   1.164   0.019 -1.6746  1.1237  0.0238
   33MOL   H42020324   0.978   1.162   7.641  0.1609 -0.7335  0.0759
   33MOL   H42120325   0.715   1.307   7.639  0.9614  0.6305  1.2674
   33MOL   H42220326   0.798   1.240   7.507 -0.0996 -1.4722  0.6304
   33MOL   H42320327   0.635   1.089   7.535 -1.3431 -2.2357  0.4457
   33MOL   H42420328   0.774   1.019   7.617  1.1350  2.0979 -1.0974
   33MOL   H42520329   0.594   0.987   0.014  1.2731 -0.7303 -0.9297
   33MOL   H42620330   0.678   1.140   0.064  0.3223 -1.6062  0.6307
   33MOL   H42720331   0.423   1.123   7.708  1.5427  0.3703 -1.0630
   33MOL   H42820332   0.511   1.270   7.709 -1.6886  0.2533 -1.1656
   33MOL   H42920333   0.328   1.219   0.112 -0.7321  0.6818  1.3698
   33MOL   H43020334   0.434   1.117   0.198 -1.6078 -0.8228 -0.8782
   33MOL   H43120335   0.594   1.290   0.241 -0.2609 -0.8455 -0.0736
   33MOL   H43220336   0.437   1.357   0.288 -1.9406  1.4788 -2.2574
   33MOL   H43320337   0.510   1.396   0.131  0.4318 -0.9672 -1.7469
   33MOL   H43420338   0.901   1.507   0.323  1.4508  0.5350  1.4624
   33MOL   H43520339   1.012   1.402   0.251  0.8861 -0.0401  0.3607
   33MOL   C43620340   1.078   1.604   0.298 -0.7314 -0.2338 -0.1781
   33MOL   O43720341   1.204   1.597   0.224  0.1297 -0.3135 -0.2660
   33MOL   C43820342   1.258   1.724   0.183 -0.3774 -0.0556 -0.1702
   33MOL   C43920343   1.390   1.701   0.109 -0.2897  0.0431 -0.5255
   33MOL   C44020344   1.491   1.638   0.214  0.1770  0.0744  0.1345
   33MOL   C44120345   1.632   1.623   0.155  0.6327  0.1691 -0.1692
   33MOL   C44220346   1.734   1.539   0.233 -0.4520 -0.8172 -0.4455
   33MOL   C44320347   1.883   1.539   0.170  0.7421 -0.1542  0.1529
   33MOL   C44420348   1.974   1.454   0.265 -0.2928 -0.6969 -0.3973
   33MOL   C44520349   1.982   1.505   0.412 -0.2538  0.1039 -0.8855
   33MOL   C44620350   1.111   1.566   0.436 -0.1637 -0.1596 -1.0405
   33MOL   H44720351   1.030   1.702   0.296 -0.3735 -0.0727 -2.2207
   33MOL   H44820352   1.185   1.763   0.112  0.3106  0.3537 -0.6557
   33MOL   H44920353   1.261   1.782   0.275 -0.8660 -2.6351  1.5341
   33MOL   H45020354   1.425   1.797   0.070 -1.2610  0.7600  0.3319
   33MOL   H45120355   1.381   1.623   0.035  0.2381 -0.2459 -0.2901
   33MOL   H45220356   1.495   1.711   0.294  0.4899 -0.0637  0.2446
   33MOL   H45320357   1.452   1.543   0.250 -1.8962  0.5226 -0.8029
   33MOL   H45420358   1.627   1.572   0.059  0.0038 -1.9187  0.9491
   33MOL   H45520359   1.682   1.720   0.144  0.5696  0.4317  1.6659
   33MOL   H45620360   1.725   1.577   0.334 -1.0743 -1.4595 -0.2521
   33MOL   H45720361   1.694   1.437   0.233  0.8912 -1.3575  0.3255
   33MOL   H45820362   1.916   1.641   0.154 -1.3997  0.5860  0.3244
   33MOL   H45920363   1.873   1.483   0.077 -1.4412 -2.3507  1.6252
   33MOL   H46020364   1.935   1.353   0.253 -0.7143 -0.4640 -0.9722
   33MOL   H46120365   2.074   1.447   0.221 -0.1904 -0.7602 -0.1544
   33MOL   H46220366   2.004   1.612   0.415 -0.1711  0.1110 -1.7366
   33MOL   H46320367   2.061   1.460   0.471 -1.9631 -2.4727 -0.4897
   33MOL   H46420368   1.886   1.488   0.461  0.4102 -4.9285 -1.1100
   33MOL   H46520369   1.131   1.459   0.443  0.3570  0.0549  1.5411
   33MOL   H46620370   1.210   1.606   0.454 -1.3479  1.8904  1.3131
   33MOL   C46720371   1.009   1.623   0.538 -0.2701  0.4686 -0.8756
   33MOL   O46820372   0.965   1.759   0.519 -0.2490  0.1454 -0.2480
   33MOL   C46920373   0.841   1.786   0.584 -0.1837  0.0275  0.2525
   33MOL   C47020374   0.813   1.929   0.552  0.1330 -0.2904 -0.2706
   33MOL   C47120375   0.785   1.948   0.408 -0.4563 -0.5724 -0.1447
   33MOL   C47220376   0.732   2.091   0.391 -0.4864 -0.4357 -0.0322
   33MOL   C47320377   0.728   2.135   0.248 -0.1808  0.7063 -0.1221
   33MOL   C47420378   0.669   2.279   0.253 -0.2182  0.1053 -0.5823
   33MOL   C47520379   0.665   2.358   0.120 -0.0957 -0.0239 -0.4117
   33MOL   C47620380   0.609   2.289   7.769  0.0123 -0.3913 -0.3585
   33MOL   C47720381   1.072   1.620   0.677  0.1157 -0.2981  1.0312
   33MOL   H47820382   0.920   1.560   0.536  0.4720 -0.6110 -0.5808
   33MOL   H47920383   0.845   1.765   0.691 -0.1988 -1.5093 -0.0483
   33MOL   H48020384   0.765   1.721   0.542 -0.1461 -0.6189  1.1745
   33MOL   H48120385   0.892   1.996   0.588  1.2784 -2.0059  0.4737
   33MOL   H48220386   0.730   1.953   0.619  0.4177 -1.6601  0.5924
   33MOL   H48320387   0.868   1.942   0.338 -0.0007 -0.1593  0.3569
   33MOL   H48420388   0.708   1.883   0.367 -0.1729 -2.6374  2.4315
   33MOL   H48520389   0.634   2.100   0.437  0.0573 -0.2863  1.1095
   33MOL   H48620390   0.799   2.166   0.433  0.5989 -1.0409 -0.6534
   33MOL   H48720391   0.831   2.138   0.215  0.1012  2.1698  0.8282
   33MOL   H48820392   0.668   2.062   0.194  0.4831  1.5507 -2.0118
   33MOL   H48920393   0.720   2.346   0.322 -1.9235  1.3580 -0.5131
   33MOL   H49020394   0.563   2.275   0.279  0.4867  0.4825  2.4799
   33MOL   H49120395   0.607   2.450   0.131  1.6103  1.1996 -1.5451
   33MOL   H49220396   0.765   2.394   0.098 -1.1227  2.7325 -0.8226
   33MOL   H49320397   0.654   2.199   7.726  0.0633 -0.2171 -0.6634
   33MOL   H49420398   0.621   2.353   7.682  0.5518  1.4542  1.0342
   33MOL   H49520399   0.503   2.265   0.006 -0.3296  0.1198 -2.4368
   33MOL   H49620400   1.160   1.682   0.657 -0.7572  0.1751 -1.5938
   33MOL   H49720401   1.020   1.673   0.757  1.3986  0.6611  1.2507
   33MOL   C49820402   1.127   1.486   0.733  0.6011 -0.4822 -0.2177
   33MOL   O49920403   1.008   1.409   0.765 -0.1100 -0.5748  0.4645
   33MOL   C50020404   1.028   1.265   0.764 -0.3781  0.4113 -0.2024
   33MOL   C50120405   0.889   1.198   0.784 -0.1590  1.2610 -0.0450
   33MOL   C50220406   0.891   1.048   0.789 -0.1265 -0.0626 -0.3769
   33MOL   C50320407   0.919   0.984   0.646  0.0620  0.3072  0.4542
   33MOL   C50420408   0.932   0.829   0.642 -0.1082 -0.4194 -0.3395
   33MOL   C50520409   0.802   0.764   0.694 -0.1031  0.4476 -0.7841
   33MOL   C50620410   0.792   0.613   0.667  1.0532 -0.6726 -0.3629
   33MOL   C50720411   0.683   0.551   0.756  0.6369  0.1987  0.5973
   33MOL   C50820412   1.202   1.508   0.873  0.3922  0.7982 -0.4053
   33MOL   H50920413   1.189   1.431   0.662 -1.1739 -0.6335 -1.6712
   33MOL   H51020414   1.091   1.237   0.848  1.0591 -1.7671 -1.9438
   33MOL   H51120415   1.090   1.232   0.681 -1.4257  0.3238 -0.9590
   33MOL   H51220416   0.829   1.245   0.706  1.9519  2.7443 -0.8411
   33MOL   H51320417   0.843   1.240   0.873  0.2588  1.5769  0.0272
   33MOL   H51420418   0.958   1.011   0.867  0.6041  2.6637  0.3581
   33MOL   H51520419   0.789   1.023   0.816 -1.2354  0.5492 -3.7141
   33MOL   H51620420   0.837   1.018   0.582  1.2318  1.2068 -0.5851
   33MOL   H51720421   1.012   1.026   0.608 -0.6109  1.4049  0.0210
   33MOL   H51820422   0.938   0.807   0.535 -0.4849 -0.8389 -0.2762
   33MOL   H51920423   1.021   0.802   0.700  0.5206 -0.7293 -1.4378
   33MOL   H52020424   0.710   0.818   0.669  0.2785  1.0466 -0.9044
   33MOL   H52120425   0.796   0.769   0.803  0.6790  2.0903 -0.8020
   33MOL   H52220426   0.760   0.597   0.564  0.3905  0.5119 -0.3486
   33MOL   H52320427   0.887   0.566   0.691  1.4929  0.3871 -0.0109
   33MOL   H52420428   0.698   0.556   0.863  0.4459  1.9492  0.5545
   33MOL   H52520429   0.664   0.445   0.737 -2.2047  0.8491 -0.4613
   33MOL   H52620430   0.593   0.610   0.738  0.8738  0.2607 -0.4270
   33MOL   H52720431   1.246   1.607   0.880  0.3791  0.9673 -2.4976
   33MOL   H52820432   1.125   1.513   0.950  1.1618  2.7856  0.2489
   33MOL   C52920433   1.312   1.409   0.907 -0.0550 -0.3513 -0.2355
   33MOL   O53020434   1.313   1.407   1.043 -0.3890 -0.1532  0.4886
   33MOL   C53120435   1.401   1.315   1.101  0.5821 -0.9269  0.8965
   33MOL   C53220436   1.345   1.292   1.243  0.1041 -0.5000  0.4034
   33MOL   C53320437   1.249   1.176   1.260  0.2916  0.3990 -0.3517
   33MOL   C53420438   1.113   1.208   1.203 -0.4128  0.5955 -0.5007
   33MOL   C53520439   1.019   1.091   1.219 -0.1626 -0.9029 -0.0755
   33MOL   C53620440   0.877   1.136   1.180 -0.4058 -0.2187  0.1008
   33MOL   C53720441   0.799   1.198   1.297  0.2646 -0.6185  0.1203
   33MOL   C53820442   0.644   1.197   1.292 -0.3831  0.1440 -0.7185
   33MOL   C53920443   1.460   1.455   0.856  0.1374 -0.4062  0.1074
   33MOL   H54020444   1.280   1.318   0.857  1.3745 -0.0792 -1.6894
   33MOL   H54120445   1.419   1.223   1.044  1.2356  0.0973 -0.5935
   33MOL   H54220446   1.493   1.373   1.115 -0.4461  0.4816  1.8712
   33MOL   H54320447   1.302   1.382   1.287  1.0985 -0.4338  1.2844
   33MOL   H54420448   1.425   1.263   1.312  1.1627 -0.3436 -0.7518
   33MOL   H54520449   1.290   1.083   1.223 -0.9435 -0.4084  0.2742
   33MOL   H54620450   1.242   1.148   1.365  0.5514  1.9046  0.0792
   33MOL   H54720451   1.064   1.293   1.251 -1.3762  0.0396 -0.4839
   33MOL   H54820452   1.120   1.229   1.097  1.3493 -0.5813 -0.6551
   33MOL   H54920453   1.051   1.013   1.151  1.6386  0.2778 -0.6017
   33MOL   H55020454   1.024   1.036   1.313 -3.0001 -0.1860  0.5565
   33MOL   H55120455   0.828   1.039   1.168 -0.3710 -0.5229  2.1375
   33MOL   H55220456   0.869   1.192   1.088 -1.4134  1.4100  1.1528
   33MOL   H55320457   0.831   1.144   1.386  0.1764 -2.4247 -0.9363
   33MOL   H55420458   0.826   1.303   1.310 -2.1373  0.0205  0.1546
   33MOL   H55520459   0.594   1.264   1.363 -4.0716 -1.7815 -1.3691
   33MOL   H55620460   0.613   1.095   1.317  1.0062 -0.4133 -1.2546
   33MOL   H55720461   0.603   1.225   1.195 -0.3788 -0.7065 -0.9726
   33MOL   H55820462   1.493   1.539   0.918 -1.8182 -0.1056  0.7629
   33MOL   H55920463   1.533   1.381   0.889  0.6089  0.5550  1.2884
   33MOL   C56020464   1.479   1.486   0.711 -0.2178  0.3278 -0.3363
   33MOL   O56120465   1.482   1.358   0.655 -0.3424  0.7139 -0.7704
   33MOL   C56220466   1.454   1.371   0.515 -0.0284  0.7927  0.6993
   33MOL   C56320467   1.418   1.227   0.462 -0.7352 -0.6029 -0.5402
   33MOL   C56420468   1.368   1.242   0.317 -0.7936 -0.4080  0.1248
   33MOL   C56520469   1.316   1.106   0.266  0.5260  0.0213  0.7910
   33MOL   C56620470   1.167   1.082   0.295 -0.1938  0.4438  0.2628
   33MOL   C56720471   1.123   0.958   0.212 -0.0846 -0.4697  0.3690
   33MOL   C56820472   0.985   0.913   0.246  0.4969  0.0466 -0.5785
   33MOL   C56920473   0.947   0.779   0.183 -0.4610  0.2989 -0.2481
   33MOL   C57020474   1.611   1.561   0.677  0.0168 -0.5303  0.1172
   33MOL   H57120475   1.393   1.541   0.671  0.1397  1.9736  1.1022
   33MOL   H57220476   1.536   1.407   0.453  0.4746 -3.0033 -0.9670
   33MOL   H57320477   1.371   1.439   0.495  0.5673  1.7724  1.5173
   33MOL   H57420478   1.338   1.173   0.513  0.1569 -0.3858  1.1069
   33MOL   H57520479   1.498   1.153   0.466 -2.0122 -2.0145 -0.4618
   33MOL   H57620480   1.300   1.326   0.301 -0.4495  0.0166  0.8500
   33MOL   H57720481   1.457   1.270   0.260 -2.4308  1.1840 -1.7131
   33MOL   H57820482   1.339   1.107   0.159 -0.5341  1.2681  0.5599
   33MOL   H57920483   1.366   1.018   0.306 -0.1193 -0.8724 -0.3131
   33MOL   H58020484   1.150   1.068   0.402 -0.0854  0.8220  0.3300
   33MOL   H58120485   1.099   1.162   0.264 -0.1900 -0.4865 -2.2875
   33MOL   H58220486   1.193   0.876   0.231  2.7520  1.2601 -2.2087
   33MOL   H58320487   1.143   0.979   0.107  1.1458 -1.8701  0.3012
   33MOL   H58420488   0.968   0.911   0.354  1.2706  1.3351 -0.4342
   33MOL   H58520489   0.912   0.981   0.203 -0.4237  0.6449  1.8427
   33MOL   H58620490   1.025   0.706   0.206 -0.8554  0.4413  1.6117
   33MOL   H58720491   0.932   0.784   0.075 -0.3806 -0.8607 -0.3212
   33MOL   H58820492   0.849   0.744   0.214  0.2281  1.0490  2.8893
   33MOL   H58920493   1.695   1.512   0.727 -1.5346 -1.1291  2.1976
   33MOL   H59020494   1.631   1.554   0.570 -0.0811 -0.5510  0.1002
   33MOL   C59120495   1.610   1.707   0.716  0.2132 -0.2886 -0.4718
   33MOL   O59220496   1.512   1.781   0.640  0.2236  0.0566  0.4234
   33MOL   C59320497   1.435   1.877   0.715  0.3821  0.0365 -0.6573
   33MOL   C59420498   1.363   1.945   0.602 -0.1589 -0.1419 -0.3716
   33MOL   C59520499   1.258   2.046   0.631 -0.1666 -0.8537 -0.1166
   33MOL   C59620500   1.189   2.090   0.500 -0.2107  0.5421 -0.3753
   33MOL   C59720501   1.126   2.229   0.507  0.5764 -0.6613  0.0840
   33MOL   C59820502   1.054   2.273   0.374 -0.4893 -1.1096  0.3227
   33MOL   C59920503   1.159   2.357   0.302 -0.1665 -0.5483 -0.0208
   33MOL   C60020504   1.085   2.412   0.185  0.4630  0.7004 -0.4531
   33MOL   C60120505   1.751   1.776   0.682 -0.4958  0.1998  0.1125
   33MOL   H60220506   1.593   1.720   0.823 -2.8659  0.2339 -0.9672
   33MOL   H60320507   1.483   1.953   0.777 -1.7144  1.1690 -0.3597
   33MOL   H60420508   1.360   1.829   0.777 -0.5123  0.8564 -1.0878
   33MOL   H60520509   1.326   1.862   0.543 -1.4444 -0.0422  0.2692
   33MOL   H60620510   1.439   1.998   0.544  0.1825  0.4983  0.6422
   33MOL   H60720511   1.189   2.002   0.703  2.8015 -0.9271  2.7863
   33MOL   H60820512   1.305   2.130   0.683  0.5679 -1.4984  0.2736
   33MOL   H60920513   1.264   2.082   0.421  0.8205  0.2272  0.6142
   33MOL   H61020514   1.116   2.010   0.486 -1.1835  0.9662  1.9764
   33MOL   H61120515   1.066   2.239   0.597  0.0393 -1.0985 -0.2226
   33MOL   H61220516   1.195   2.310   0.530  0.6574 -1.0281  1.1476
   33MOL   H61320517   0.975   2.341   0.408  0.0899 -1.1114  1.6693
   33MOL   H61420518   1.007   2.192   0.318 -1.8421 -0.5492  0.6016
   33MOL   H61520519   1.210   2.438   0.353  1.8077 -1.1356 -1.0383
   33MOL   H61620520   1.240   2.293   0.265  0.3346  0.3329 -0.4511
   33MOL   H61720521   1.153   2.472   0.123 -0.2820  0.2835 -1.6871
   33MOL   H61820522   1.006   2.482   0.211  0.1419  0.2293 -0.1607
   33MOL   H61920523   1.040   2.335   0.123  0.1321  0.2644  0.3320
   33MOL   H62020524   1.824   1.730   0.748  0.0786 -0.2389 -0.8193
   33MOL   H62120525   1.782   1.768   0.577 -4.3542  1.3523 -1.2119
   33MOL   H62220526   1.756   1.877   0.723  0.4892 -0.2861  1.1996
   34MOL     C120527   5.660   2.968   5.998  0.3425  0.6949 -0.1642
   34MOL     O220528   5.763   2.955   5.902  0.9005  0.2184 -0.2308
   34MOL     C320529   5.864   3.054   5.933  0.7551  0.0877 -0.6120
   34MOL     C420530   5.909   3.130   5.812  0.0157  0.1168 -0.1530
   34MOL     C520531   5.802   3.224   5.752 -0.3972  0.1132  0.3489
   34MOL     C620532   5.855   3.309   5.632 -0.1308 -0.4349  0.9140
   34MOL     C720533   5.747   3.403   5.578  0.5191  0.0466  0.4571
   34MOL     C820534   5.802   3.469   5.445 -1.1903  0.2008  0.3252
   34MOL     C920535   5.731   3.595   5.412 -0.2166  0.3114 -0.7332
   34MOL    C1020536   5.778   3.669   5.286 -0.0435 -0.2438  0.2057
   34MOL    C1120537   5.560   2.853   5.981  0.0086  0.1774 -0.2780
   34MOL    H1220538   5.710   2.945   6.092  1.0323 -1.3804 -1.0098
   34MOL    H1320539   5.953   3.001   5.966  0.6686  0.2106 -0.1731
   34MOL    H1420540   5.829   3.127   6.006  1.4932 -1.5452  1.4347
   34MOL    H1520541   5.943   3.063   5.733  3.2200  0.7046  0.6626
   34MOL    H1620542   5.996   3.191   5.837  3.3062 -3.2265 -2.7263
   34MOL    H1720543   5.711   3.169   5.726 -1.1290  0.8721  1.2642
   34MOL    H1820544   5.768   3.288   5.834  0.9131 -1.0432  1.8287
   34MOL    H1920545   5.933   3.370   5.676 -1.1841  2.0192 -0.4632
   34MOL    H2020546   5.895   3.243   5.554 -0.0195 -0.2117  0.7821
   34MOL    H2120547   5.656   3.346   5.560 -0.4935  1.7634  0.0351
   34MOL    H2220548   5.721   3.470   5.660  0.3682 -1.7934  1.9452
   34MOL    H2320549   5.791   3.403   5.359 -2.0796  0.9853 -0.1730
   34MOL    H2420550   5.909   3.482   5.465 -1.6283  0.3320  2.7504
   34MOL    H2520551   5.625   3.578   5.395 -1.2003  3.2909  1.8964
   34MOL    H2620552   5.743   3.660   5.499 -1.5862  1.6007 -1.4781
   34MOL    H2720553   5.880   3.710   5.282  0.2824 -1.1837 -1.6006
   34MOL    H2820554   5.706   3.748   5.266  0.1331 -0.0816  0.2058
   34MOL    H2920555   5.788   3.609   5.196  0.1362  2.4818 -1.6642
   34MOL    H3020556   5.539   2.839   5.875 -1.0651 -1.6760  0.1633
   34MOL    H3120557   5.607   2.758   6.006 -1.5213 -1.2263 -2.6318
   34MOL    H3220558   5.605   3.062   5.995 -1.5861 -0.4185 -0.7737
   34MOL    C3320559   5.429   2.865   6.065 -0.4986  0.5065  0.0855
   34MOL    O3420560   5.380   3.002   6.067 -0.0272  0.0101  0.2478
   34MOL    C3520561   5.310   3.030   5.945 -0.4129  0.0654  0.4954
   34MOL    C3620562   5.282   3.178   5.939 -0.8169 -0.1870  0.2177
   34MOL    C3720563   5.408   3.255   5.931  0.1962 -0.3592 -0.7311
   34MOL    C3820564   5.403   3.410   5.912  0.6059 -0.3424  0.2111
   34MOL    C3920565   5.336   3.434   5.773  0.3683 -0.1221 -0.7271
   34MOL    C4020566   5.337   3.587   5.743 -0.0377 -0.4810 -0.7724
   34MOL    C4120567   5.279   3.607   5.611  0.1484  0.1638 -0.4723
   34MOL    C4220568   5.193   3.733   5.606 -0.2438 -0.0641 -0.4534
   34MOL    C4320569   5.462   2.842   6.210 -0.1446  0.4866 -0.0262
   34MOL    H4420570   5.360   2.787   6.033  1.9280 -0.8976 -1.9213
   34MOL    H4520571   5.216   2.975   5.943 -1.4824  1.8419 -0.1150
   34MOL    H4620572   5.363   2.997   5.856  0.3342  0.4246  0.8061
   34MOL    H4720573   5.222   3.212   6.024 -0.6950  0.6028 -0.0126
   34MOL    H4820574   5.224   3.198   5.849 -0.7143  1.3250  0.4817
   34MOL    H4920575   5.456   3.225   6.024 -0.8091  0.9376  0.2084
   34MOL    H5020576   5.467   3.213   5.849  0.9326  0.9498 -0.8807
   34MOL    H5120577   5.336   3.450   5.988 -1.8919 -0.5414 -1.8430
   34MOL    H5220578   5.499   3.460   5.924  1.2711 -1.5641  0.1389
   34MOL    H5320579   5.387   3.376   5.696 -0.2415 -0.0323 -1.2054
   34MOL    H5420580   5.232   3.401   5.771  0.1381  0.6325 -1.5001
   34MOL    H5520581   5.435   3.634   5.731 -0.3585  0.1955 -0.7517
   34MOL    H5620582   5.282   3.642   5.819  1.6962  0.4021 -0.1071
   34MOL    H5720583   5.358   3.611   5.536 -0.2285  0.2958 -0.8718
   34MOL    H5820584   5.213   3.522   5.593  0.0055 -0.0768  1.1146
   34MOL    H5920585   5.255   3.822   5.600 -2.4557  1.5073 -0.4657
   34MOL    H6020586   5.115   3.729   5.682 -0.1571 -0.1413 -0.3680
   34MOL    H6120587   5.143   3.733   5.509 -0.1385  0.2594 -0.5039
   34MOL    H6220588   5.535   2.918   6.238 -0.2015  0.4899  0.1133
   34MOL    H6320589   5.371   2.864   6.266 -0.8476  2.7827 -1.9578
   34MOL    C6420590   5.491   2.692   6.251  0.3065  0.0213  0.1730
   34MOL    O6520591   5.372   2.634   6.220 -0.0439  0.4636 -0.3753
   34MOL    C6620592   5.375   2.494   6.184 -0.2715  0.3158 -0.4349
   34MOL    C6720593   5.243   2.455   6.103 -0.1417 -0.4991  0.0758
   34MOL    C6820594   5.228   2.520   5.964 -0.6679  0.0360  0.3486
   34MOL    C6920595   5.124   2.455   5.867 -0.5763  0.0212 -0.6122
   34MOL    C7020596   5.148   2.500   5.720 -0.2303  0.0751  0.1734
   34MOL    C7120597   5.027   2.458   5.629  0.5395  0.1144 -0.0599
   34MOL    C7220598   5.022   2.306   5.599 -0.7161 -0.7902  0.1777
   34MOL    C7320599   5.120   2.265   5.492 -0.6122 -0.2177  0.4702
   34MOL    C7420600   5.520   2.666   6.398 -0.4564 -0.3136 -0.0170
   34MOL    H7520601   5.570   2.647   6.190 -0.9319  2.2355 -3.1508
   34MOL    H7620602   5.400   2.440   6.275  1.5155 -0.6235 -1.4775
   34MOL    H7720603   5.468   2.484   6.129 -0.0712 -0.7601  0.0898
   34MOL    H7820604   5.158   2.475   6.170 -0.9727  0.6589 -1.3010
   34MOL    H7920605   5.250   2.349   6.084  0.4550 -0.4078 -0.2052
   34MOL    H8020606   5.223   2.629   5.963 -1.8780 -0.0151 -1.5709
   34MOL    H8120607   5.328   2.505   5.922 -2.5477 -0.3847 -4.3214
   34MOL    H8220608   5.144   2.348   5.869 -3.3098 -0.4950  0.7639
   34MOL    H8320609   5.022   2.472   5.903 -0.1951 -2.4681  1.8102
   34MOL    H8420610   5.158   2.608   5.709 -0.8689  0.2339  1.1182
   34MOL    H8520611   5.243   2.457   5.688  0.0306  1.1998 -0.5803
   34MOL    H8620612   5.028   2.505   5.531  0.6020  1.3973  0.5467
   34MOL    H8720613   4.935   2.490   5.677 -0.2028 -1.7576 -0.2038
   34MOL    H8820614   5.036   2.255   5.694  4.0153 -0.2162 -0.0598
   34MOL    H8920615   4.924   2.295   5.552 -0.1576  1.8955 -1.7140
   34MOL    H9020616   5.222   2.270   5.529 -0.4313  0.5378 -0.1160
   34MOL    H9120617   5.119   2.329   5.403  1.8437 -0.7934 -0.0189
   34MOL    H9220618   5.085   2.169   5.454 -0.1634 -0.0571 -0.3561
   34MOL    H9320619   5.448   2.715   6.463 -0.1167  1.4813 -0.9482
   34MOL    H9420620   5.527   2.559   6.414 -0.9628 -0.4453 -0.6523
   34MOL    C9520621   5.661   2.719   6.436  0.2744 -0.0475 -0.0341
   34MOL    O9620622   5.747   2.655   6.346  0.5217  0.3545  0.1467
   34MOL    C9720623   5.871   2.715   6.311 -0.6881 -0.0768  0.0677
   34MOL    C9820624   5.937   2.627   6.205 -0.4000  0.1237 -0.2243
   34MOL    C9920625   5.858   2.632   6.066 -0.1289 -0.1701 -0.5155
   34MOL   C10020626   5.956   2.577   5.962  0.3878  0.1695  0.2808
   34MOL   C10120627   5.945   2.644   5.817  1.2747  0.0784  0.3646
   34MOL   C10220628   6.033   2.567   5.710 -0.4143 -0.6388 -0.5996
   34MOL   C10320629   6.019   2.649   5.576 -0.9465 -0.0901  0.2914
   34MOL   C10420630   6.083   2.791   5.576 -0.0799  0.0511  0.2991
   34MOL   C10520631   5.690   2.698   6.586 -0.8025 -0.8629  0.3234
   34MOL   H10620632   5.651   2.824   6.410  0.4135  0.3188  1.3496
   34MOL   H10720633   5.934   2.729   6.399 -1.0220  0.7733  0.1703
   34MOL   H10820634   5.847   2.816   6.279 -0.0375  0.1327  0.2358
   34MOL   H10920635   5.946   2.523   6.237  1.1391  0.2633 -0.1421
   34MOL   H11020636   6.038   2.662   6.183 -1.2009  1.6764 -1.5541
   34MOL   H11120637   5.759   2.587   6.065  0.4628 -1.5190 -2.2893
   34MOL   H11220638   5.840   2.731   6.024 -1.0151 -0.5744 -1.1012
   34MOL   H11320639   6.059   2.603   5.985  0.7814  0.0662 -1.3187
   34MOL   H11420640   5.962   2.468   5.965 -4.5525 -0.2685 -1.2131
   34MOL   H11520641   5.840   2.643   5.788  0.7964  0.6646  2.0518
   34MOL   H11620642   5.971   2.750   5.820  0.2353  0.3344  0.5545
   34MOL   H11720643   6.010   2.462   5.691 -4.2708  0.2752 -1.3797
   34MOL   H11820644   6.140   2.567   5.733 -0.4411  0.3032 -0.4434
   34MOL   H11920645   6.071   2.589   5.501  0.4221  0.7568  0.5349
   34MOL   H12020646   5.913   2.656   5.551 -0.7636 -0.3469 -0.5469
   34MOL   H12120647   6.096   2.825   5.473  2.9963  0.4695  0.7760
   34MOL   H12220648   6.183   2.781   5.618 -0.3083  1.4364  1.1951
   34MOL   H12320649   6.021   2.868   5.622 -0.9245 -0.4411 -0.0030
   34MOL   H12420650   5.692   2.592   6.613  3.2231 -1.2800 -1.1505
   34MOL   H12520651   5.796   2.722   6.597 -0.9707  0.7499 -1.4102
   34MOL   C12620652   5.603   2.770   6.686 -0.6291 -0.6184 -0.2015
   34MOL   O12720653   5.578   2.905   6.639  0.0377 -0.2651 -0.7140
   34MOL   C12820654   5.441   2.949   6.655  0.4290 -0.4884  0.5853
   34MOL   C12920655   5.440   3.062   6.753  0.3453  0.2841 -0.0969
   34MOL   C13020656   5.537   3.174   6.711 -0.5591  0.0499  0.0870
   34MOL   C13120657   5.529   3.298   6.805 -0.4178  0.3585  0.2624
   34MOL   C13220658   5.625   3.415   6.762  0.6629  0.0541  0.0150
   34MOL   C13320659   5.646   3.523   6.868 -0.3884  0.2910 -0.1547
   34MOL   C13420660   5.741   3.638   6.842  1.1268  0.5159 -0.4915
   34MOL   C13520661   5.696   3.707   6.723 -0.3972  0.2340  0.6243
   34MOL   C13620662   5.661   2.782   6.833 -0.7746  0.6079 -0.4506
   34MOL   H13720663   5.512   2.711   6.698 -0.7441 -0.2174  0.9077
   34MOL   H13820664   5.379   2.866   6.690 -0.0790 -0.0487  0.7378
   34MOL   H13920665   5.395   2.982   6.562  0.2387 -1.9429  0.1470
   34MOL   H14020666   5.464   3.015   6.849  0.7359  1.4716  0.3924
   34MOL   H14120667   5.340   3.105   6.762 -0.1429 -1.4589  3.9629
   34MOL   H14220668   5.633   3.127   6.732  0.4154  1.8998 -0.1535
   34MOL   H14320669   5.528   3.199   6.605 -1.9799 -0.6012  0.0308
   34MOL   H14420670   5.426   3.328   6.820 -1.0848 -1.4766 -0.6002
   34MOL   H14520671   5.565   3.259   6.900 -0.1578  1.2615  0.5472
   34MOL   H14620672   5.727   3.387   6.734  0.4041  1.0798 -2.0152
   34MOL   H14720673   5.587   3.461   6.671  0.6562  1.0497  0.5051
   34MOL   H14820674   5.669   3.489   6.969 -1.7895 -2.0944 -0.6065
   34MOL   H14920675   5.549   3.570   6.877  1.0332  3.1916  0.6447
   34MOL   H15020676   5.753   3.708   6.925 -1.7921  0.3540  0.1185
   34MOL   H15120677   5.833   3.582   6.823 -0.3441 -1.6023 -1.4689
   34MOL   H15220678   5.776   3.774   6.690 -1.2379  0.0851 -1.8209
   34MOL   H15320679   5.611   3.770   6.746  1.3517  2.8800  0.0944
   34MOL   H15420680   5.684   3.644   6.635 -2.6142 -1.2308  1.9353
   34MOL   H15520681   5.735   2.862   6.826  0.3683 -0.4147 -0.0984
   34MOL   H15620682   5.580   2.810   6.901  1.0138 -0.3487  2.1211
   34MOL   C15720683   5.730   2.656   6.891  0.9456  0.5984  0.4618
   34MOL   O15820684   5.639   2.547   6.883  0.1121 -0.5620  0.6102
   34MOL   C15920685   5.695   2.415   6.888  0.5705  0.1262  0.2455
   34MOL   C16020686   5.604   2.323   6.969 -0.0976 -0.9554 -0.5006
   34MOL   C16120687   5.604   2.365   7.118 -0.1538 -0.0404  0.2846
   34MOL   C16220688   5.525   2.266   7.206  0.1277  0.1328  0.5309
   34MOL   C16320689   5.429   2.340   7.307 -0.1936  0.4665 -0.5283
   34MOL   C16420690   5.319   2.241   7.354  0.6154  0.3024  0.0546
   34MOL   C16520691   5.222   2.302   7.466  0.3471  0.2747  0.1273
   34MOL   C16620692   5.125   2.195   7.515  0.2707 -0.3210  0.3497
   34MOL   C16720693   5.777   2.674   7.040  0.2887 -0.5233  0.4812
   34MOL   H16820694   5.811   2.629   6.823  0.6646 -1.3743  0.8760
   34MOL   H16920695   5.791   2.428   6.940  0.8375 -0.0860 -0.1986
   34MOL   H17020696   5.727   2.371   6.794  1.2949  1.6937 -0.2725
   34MOL   H17120697   5.643   2.221   6.962  0.4388 -0.6771 -1.5926
   34MOL   H17220698   5.505   2.324   6.923 -0.1727 -0.1830 -0.3207
   34MOL   H17320699   5.704   2.379   7.158 -0.4997 -1.2194  1.6109
   34MOL   H17420700   5.557   2.463   7.115 -0.3514 -0.1398  0.0325
   34MOL   H17520701   5.467   2.197   7.145  0.1787  0.2488  0.3535
   34MOL   H17620702   5.594   2.197   7.255 -1.0142 -1.6627 -0.3377
   34MOL   H17720703   5.490   2.380   7.388 -2.2209  1.4647  0.5483
   34MOL   H17820704   5.380   2.422   7.255  0.7442  0.3894 -1.5405
   34MOL   H17920705   5.371   2.157   7.399  0.1403 -0.6228 -1.1085
   34MOL   H18020706   5.267   2.199   7.268  0.4823 -1.5973  1.0362
   34MOL   H18120707   5.281   2.349   7.546  1.4353 -0.4545 -0.2403
   34MOL   H18220708   5.159   2.376   7.417  0.1200  0.2707  0.4083
   34MOL   H18320709   5.067   2.151   7.434 -0.8688  2.4561 -0.3726
   34MOL   H18420710   5.056   2.234   7.590  0.1695 -2.2271  1.2791
   34MOL   H18520711   5.173   2.110   7.565  0.0511 -0.8027 -0.2525
   34MOL   H18620712   5.697   2.675   7.114  0.3726  2.1135  0.6066
   34MOL   H18720713   5.838   2.587   7.063  0.1343 -0.5016  0.9720
   34MOL   C18820714   5.863   2.799   7.056  0.2759  0.6527  0.0198
   34MOL   O18920715   5.981   2.774   6.987 -0.6651  0.4438  0.7092
   34MOL   C19020716   6.043   2.890   6.938 -0.3563  0.7203  0.5599
   34MOL   C19120717   6.154   2.849   6.837 -0.3803  0.2659  0.3531
   34MOL   C19220718   6.106   2.792   6.707  0.0543 -0.3085  0.8934
   34MOL   C19320719   6.109   2.892   6.593  0.8655  0.1421 -0.3890
   34MOL   C19420720   5.985   2.984   6.589 -0.0628 -0.0601 -0.4965
   34MOL   C19520721   5.953   3.067   6.460 -0.9086 -0.8369  1.1458
   34MOL   C19620722   5.821   3.132   6.472 -0.8780  0.6728 -0.5543
   34MOL   C19720723   5.758   3.176   6.339 -0.0436  0.2350 -0.2241
   34MOL   C19820724   5.896   2.823   7.206  0.4001 -0.3961  0.4458
   34MOL   H19920725   5.816   2.887   7.013 -0.5481  0.1337 -0.1534
   34MOL   H20020726   5.972   2.944   6.875  0.2997 -0.9942 -1.7376
   34MOL   H20120727   6.098   2.944   7.015  0.4521  0.0048  0.4887
   34MOL   H20220728   6.224   2.777   6.880 -1.8627 -1.0330  0.6220
   34MOL   H20320729   6.199   2.946   6.815  0.9445 -0.3533  0.2600
   34MOL   H20420730   6.179   2.720   6.670 -1.7570 -1.3587 -0.7095
   34MOL   H20520731   6.012   2.738   6.714 -0.1797 -0.2469 -1.4774
   34MOL   H20620732   6.201   2.950   6.605  0.4085  1.2741 -2.0956
   34MOL   H20720733   6.124   2.835   6.502  1.0225 -0.5503  0.0715
   34MOL   H20820734   5.901   2.919   6.613 -0.9397 -0.2300 -3.6963
   34MOL   H20920735   6.006   3.058   6.666 -0.9256  0.3883 -0.6832
   34MOL   H21020736   5.935   2.988   6.387  1.6538 -0.3027 -0.1626
   34MOL   H21120737   6.033   3.131   6.423 -0.9231 -1.8738 -0.7346
   34MOL   H21220738   5.748   3.075   6.529 -2.3896  3.0994  0.0124
   34MOL   H21320739   5.846   3.217   6.536  0.2327 -0.0918  0.0530
   34MOL   H21420740   5.675   3.237   6.375  2.3484  3.9234 -0.6598
   34MOL   H21520741   5.726   3.087   6.285  0.2173 -0.4153  0.6940
   34MOL   H21620742   5.829   3.230   6.276 -0.4069  0.3535 -0.5395
   34MOL   H21720743   5.934   2.729   7.247 -0.6024 -0.7012  0.6862
   34MOL   H21820744   5.969   2.904   7.216  1.3501 -0.7337 -3.1312
   34MOL   C21920745   5.779   2.855   7.294  0.7821 -0.0974  0.7727
   34MOL   O22020746   5.724   2.966   7.229  0.0100  0.1796  0.2092
   34MOL   C22120747   5.585   2.968   7.217 -0.4756 -0.4715  0.9605
   34MOL   C22220748   5.538   3.101   7.162  0.0112 -0.7060 -0.1805
   34MOL   C22320749   5.381   3.113   7.183  0.3429  0.0069 -0.1756
   34MOL   C22420750   5.304   3.221   7.096  1.0041 -0.2280 -0.2757
   34MOL   C22520751   5.348   3.368   7.114 -0.5414  0.4590 -0.5040
   34MOL   C22620752   5.317   3.436   7.248 -0.0614 -0.2667 -0.1349
   34MOL   C22720753   5.342   3.586   7.261  0.2485  0.1344 -0.3049
   34MOL   C22820754   5.490   3.631   7.266  0.5488 -1.2338 -0.2592
   34MOL   C22920755   5.819   2.905   7.434  0.2984 -0.0575  0.8865
   34MOL   H23020756   5.712   2.771   7.313  1.5272 -0.7265  0.6297
   34MOL   H23120757   5.544   2.955   7.317  0.6787  0.3220  1.5484
   34MOL   H23220758   5.544   2.884   7.162 -1.2274 -1.9076  3.6225
   34MOL   H23320759   5.567   3.097   7.057 -2.9269 -2.5666 -0.9479
   34MOL   H23420760   5.578   3.195   7.203  0.8894 -0.0898 -2.3767
   34MOL   H23520761   5.354   3.014   7.145  1.2892 -0.6893  0.9344
   34MOL   H23620762   5.366   3.124   7.290  0.8353  2.4203 -0.3391
   34MOL   H23720763   5.315   3.208   6.989  0.3963 -2.3205 -0.1056
   34MOL   H23820764   5.202   3.218   7.135  1.3970 -1.6166  0.7239
   34MOL   H23920765   5.451   3.393   7.089 -0.1866 -1.5958 -1.2362
   34MOL   H24020766   5.311   3.438   7.039 -3.0863 -0.2298  0.0563
   34MOL   H24120767   5.371   3.394   7.333 -1.1042  0.7896  1.0595
   34MOL   H24220768   5.213   3.411   7.269 -0.0585 -1.0932 -1.0624
   34MOL   H24320769   5.279   3.639   7.189  2.3470  0.2283 -2.1051
   34MOL   H24420770   5.295   3.614   7.355  3.5414  3.2927  0.5058
   34MOL   H24520771   5.490   3.738   7.283  0.1933 -1.4204  0.9437
   34MOL   H24620772   5.533   3.610   7.168 -0.8025  1.8555 -1.5728
   34MOL   H24720773   5.554   3.574   7.334  0.8878  0.3649  0.7695
   34MOL   H24820774   5.906   2.969   7.420 -0.0825 -0.1446 -2.2851
   34MOL   H24920775   5.747   2.967   7.489 -1.0377 -0.2961 -0.5683
   34MOL   C25020776   5.881   2.794   7.524  0.1531  0.6581 -0.0259
   34MOL   O25120777   5.817   2.668   7.508 -0.4165 -0.3449 -0.6039
   34MOL   C25220778   5.899   2.553   7.525  0.2712 -0.0569  0.3600
   34MOL   C25320779   5.859   2.446   7.419  0.6827  0.3772  0.4152
   34MOL   C25420780   5.953   2.324   7.404 -0.5504 -0.6889 -0.5639
   34MOL   C25520781   6.092   2.341   7.359  0.2731 -0.4434 -0.2300
   34MOL   C25620782   6.113   2.406   7.223 -0.3947 -0.8157  0.3293
   34MOL   C25720783   6.046   2.338   7.109 -0.0072  0.3118  0.4459
   34MOL   C25820784   6.088   2.401   6.973 -0.4079  1.1686  0.3272
   34MOL   C25920785   6.243   2.411   6.953  1.1414 -0.2336  0.2163
   34MOL   C26020786   5.876   2.819   7.678 -0.1698 -0.2448 -0.1821
   34MOL   H26120787   5.984   2.788   7.489 -0.0243 -3.9440  0.0340
   34MOL   H26220788   5.894   2.511   7.625 -1.7609 -0.6148  0.0468
   34MOL   H26320789   6.002   2.580   7.500  0.4758 -1.8922 -0.8890
   34MOL   H26420790   5.847   2.484   7.317  0.6947  1.1788  0.7064
   34MOL   H26520791   5.757   2.420   7.449 -0.0942  0.6859 -1.8355
   34MOL   H26620792   5.964   2.289   7.507 -0.4708 -1.0074 -0.6813
   34MOL   H26720793   5.905   2.243   7.350 -0.1596 -2.3684  1.5460
   34MOL   H26820794   6.157   2.405   7.418 -1.3664  1.0969 -0.0589
   34MOL   H26920795   6.140   2.244   7.348  1.5690  0.6099 -4.8268
   34MOL   H27020796   6.077   2.509   7.220  0.0832 -0.6513  0.2141
   34MOL   H27120797   6.220   2.421   7.216 -0.1504 -3.0342 -0.9997
   34MOL   H27220798   5.937   2.333   7.105  0.0524 -1.9547  1.0310
   34MOL   H27320799   6.078   2.235   7.122 -3.5592 -0.9310  0.0879
   34MOL   H27420800   6.056   2.330   6.896  0.0364  3.5283 -2.0741
   34MOL   H27520801   6.042   2.498   6.955  0.9375  1.6634 -0.5159
   34MOL   H27620802   6.281   2.511   6.972  1.8052 -0.5863  0.7899
   34MOL   H27720803   6.263   2.399   6.846  1.7376  1.9721  0.0519
   34MOL   H27820804   6.304   2.338   7.007 -0.7360 -1.4133  0.7753
   34MOL   H27920805   5.777   2.836   7.721  0.3903 -1.9732  1.8236
   34MOL   H28020806   5.901   2.727   7.729 -0.8617 -1.1724 -1.4807
   34MOL   C28120807   5.977   2.934   7.723 -0.3430  0.7608 -0.1463
   34MOL   O28220808   6.098   2.858   7.748  0.0191 -0.2659 -0.0201
   34MOL   C28320809   6.218   2.933   7.740 -0.7665 -0.3233  0.1233
   34MOL   C28420810   6.272   2.942   7.590  0.4715 -1.3799 -0.0634
   34MOL   C28520811   6.300   2.807   7.525 -0.2476 -0.9337 -0.3682
   34MOL   C28620812   6.362   2.801   7.386 -0.0210  0.0210 -0.1310
   34MOL   C28720813   6.384   2.659   7.336  0.3161 -0.4315 -0.6279
   34MOL   C28820814   6.481   2.649   7.210 -0.0244  0.3599  0.1979
   34MOL   C28920815   6.435   2.719   7.080  0.8664  0.6804  0.1679
   34MOL   C29020816   6.525   2.679   6.960 -0.2171 -0.0399  0.1786
   34MOL   C29120817   5.922   3.003   0.075 -0.5723 -0.7496  0.3480
   34MOL   H29220818   5.995   3.005   7.643 -1.0034  2.0071  0.7858
   34MOL   H29320819   6.292   2.868   0.012  2.5203  3.2649  0.2442
   34MOL   H29420820   6.211   3.021   0.030 -0.1143 -1.2442  1.4640
   34MOL   H29520821   6.369   2.989   7.603 -0.9744  1.6474  0.2950
   34MOL   H29620822   6.213   3.017   7.537  1.6221 -0.6203 -0.2932
   34MOL   H29720823   6.361   2.744   7.588  0.7679  1.6095  1.2884
   34MOL   H29820824   6.210   2.746   7.526  1.0532 -2.8703  0.5894
   34MOL   H29920825   6.318   2.862   7.307 -0.6973  0.8611  0.8841
   34MOL   H30020826   6.465   2.835   7.393 -0.2674  0.6325  0.5728
   34MOL   H30120827   6.424   2.604   7.422 -0.9116 -1.3773 -0.6473
   34MOL   H30220828   6.290   2.608   7.316 -0.8838  0.3827  2.5829
   34MOL   H30320829   6.481   2.542   7.188 -0.4766  0.7303 -1.7740
   34MOL   H30420830   6.581   2.686   7.228 -0.1278  0.8240 -0.1660
   34MOL   H30520831   6.329   2.703   7.061  0.2296 -0.1324  3.9315
   34MOL   H30620832   6.445   2.827   7.094  1.1615  0.6521  0.1827
   34MOL   H30720833   6.493   2.581   6.923  1.1149 -0.1037 -0.8622
   34MOL   H30820834   6.627   2.683   6.997 -0.5143 -0.6054  1.0779
   34MOL   H30920835   6.523   2.751   6.878 -0.9739 -0.1165  0.1271
   34MOL   H31020836   5.919   2.932   0.158  0.4825 -2.4536 -1.0505
   34MOL   H31120837   5.998   3.074   0.108 -0.2719 -1.7576  1.9097
   34MOL   C31220838   5.795   3.092   0.048 -0.4070 -0.2463  0.4512
   34MOL   O31320839   5.859   3.209   0.006  0.5683  0.2009 -0.1231
   34MOL   C31420840   5.794   3.285   7.675 -0.1657  0.3041 -0.0121
   34MOL   C31520841   5.888   3.385   7.615 -0.0139 -0.1259 -0.5268
   34MOL   C31620842   5.839   3.443   7.477  0.1045 -0.3714 -0.0706
   34MOL   C31720843   5.933   3.550   7.428 -0.0885 -0.0888  0.2359
   34MOL   C31820844   5.882   3.620   7.296 -0.2454  0.2156  0.3525
   34MOL   C31920845   5.960   3.744   7.255  0.1701 -0.3276 -0.3569
   34MOL   C32020846   5.927   3.801   7.118 -0.0780 -0.0269  0.1164
   34MOL   C32120847   6.001   3.936   7.084  0.1162 -0.6402 -0.3001
   34MOL   C32220848   5.707   3.130   0.168  0.3326  0.4471  0.1948
   34MOL   H32320849   5.725   3.048   7.752 -0.6546 -1.7510  1.6191
   34MOL   H32420850   5.699   3.320   7.714 -0.6413 -0.8909 -0.0913
   34MOL   H32520851   5.779   3.209   7.599 -0.1651  0.2293  0.0634
   34MOL   H32620852   5.988   3.349   7.592 -0.2865 -0.4279 -1.2660
   34MOL   H32720853   5.902   3.465   7.688 -0.9904 -1.1878  0.8533
   34MOL   H32820854   5.830   3.361   7.406 -2.5211  0.9506 -1.3213
   34MOL   H32920855   5.742   3.492   7.480 -0.4089 -1.4731  2.5038
   34MOL   H33020856   5.927   3.621   7.510  0.6523 -0.1365  0.3380
   34MOL   H33120857   6.036   3.522   7.406 -0.7322  0.2561 -3.7062
   34MOL   H33220858   5.870   3.554   7.210  0.9205  0.8057 -0.2735
   34MOL   H33320859   5.783   3.657   7.321  0.0882  0.5190  1.2661
   34MOL   H33420860   6.062   3.707   7.248 -0.5421 -2.3610 -0.3765
   34MOL   H33520861   5.952   3.819   7.334 -2.9388 -1.5062  0.5212
   34MOL   H33620862   5.943   3.723   7.044 -1.9935 -1.5417  1.2208
   34MOL   H33720863   5.818   3.813   7.116 -0.0913 -0.2486 -2.4262
   34MOL   H33820864   5.943   3.977   7.001  0.8851  1.8522  0.3319
   34MOL   H33920865   6.104   3.910   7.058  0.7300  0.3177  1.0931
   34MOL   H34020866   6.009   4.003   7.170  3.1857 -1.9183  0.4880
   34MOL   H34120867   5.764   3.175   0.249  0.1363  0.9471  0.0551
   34MOL   H34220868   5.651   3.219   0.140  0.0824  0.2763  0.1528
   34MOL   C34320869   5.627   3.015   0.228 -0.2363 -0.0773 -0.5179
   34MOL   O34420870   5.536   2.974   0.128  0.2825 -0.7490 -0.9964
   34MOL   C34520871   5.477   2.842   0.156 -1.4908 -0.1321  0.2457
   34MOL   C34620872   5.401   2.793   0.032 -0.2085  0.0624 -0.3763
   34MOL   C34720873   5.489   2.789   7.673 -0.0157 -0.2119  0.5820
   34MOL   C34820874   5.420   2.729   7.550  0.2675 -0.2779 -0.5521
   34MOL   C34920875   5.301   2.808   7.502  0.4303 -0.5176 -0.1355
   34MOL   C35020876   5.246   2.744   7.371 -0.3419 -0.6233 -0.4601
   34MOL   C35120877   5.097   2.774   7.340 -0.1473 -0.7760 -0.8867
   34MOL   C35220878   5.061   2.920   7.306 -0.7156  0.6150  0.1343
   34MOL   C35320879   5.578   3.035   0.367 -0.1910 -0.0958  0.3381
   34MOL   H35420880   5.704   2.938   0.232  0.5765  0.7753  0.4933
   34MOL   H35520881   5.419   2.844   0.248 -1.2594  1.2593  0.3768
   34MOL   H35620882   5.553   2.766   0.172 -1.8400 -0.5769 -0.1826
   34MOL   H35720883   5.316   2.850   7.770  0.0763  0.8253  0.1432
   34MOL   H35820884   5.364   2.692   0.052 -0.9591  0.2582 -0.7532
   34MOL   H35920885   5.519   2.893   7.657 -0.5832  0.1197  1.5758
   34MOL   H36020886   5.587   2.741   7.682  0.2522  0.1803 -0.2499
   34MOL   H36120887   5.490   2.707   7.469  0.8651 -1.8853  0.3663
   34MOL   H36220888   5.384   2.628   7.574  0.2844 -0.4104 -1.0882
   34MOL   H36320889   5.230   2.803   7.585 -1.5977  0.4342 -1.7702
   34MOL   H36420890   5.316   2.916   7.495  0.0894 -0.4713 -0.1440
   34MOL   H36520891   5.259   2.636   7.375 -0.2494 -0.5347  2.3114
   34MOL   H36620892   5.301   2.783   7.285 -1.3753 -0.2138 -0.9421
   34MOL   H36720893   5.072   2.727   7.245 -0.3460  3.9257 -3.3056
   34MOL   H36820894   5.030   2.737   7.418 -0.2081 -0.2251 -0.6724
   34MOL   H36920895   5.108   2.990   7.375 -3.5047  2.0424  0.6750
   34MOL   H37020896   4.954   2.939   7.302 -0.3363  2.8417 -0.1377
   34MOL   H37120897   5.097   2.945   7.206  1.5309 -1.3453  0.4110
   34MOL   H37220898   5.553   2.937   0.408 -0.8784  0.1563  0.5311
   34MOL   H37320899   5.664   3.071   0.423 -0.3734 -1.9157  1.8200
   34MOL   C37420900   5.458   3.125   0.386  0.2529 -0.0324 -0.0302
   34MOL   O37520901   5.523   3.250   0.399  0.3246  0.7098 -0.1374
   34MOL   C37620902   5.442   3.363   0.359 -0.1666 -0.8084  0.1744
   34MOL   C37720903   5.540   3.485   0.343  0.4028 -0.1634 -1.2345
   34MOL   C37820904   5.557   3.563   0.476  0.2090  0.3060  0.2750
   34MOL   C37920905   5.643   3.691   0.456  0.0586  0.4552  0.4925
   34MOL   C38020906   5.642   3.786   0.578  0.1584 -0.3714  0.8027
   34MOL   C38120907   5.682   3.928   0.539  0.3786 -0.0456 -0.4062
   34MOL   C38220908   5.806   3.943   0.463 -0.4377 -0.2474 -0.3333
   34MOL   C38320909   5.836   4.084   0.405 -0.3848 -0.8442 -0.3957
   34MOL   C38420910   5.371   3.106   0.507  0.2180 -0.4847 -0.4608
   34MOL   H38520911   5.395   3.114   0.298 -1.2568 -0.5616  1.0985
   34MOL   H38620912   5.357   3.395   0.419 -0.0718  0.4085 -0.3169
   34MOL   H38720913   5.396   3.345   0.262  1.5919  1.4538 -1.1463
   34MOL   H38820914   5.507   3.549   0.262 -1.3218  1.0465  0.3808
   34MOL   H38920915   5.638   3.452   0.307 -0.1687 -1.4368 -1.6551
   34MOL   H39020916   5.455   3.590   0.504 -0.3565  0.9050 -2.2933
   34MOL   H39120917   5.603   3.495   0.549  2.2114  2.7040  1.3258
   34MOL   H39220918   5.747   3.661   0.447  0.3549  0.7565  2.7685
   34MOL   H39320919   5.630   3.737   0.358  0.6267  0.6969  0.5321
   34MOL   H39420920   5.544   3.790   0.625  1.2035  2.0655  2.8340
   34MOL   H39520921   5.717   3.755   0.651  1.2867 -0.8420 -0.5137
   34MOL   H39620922   5.679   3.981   0.633 -0.0712 -1.2716  0.2772
   34MOL   H39720923   5.598   3.963   0.480 -0.5909 -1.1464  0.3019
   34MOL   H39820924   5.886   3.921   0.533 -0.2253  1.9657  0.1560
   34MOL   H39920925   5.808   3.875   0.377 -1.1104  0.0016 -0.5553
   34MOL   H40020926   5.835   4.156   0.487 -1.8924 -0.3460 -0.8335
   34MOL   H40120927   5.764   4.116   0.330  0.7510  0.6931 -0.8681
   34MOL   H40220928   5.935   4.088   0.358  0.0993 -0.7147  0.6161
   34MOL   H40320929   5.434   3.079   0.592  1.0619  1.0165 -0.5948
   34MOL   H40420930   5.311   3.194   0.531  1.7810  0.1192  1.3305
   34MOL   C40520931   5.272   2.987   0.491 -0.2802 -0.3689  0.4662
   34MOL   O40620932   5.163   3.021   0.408  0.1965  0.3745  0.0213
   34MOL   C40720933   5.152   2.963   0.280 -0.3384 -0.2390  0.0322
   34MOL   C40820934   5.012   2.990   0.223 -0.2405  0.4683 -0.2230
   34MOL   C40920935   4.895   2.904   0.268  0.1051 -0.0540  0.7092
   34MOL   C41020936   4.782   2.898   0.174  0.5562  0.3654 -0.1687
   34MOL   C41120937   4.676   2.792   0.217 -0.2930  0.4071  0.0792
   34MOL   C41220938   4.549   2.790   0.130 -0.3228 -0.2675  0.3076
   34MOL   C41320939   4.445   2.676   0.166 -0.1317  0.2130 -0.4174
   34MOL   C41420940   4.318   2.673   0.071  0.1593  0.6939 -0.6548
   34MOL   C41520941   5.213   2.935   0.621 -0.6900  0.1090 -0.9005
   34MOL   H41620942   5.330   2.907   0.444 -0.0755  1.2770 -2.1785
   34MOL   H41720943   5.178   2.857   0.281  1.1398  0.0554 -2.6351
   34MOL   H41820944   5.218   3.017   0.212 -1.6538  0.1380 -0.9782
   34MOL   H41920945   5.035   2.970   0.118  0.9287  1.4286 -0.1719
   34MOL   H42020946   4.982   3.093   0.241 -0.0655  0.4302  0.3098
   34MOL   H42120947   4.923   2.802   0.294 -2.0815 -0.8277  0.1170
   34MOL   H42220948   4.856   2.940   0.364  1.5047  0.8586  0.9481
   34MOL   H42320949   4.724   2.989   0.158 -1.1909 -0.6761  0.0453
   34MOL   H42420950   4.821   2.875   0.075 -2.7862 -1.6478 -1.0960
   34MOL   H42520951   4.716   2.691   0.227 -1.7682 -0.5440 -2.8264
   34MOL   H42620952   4.640   2.817   0.316 -2.1644 -3.3359  0.4459
   34MOL   H42720953   4.572   2.774   0.024 -0.5656  0.6538  0.1174
   34MOL   H42820954   4.488   2.880   0.122  0.4851  0.1434 -1.5365
   34MOL   H42920955   4.505   2.585   0.159 -1.0782 -0.4683  0.3099
   34MOL   H43020956   4.423   2.695   0.271  0.2156 -0.9458 -0.1309
   34MOL   H43120957   4.278   2.772   0.052 -1.3523  0.0362 -0.9992
   34MOL   H43220958   4.240   2.618   0.124  0.6012  0.7052  0.0148
   34MOL   H43320959   4.324   2.619   7.751  0.0894 -0.5688  0.0465
   34MOL   H43420960   5.295   2.909   0.688  0.7012  1.0729 -2.1929
   34MOL   H43520961   5.160   3.014   0.675  1.1568  0.2670  0.7130
   34MOL   C43620962   5.132   2.804   0.605 -0.2062  0.7619  0.3558
   34MOL   O43720963   5.060   2.782   0.720  0.3438 -0.2545  0.6346
   34MOL   C43820964   4.931   2.844   0.730 -0.3423 -0.0093  0.1671
   34MOL   C43920965   4.853   2.755   0.838  0.6875  0.5208 -0.6413
   34MOL   C44020966   4.719   2.814   0.890  0.3234 -0.2529  0.2546
   34MOL   C44120967   4.675   2.766   1.033 -0.2511  0.1265 -0.3307
   34MOL   C44220968   4.554   2.846   1.097  0.6284  0.0382  0.0161
   34MOL   C44320969   4.495   2.778   1.228  0.2740 -0.1195 -0.0009
   34MOL   C44420970   4.388   2.862   1.307 -0.5824  0.0653 -0.2828
   34MOL   C44520971   4.248   2.833   1.272  0.2146 -0.0914  0.1799
   34MOL   C44620972   5.221   2.677   0.595 -0.2545 -0.2626 -0.3315
   34MOL   H44720973   5.067   2.811   0.518  0.0345 -2.7672 -0.1707
   34MOL   H44820974   4.950   2.948   0.759  0.7623 -0.2287  0.2460
   34MOL   H44920975   4.886   2.852   0.631 -2.0868  2.2585  1.1031
   34MOL   H45020976   4.917   2.756   0.926  0.5936 -0.2932 -0.5632
   34MOL   H45120977   4.856   2.649   0.814  1.1302  0.1941  0.8412
   34MOL   H45220978   4.741   2.920   0.903 -0.3818  0.1205 -1.5386
   34MOL   H45320979   4.640   2.782   0.823  2.4670 -2.0193 -1.5240
   34MOL   H45420980   4.643   2.662   1.031  2.3794 -0.7016 -0.3251
   34MOL   H45520981   4.757   2.762   1.104 -2.6909 -0.0638  2.5757
   34MOL   H45620982   4.595   2.945   1.116  0.5909  0.2263 -0.8570
   34MOL   H45720983   4.475   2.840   1.022 -0.5002 -1.7757  1.3128
   34MOL   H45820984   4.573   2.730   1.287 -0.3695 -1.6236 -0.3496
   34MOL   H45920985   4.451   2.684   1.192  0.5559 -0.4970  0.6385
   34MOL   H46020986   4.387   2.856   1.415  1.4381  1.3230 -0.1554
   34MOL   H46120987   4.409   2.967   1.283  0.7054 -0.1884 -0.3096
   34MOL   H46220988   4.232   2.839   1.164  0.5296  0.7138  0.1720
   34MOL   H46320989   4.185   2.915   1.306  0.8979  0.4006  0.2705
   34MOL   H46420990   4.204   2.743   1.315  1.1208  0.4312  2.2760
   34MOL   H46520991   5.309   2.693   0.533  1.5598  0.4672  2.3640
   34MOL   H46620992   5.271   2.655   0.690 -2.6672 -4.1957  0.1878
   34MOL   C46720993   5.147   2.542   0.570  0.4385 -0.0353 -0.4493
   34MOL   O46820994   5.247   2.450   0.530 -0.3684 -0.4173  0.1346
   34MOL   C46920995   5.325   2.393   0.638  0.1035 -0.5373  0.3839
   34MOL   C47020996   5.423   2.290   0.580 -0.3582 -0.0151  0.6326
   34MOL   C47120997   5.517   2.231   0.684 -0.0171 -0.2340  0.1120
   34MOL   C47220998   5.633   2.152   0.637 -0.1735  0.3337  0.5856
   34MOL   C47320999   5.739   2.251   0.596 -1.3063 -0.7285 -0.5553
   34MOL   C47421000   5.867   2.188   0.539 -0.1657  0.3183  0.2159
   34MOL   C47521001   5.970   2.286   0.475 -0.5772 -0.2971  0.0607
   34MOL   C47621002   6.097   2.222   0.418 -0.3569 -0.0413 -0.6999
   34MOL   C47721003   5.039   2.543   0.460 -0.5514 -0.2863  0.3562
   34MOL   H47821004   5.104   2.505   0.663  2.1329 -1.7967 -0.3287
   34MOL   H47921005   5.266   2.353   0.720  1.2534  0.0094  1.4887
   34MOL   H48021006   5.379   2.474   0.688  0.1078 -0.9061  0.9757
   34MOL   H48121007   5.483   2.340   0.504 -2.3135 -0.5103 -1.2958
   34MOL   H48221008   5.363   2.218   0.524 -1.1282  0.9594  0.1813
   34MOL   H48321009   5.542   2.306   0.759 -1.2518  0.7195 -0.4212
   34MOL   H48421010   5.450   2.169   0.744  0.6320 -1.5811 -0.5470
   34MOL   H48521011   5.669   2.095   0.723 -1.6583 -0.1335  0.9050
   34MOL   H48621012   5.601   2.080   0.561 -3.9983  2.4755  0.0942
   34MOL   H48721013   5.700   2.322   0.523  2.0662  0.6650 -1.0795
   34MOL   H48821014   5.779   2.302   0.683 -0.0165 -1.8797 -0.4554
   34MOL   H48921015   5.841   2.115   0.462 -0.0225  2.2448 -1.7199
   34MOL   H49021016   5.927   2.128   0.608 -0.0872  0.9982  0.7400
   34MOL   H49121017   5.915   2.341   0.399  0.9507  0.3822 -0.5747
   34MOL   H49221018   6.001   2.359   0.549  0.4868 -1.0980  0.4160
   34MOL   H49321019   6.179   2.293   0.420 -0.9790  0.6760  1.0001
   34MOL   H49421020   6.073   2.187   0.318  0.2743 -1.1233 -0.4820
   34MOL   H49521021   6.133   2.135   0.473  1.1493  0.5883 -0.6661
   34MOL   H49621022   4.961   2.610   0.496 -0.2843  0.8268 -1.0841
   34MOL   H49721023   5.068   2.590   0.366  1.3941  1.8386  1.9601
   34MOL   C49821024   4.965   2.410   0.436  0.0270 -0.2482  0.0575
   34MOL   O49921025   4.907   2.364   0.560  0.0489 -0.8447 -0.2704
   34MOL   C50021026   4.808   2.258   0.540  0.1584 -0.4028 -0.6935
   34MOL   C50121027   4.774   2.200   0.676  0.0903  0.0444 -0.2950
   34MOL   C50221028   4.753   2.305   0.792  0.5231 -0.1520  0.5894
   34MOL   C50321029   4.773   2.233   0.933 -0.2151  0.6036  0.3797
   34MOL   C50421030   4.712   2.324   1.038 -0.5430  0.5921  0.3125
   34MOL   C50521031   4.739   2.275   1.179 -0.4643 -0.2755  0.1309
   34MOL   C50621032   4.674   2.357   1.295 -0.2797 -0.1670 -0.0934
   34MOL   C50721033   4.711   2.315   1.437  0.2512  0.2444 -0.5920
   34MOL   C50821034   5.044   2.313   0.348 -0.2204 -0.3689  0.3351
   34MOL   H50921035   4.886   2.439   0.367  1.1041  0.3838 -0.9456
   34MOL   H51021036   4.849   2.177   0.479  0.4135 -0.8046 -0.0005
   34MOL   H51121037   4.731   2.302   0.477  0.0004  2.0606  1.1219
   34MOL   H51221038   4.862   2.150   0.716  0.1197 -1.6268 -2.3706
   34MOL   H51321039   4.697   2.123   0.665  1.1711 -0.8716 -1.5006
   34MOL   H51421040   4.814   2.394   0.780  0.9639 -0.5667 -0.2628
   34MOL   H51521041   4.647   2.331   0.794  0.1875 -1.4411 -0.4240
   34MOL   H51621042   4.712   2.143   0.934 -0.4056  0.7323  0.5746
   34MOL   H51721043   4.880   2.224   0.949 -0.5124 -2.2415  1.0741
   34MOL   H51821044   4.755   2.424   1.040 -2.6471  1.5103  0.8045
   34MOL   H51921045   4.604   2.334   1.040 -0.7212 -1.2671  1.2771
   34MOL   H52021046   4.845   2.253   1.194 -0.2913  0.4143 -0.0692
   34MOL   H52121047   4.713   2.171   1.200 -1.1209 -0.3628 -1.0729
   34MOL   H52221048   4.700   2.461   1.278 -0.6261  0.1907  1.4837
   34MOL   H52321049   4.565   2.345   1.289 -0.7095  0.7730  4.0689
   34MOL   H52421050   4.720   2.210   1.464 -0.3915  0.2707 -0.2607
   34MOL   H52521051   4.639   2.356   1.508  1.2362  0.5549  0.2292
   34MOL   H52621052   4.799   2.361   1.480 -0.8252  0.3867  1.5504
   34MOL   H52721053   5.122   2.263   0.405  0.4252  0.6843  0.3751
   34MOL   H52821054   4.982   2.231   0.313 -0.4560 -0.3531  0.7165
   34MOL   C52921055   5.111   2.383   0.227  0.0065  0.1234 -0.2887
   34MOL   O53021056   5.012   2.447   0.141  0.0549  0.4739  0.2927
   34MOL   C53121057   5.041   2.571   0.083  0.0157  0.7078 -0.4031
   34MOL   C53221058   4.932   2.606   7.759  0.5204  0.1258 -0.4366
   34MOL   C53321059   4.929   2.496   7.649  0.1193 -0.4510 -0.0023
   34MOL   C53421060   4.829   2.533   7.532  0.5230 -0.3229  0.3515
   34MOL   C53521061   4.677   2.548   7.574  0.1080 -0.1794  0.1749
   34MOL   C53621062   4.598   2.582   7.444 -1.0478 -0.2355  0.3506
   34MOL   C53721063   4.445   2.597   7.474 -0.4399 -0.7783 -0.2778
   34MOL   C53821064   4.367   2.637   7.347 -0.6837 -0.1837 -0.5741
   34MOL   C53921065   5.182   2.282   0.141 -0.7612 -0.4412  0.2670
   34MOL   H54021066   5.187   2.458   0.247 -0.0686 -0.4364  2.2824
   34MOL   H54121067   5.029   2.647   0.160  0.8772  1.7571 -1.2719
   34MOL   H54221068   5.143   2.587   0.046 -0.2534  1.5951 -0.7936
   34MOL   H54321069   4.960   2.704   7.719 -0.2746  0.3933 -0.3516
   34MOL   H54421070   4.840   2.605   0.042  0.5590  1.9726 -0.2982
   34MOL   H54521071   5.031   2.474   7.617  0.0446 -4.3781  2.2091
   34MOL   H54621072   4.904   2.400   7.693 -1.2816  0.9135  2.2457
   34MOL   H54721073   4.868   2.621   7.481  0.5981  0.6881  2.1105
   34MOL   H54821074   4.842   2.450   7.462  0.6877 -0.4949  0.5828
   34MOL   H54921075   4.645   2.458   7.626 -2.3178  0.4837 -0.0828
   34MOL   H55021076   4.673   2.626   7.650  0.1400 -0.5408  0.5505
   34MOL   H55121077   4.626   2.503   7.375  2.5418  1.1019  0.1746
   34MOL   H55221078   4.641   2.674   7.404 -1.3200  0.6946  2.1469
   34MOL   H55321079   4.415   2.502   7.518  0.3766  0.2130  2.5260
   34MOL   H55421080   4.451   2.669   7.556  1.3554  0.2867 -1.2969
   34MOL   H55521081   4.363   2.565   7.265  1.0300 -3.4225  2.0488
   34MOL   H55621082   4.406   2.727   7.300 -0.1530  0.4094  0.9634
   34MOL   H55721083   4.263   2.652   7.376  0.2078 -1.9409  4.0175
   34MOL   H55821084   5.120   2.192   0.146 -0.4861 -0.6280  0.3754
   34MOL   H55921085   5.180   2.314   0.037  1.5503 -0.3630  0.2065
   34MOL   C56021086   5.327   2.234   0.174  0.5930  0.4119 -0.1507
   34MOL   O56121087   5.418   2.337   0.128  0.0392 -0.6076  0.2056
   34MOL   C56221088   5.530   2.345   0.212 -0.0603 -0.0305  0.2663
   34MOL   C56321089   5.655   2.375   0.131  0.1329  0.6623  0.3268
   34MOL   C56421090   5.693   2.254   0.042 -0.1713 -0.2451 -0.4384
   34MOL   C56521091   5.615   2.270   7.682 -0.4159 -0.1651  0.2599
   34MOL   C56621092   5.680   2.174   7.575 -0.0553  0.2608 -0.6748
   34MOL   C56721093   5.612   2.040   7.593  0.9545 -0.0271  0.1087
   34MOL   C56821094   5.660   1.932   7.496  0.3458 -0.3810  0.2998
   34MOL   C56921095   5.570   1.806   7.500 -0.0474  0.2408  0.3924
   34MOL   C57021096   5.359   2.100   0.111  0.0997  0.0585 -0.1278
   34MOL   H57121097   5.335   2.216   0.281 -1.9571  2.4948  0.4514
   34MOL   H57221098   5.545   2.254   0.269 -0.5879  0.3377  0.9927
   34MOL   H57321099   5.519   2.430   0.279 -0.5008  1.5835 -1.7840
   34MOL   H57421100   5.734   2.402   0.200  0.9565 -0.0998 -0.3009
   34MOL   H57521101   5.649   2.461   0.064 -0.0352  0.5381  0.1816
   34MOL   H57621102   5.800   2.264   0.030 -0.2638  1.0281 -0.2866
   34MOL   H57721103   5.674   2.158   0.091  1.4859 -0.8018 -0.8587
   34MOL   H57821104   5.509   2.250   7.699 -0.1351 -0.9069  1.2116
   34MOL   H57921105   5.626   2.370   7.640 -2.9212  0.6061  1.3231
   34MOL   H58021106   5.658   2.198   7.471  0.3673 -1.1650 -1.1155
   34MOL   H58121107   5.789   2.166   7.583 -0.3710 -1.0924  3.9849
   34MOL   H58221108   5.505   2.060   7.593  1.3033  1.8976  1.5267
   34MOL   H58321109   5.621   1.998   7.693  2.0917 -1.3918 -0.5416
   34MOL   H58421110   5.667   1.978   7.398  2.2178  1.8644  1.4517
   34MOL   H58521111   5.762   1.901   7.516  0.1659  0.3733  2.5513
   34MOL   H58621112   5.470   1.823   7.459 -0.2091 -1.5918 -0.0485
   34MOL   H58721113   5.575   1.751   7.594  0.7975  0.0728  0.2482
   34MOL   H58821114   5.598   1.727   7.430  1.6032  0.8828  0.3101
   34MOL   H58921115   5.348   2.126   0.005 -2.0704 -1.9835 -0.4387
   34MOL   H59021116   5.464   2.077   0.129  0.2355 -0.2696 -1.3016
   34MOL   C59121117   5.267   1.979   0.146 -0.1371 -0.7898  0.1751
   34MOL   O59221118   5.289   1.935   0.279  0.4313  0.9730 -0.5072
   34MOL   C59321119   5.173   1.925   0.369  0.0395  0.0576  0.1331
   34MOL   C59421120   5.205   1.906   0.513 -0.3223  0.0336  0.2651
   34MOL   C59521121   5.146   2.019   0.605  0.0716  0.0718 -0.3342
   34MOL   C59621122   5.186   2.020   0.752 -0.4608  0.5291  0.0922
   34MOL   C59721123   5.129   1.905   0.836 -0.0581 -0.6296  0.5121
   34MOL   C59821124   5.179   1.916   0.976 -0.1877 -1.1028 -0.1589
   34MOL   C59921125   5.175   1.789   1.062  0.3661 -0.0626  0.6882
   34MOL   C60021126   5.044   1.709   1.065 -0.2951 -0.2992  0.5185
   34MOL   C60121127   5.292   1.872   0.041 -0.1953 -0.2989  0.8706
   34MOL   H60221128   5.161   2.005   0.137 -0.4302 -2.1131 -0.3195
   34MOL   H60321129   5.109   1.848   0.326 -0.3730 -0.2015  1.2067
   34MOL   H60421130   5.128   2.024   0.358  1.2974  0.4984 -1.2507
   34MOL   H60521131   5.313   1.899   0.523 -0.4234 -1.0110  0.6440
   34MOL   H60621132   5.173   1.805   0.540 -0.6293 -0.1817 -0.8732
   34MOL   H60721133   5.167   2.116   0.561  1.2346 -0.7559 -1.6369
   34MOL   H60821134   5.038   2.027   0.590 -0.0344  0.8053  0.8162
   34MOL   H60921135   5.295   2.018   0.758 -0.4534  0.1687 -0.1641
   34MOL   H61021136   5.144   2.109   0.799 -1.2115  1.0612 -1.5320
   34MOL   H61121137   5.021   1.895   0.832 -0.2015  0.8092  0.2225
   34MOL   H61221138   5.163   1.808   0.798 -0.7090 -0.3929 -0.7125
   34MOL   H61321139   5.111   1.984   1.028  0.3469 -1.0185  0.4457
   34MOL   H61421140   5.279   1.959   0.984  0.0539 -1.9125  1.5094
   34MOL   H61521141   5.260   1.724   1.039  0.8330  0.8395 -0.1458
   34MOL   H61621142   5.196   1.833   1.160  0.1518  0.6200  0.4317
   34MOL   H61721143   5.043   1.640   0.981  1.9809  1.3988 -0.9550
   34MOL   H61821144   4.963   1.777   1.038  0.1893  0.8414  1.8837
   34MOL   H61921145   5.026   1.651   1.155 -0.8440 -0.9115  0.0232
   34MOL   H62021146   5.245   1.781   0.079 -0.5169 -1.4207 -2.0437
   34MOL   H62121147   5.272   1.898   7.711  0.6362 -0.7454  0.5960
   34MOL   H62221148   5.398   1.848   0.036  0.2584  1.9757 -1.5127
   35MOL     C121149   2.299   1.193   3.236 -0.3661 -0.3323 -0.6125
   35MOL     O221150   2.294   1.301   3.335 -0.1727  0.2264 -0.2878
   35MOL     C321151   2.264   1.268   3.467 -0.2068 -0.3415 -0.8325
   35MOL     C421152   2.117   1.224   3.502  0.5550 -0.5988 -0.1936
   35MOL     C521153   2.038   1.354   3.515  0.0106  0.2954 -0.0247
   35MOL     C621154   2.008   1.433   3.383  0.1227  0.2142 -0.0787
   35MOL     C721155   1.919   1.359   3.283  0.1442 -0.4544  0.4050
   35MOL     C821156   1.900   1.430   3.149 -0.1518  0.5991 -0.7293
   35MOL     C921157   1.794   1.368   3.057  0.1407  0.2731  0.4080
   35MOL    C1021158   1.799   1.437   2.922  0.5411  0.2896  0.8710
   35MOL    C1121159   2.311   1.253   3.092 -0.0650 -0.0712  0.6782
   35MOL    H1221160   2.377   1.124   3.267 -0.0678 -0.3125 -1.2980
   35MOL    H1321161   2.286   1.352   3.534  0.0319 -1.6044  0.6928
   35MOL    H1421162   2.335   1.190   3.495 -0.0076 -0.1356 -0.7551
   35MOL    H1521163   2.116   1.176   3.600 -2.4832 -1.0011 -0.3793
   35MOL    H1621164   2.081   1.145   3.437  0.8789 -0.9966  0.1089
   35MOL    H1721165   1.942   1.322   3.556  0.6301  0.1466  1.3164
   35MOL    H1821166   2.083   1.412   3.595  2.1605  0.2037 -1.1134
   35MOL    H1921167   1.963   1.531   3.400  1.1028  1.0418 -2.0881
   35MOL    H2021168   2.101   1.454   3.330  0.9465 -1.7515  0.5509
   35MOL    H2121169   1.962   1.260   3.268 -0.6883 -0.4821 -1.9473
   35MOL    H2221170   1.816   1.354   3.318  0.1259 -0.1353  0.4036
   35MOL    H2321171   1.999   1.425   3.103  1.0077 -0.5584  1.8363
   35MOL    H2421172   1.876   1.536   3.153 -0.5213  0.5064 -0.4535
   35MOL    H2521173   1.816   1.262   3.046  0.5698  0.6158 -2.2226
   35MOL    H2621174   1.704   1.384   3.117  0.0367 -1.1425  0.6312
   35MOL    H2721175   1.735   1.386   2.849  2.0840 -2.2548  1.2196
   35MOL    H2821176   1.897   1.434   2.874  0.2797  0.4116  0.3179
   35MOL    H2921177   1.764   1.540   2.927  0.1063  0.2304 -0.5028
   35MOL    H3021178   2.220   1.312   3.080  1.5191  2.2375 -0.4616
   35MOL    H3121179   2.390   1.328   3.084 -0.6560  0.3897 -1.1852
   35MOL    H3221180   2.206   1.136   3.239  0.6224 -1.8799  2.7600
   35MOL    C3321181   2.327   1.143   2.982 -0.0430 -0.3809  0.3769
   35MOL    O3421182   2.445   1.077   3.010  0.2226 -0.1854 -0.5153
   35MOL    C3521183   2.473   0.957   2.939 -0.1267  0.2003 -0.0248
   35MOL    C3621184   2.524   0.854   3.038 -0.0195  0.3926 -0.0980
   35MOL    C3721185   2.571   0.720   2.969 -0.1734 -0.1912 -0.2726
   35MOL    C3821186   2.611   0.616   3.074 -0.1889  0.9142  0.0376
   35MOL    C3921187   2.539   0.478   3.047 -0.0270  0.0134 -0.1031
   35MOL    C4021188   2.451   0.433   3.166 -0.3960  0.2858 -0.2358
   35MOL    C4121189   2.384   0.291   3.144 -0.2395  0.2178 -0.2287
   35MOL    C4221190   2.305   0.266   3.264 -0.1764 -0.1631 -0.6415
   35MOL    C4321191   2.320   1.192   2.830  0.3445 -1.3333 -0.6794
   35MOL    H4421192   2.243   1.075   2.996  0.0965 -1.4627 -3.5391
   35MOL    H4521193   2.532   0.965   2.848  1.6404 -0.7834  0.9964
   35MOL    H4621194   2.380   0.922   2.894 -0.6397  0.3654  0.8835
   35MOL    H4721195   2.446   0.838   3.113  0.5719  0.0085  0.4455
   35MOL    H4821196   2.611   0.888   3.095 -0.8065  0.6935  0.9304
   35MOL    H4921197   2.482   0.689   2.915 -0.7544 -1.7749  1.5313
   35MOL    H5021198   2.656   0.747   2.906 -0.2921  1.5360  0.2909
   35MOL    H5121199   2.717   0.602   3.052 -0.5019 -0.4397 -0.6643
   35MOL    H5221200   2.594   0.658   3.173 -0.6253 -1.3501  0.9392
   35MOL    H5321201   2.477   0.471   2.957  1.1822 -0.3083 -0.9240
   35MOL    H5421202   2.622   0.409   3.032  0.4415  0.3490  0.9594
   35MOL    H5521203   2.370   0.501   3.192  0.5042  1.5590 -0.7710
   35MOL    H5621204   2.519   0.438   3.251  0.5719  0.8785 -1.0327
   35MOL    H5721205   2.316   0.293   3.059  0.2562  0.7592 -0.6243
   35MOL    H5821206   2.458   0.213   3.133  0.7996  1.1696 -0.1127
   35MOL    H5921207   2.362   0.205   3.334  1.3539  1.7308 -0.2016
   35MOL    H6021208   2.217   0.207   3.236  0.7055 -2.1594  0.6580
   35MOL    H6121209   2.266   0.358   3.308  0.5548 -0.6321  1.0376
   35MOL    H6221210   2.383   1.280   2.817 -1.7924  0.0020 -2.5117
   35MOL    H6321211   2.349   1.112   2.763 -1.4094 -3.1093  0.6436
   35MOL    C6421212   2.181   1.234   2.779 -0.6047  0.0355 -0.2240
   35MOL    O6521213   2.115   1.113   2.764  0.0238 -0.3240  0.1067
   35MOL    C6621214   1.978   1.120   2.772  0.4996  0.0033  0.2053
   35MOL    C6721215   1.902   0.989   2.740 -1.0902  1.2861  0.2196
   35MOL    C6821216   1.930   0.933   2.601  0.7326  0.0612 -0.2293
   35MOL    C6921217   1.826   0.831   2.543 -0.3544  0.1650 -0.4967
   35MOL    C7021218   1.814   0.695   2.612 -0.3247 -0.2559 -0.1112
   35MOL    C7121219   1.705   0.604   2.557 -0.2532  0.4257 -0.0544
   35MOL    C7221220   1.702   0.466   2.628 -0.5358 -0.4146 -0.2906
   35MOL    C7321221   1.812   0.370   2.569 -0.0245  0.2147  0.6818
   35MOL    C7421222   2.190   1.305   2.643 -0.5607  1.1233 -0.2130
   35MOL    H7521223   2.130   1.302   2.847 -0.0616  0.9539 -0.7148
   35MOL    H7621224   1.935   1.191   2.702  0.9399 -0.6810 -0.7573
   35MOL    H7721225   1.954   1.161   2.871  1.2514  1.3878 -0.1697
   35MOL    H7821226   1.796   1.009   2.756 -0.6834  2.4249  1.6489
   35MOL    H7921227   1.919   0.921   2.823 -1.5417 -0.0336 -0.7555
   35MOL    H8021228   1.957   1.011   2.529 -0.8215  0.4384 -0.4256
   35MOL    H8121229   2.027   0.883   2.606  0.7609 -0.0448 -1.6354
   35MOL    H8221230   1.726   0.873   2.538 -1.7948 -2.7169  2.3689
   35MOL    H8321231   1.847   0.811   2.438  0.1253  0.3356 -0.4371
   35MOL    H8421232   1.911   0.644   2.616  0.5903  1.3006 -1.4692
   35MOL    H8521233   1.787   0.721   2.714 -1.4804  1.1739 -0.7775
   35MOL    H8621234   1.712   0.592   2.449  0.2099 -0.2269  0.0454
   35MOL    H8721235   1.610   0.654   2.577 -1.0657 -1.4024  0.7527
   35MOL    H8821236   1.717   0.468   2.736  1.8091  0.7259 -0.6042
   35MOL    H8921237   1.610   0.411   2.610 -0.3848 -0.5088 -0.7862
   35MOL    H9021238   1.797   0.373   2.461 -0.5845 -0.1781  0.7455
   35MOL    H9121239   1.796   0.268   2.605 -0.1006 -0.3167 -0.8069
   35MOL    H9221240   1.917   0.395   2.583 -0.2623  1.7834 -0.3381
   35MOL    H9321241   2.230   1.238   2.566 -0.1664 -0.6827  1.5050
   35MOL    H9421242   2.088   1.327   2.609 -0.6213  1.0183 -0.1022
   35MOL    C9521243   2.270   1.436   2.626  0.9963  0.4183  0.4140
   35MOL    O9621244   2.207   1.532   2.714 -0.6395  0.3601  0.5776
   35MOL    C9721245   2.291   1.563   2.830 -0.5271  0.1001  0.5619
   35MOL    C9821246   2.225   1.682   2.910  0.6481  0.0911  0.3600
   35MOL    C9921247   2.223   1.805   2.825 -0.4827 -0.1489 -0.0905
   35MOL   C10021248   2.202   1.929   2.915  0.3446  0.4056 -0.1746
   35MOL   C10121249   2.073   1.919   3.003  0.6839  0.6340 -0.4905
   35MOL   C10221250   2.057   2.034   3.091 -0.2945 -0.6522  1.1386
   35MOL   C10321251   1.945   2.025   3.197 -0.5367  0.3158 -0.5061
   35MOL   C10421252   1.807   2.020   3.137 -0.6535  0.3399  0.4595
   35MOL   C10521253   2.278   1.490   2.488  0.1726 -0.2147 -0.0814
   35MOL   H10621254   2.375   1.424   2.655  1.5021 -0.6892 -1.7268
   35MOL   H10721255   2.390   1.598   2.798  0.3330 -1.1560  1.8050
   35MOL   H10821256   2.296   1.475   2.894 -1.4206 -0.2415  0.1760
   35MOL   H10921257   2.274   1.689   3.007 -0.7273 -2.3882  1.2714
   35MOL   H11021258   2.123   1.652   2.935 -0.0088  0.6035 -1.6279
   35MOL   H11121259   2.322   1.817   2.780 -0.4138 -0.3430  0.0116
   35MOL   H11221260   2.143   1.795   2.752 -0.6684 -0.4835  0.1593
   35MOL   H11321261   2.283   1.951   2.985 -0.6156 -1.6662  1.6764
   35MOL   H11421262   2.196   2.016   2.850 -0.6929 -1.0417 -2.0845
   35MOL   H11521263   1.990   1.912   2.933  0.9844  0.4916 -0.8322
   35MOL   H11621264   2.068   1.834   3.071 -2.0909  0.9102 -0.2808
   35MOL   H11721265   2.037   2.125   3.034 -0.6703 -0.7933  1.0417
   35MOL   H11821266   2.157   2.044   3.134 -0.4029  0.2091  1.1906
   35MOL   H11921267   1.958   1.938   3.261  0.2338 -0.4444 -1.6617
   35MOL   H12021268   1.963   2.114   3.257  1.8677 -1.4144  1.4557
   35MOL   H12121269   1.770   2.094   3.066 -0.7481  0.2325  0.3975
   35MOL   H12221270   1.735   2.015   3.219 -2.6825 -0.4454 -1.3344
   35MOL   H12321271   1.792   1.917   3.104  0.6526 -0.6108  2.6966
   35MOL   H12421272   2.317   1.416   2.417  1.0839  1.5109 -1.4209
   35MOL   H12521273   2.183   1.510   2.439  1.2492 -0.0100 -2.1437
   35MOL   C12621274   2.347   1.623   2.476 -0.3542 -0.1108  0.5827
   35MOL   O12721275   2.328   1.674   2.345 -0.1037  0.0346  0.5117
   35MOL   C12821276   2.308   1.816   2.338 -0.3475  0.0853 -0.4987
   35MOL   C12921277   2.278   1.840   2.193  0.3059  0.0951 -0.5123
   35MOL   C13021278   2.271   1.993   2.168  0.0523  0.2073 -0.2484
   35MOL   C13121279   2.216   2.015   2.024  0.2305  0.9295 -0.1106
   35MOL   C13221280   2.230   2.163   1.983 -0.0716 -0.4601  0.3750
   35MOL   C13321281   2.371   2.221   1.980  0.4854  0.0017 -1.1319
   35MOL   C13421282   2.367   2.368   1.929 -0.8161 -0.2929 -0.0548
   35MOL   C13521283   2.504   2.428   1.933  0.9069 -0.5882  0.1722
   35MOL   C13621284   2.497   1.625   2.518  0.4147  0.9516 -1.4332
   35MOL   H13721285   2.290   1.692   2.538 -0.0153  0.9684 -0.2868
   35MOL   H13821286   2.393   1.868   2.382 -0.6128  0.4393 -0.4033
   35MOL   H13921287   2.216   1.854   2.382  0.4807  2.7496 -0.9814
   35MOL   H14021288   2.189   1.787   2.160 -0.1467  0.5845 -0.0890
   35MOL   H14121289   2.362   1.796   2.141  0.9785 -0.1597  0.7781
   35MOL   H14221290   2.196   2.040   2.232  0.7883  1.8951 -0.5964
   35MOL   H14321291   2.368   2.038   2.190  0.4273  0.0911 -1.6152
   35MOL   H14421292   2.269   1.945   1.959 -1.9496 -0.7259 -0.1565
   35MOL   H14521293   2.110   1.992   2.021  0.5497 -0.5816 -0.1431
   35MOL   H14621294   2.189   2.190   1.886 -1.1020  0.1981  0.9931
   35MOL   H14721295   2.177   2.210   2.066  0.0180 -1.6147  1.0973
   35MOL   H14821296   2.433   2.163   1.911  1.1722 -0.5432 -0.0740
   35MOL   H14921297   2.419   2.221   2.077 -0.4862  0.0651 -0.6416
   35MOL   H15021298   2.327   2.386   1.829  0.0789 -0.7917 -0.5075
   35MOL   H15121299   2.296   2.426   1.989  0.5761  1.7881 -0.4063
   35MOL   H15221300   2.546   2.441   1.833 -1.9132 -2.3838 -1.2876
   35MOL   H15321301   2.578   2.364   1.981  1.3256 -0.4190 -0.2479
   35MOL   H15421302   2.508   2.519   1.993  2.1878  0.2568 -1.1558
   35MOL   H15521303   2.517   1.732   2.511  0.7551  1.0708  0.8343
   35MOL   H15621304   2.509   1.597   2.623 -0.2349  1.5963 -1.1804
   35MOL   C15721305   2.591   1.537   2.434 -0.3053 -0.3685  0.1474
   35MOL   O15821306   2.587   1.405   2.494  0.3048 -0.3689 -0.1939
   35MOL   C15921307   2.640   1.306   2.412 -0.2224  0.4921 -0.0315
   35MOL   C16021308   2.604   1.155   2.453  0.1568 -0.5727 -0.2793
   35MOL   C16121309   2.670   1.041   2.370  0.1879  0.0807  0.0002
   35MOL   C16221310   2.628   1.046   2.221  0.1383  0.2022  0.3580
   35MOL   C16321311   2.682   0.923   2.129 -0.1404  0.1209 -0.6679
   35MOL   C16421312   2.651   0.938   1.980 -0.3020 -0.8669  0.0070
   35MOL   C16521313   2.702   0.815   1.903  0.6740  0.1306  0.1959
   35MOL   C16621314   2.678   0.821   1.744  0.0461  0.1898  0.2158
   35MOL   C16721315   2.734   1.589   2.448 -0.0403  0.0036  0.5892
   35MOL   H16821316   2.550   1.532   2.334 -1.6135  0.0885  0.6487
   35MOL   H16921317   2.749   1.312   2.414 -0.0575 -2.0292 -0.2369
   35MOL   H17021318   2.625   1.329   2.307 -0.5887 -4.0223 -1.0602
   35MOL   H17121319   2.496   1.140   2.456  0.2516 -1.3507 -0.6478
   35MOL   H17221320   2.624   1.136   2.558 -1.8623 -1.2810 -0.0003
   35MOL   H17321321   2.777   1.037   2.392  0.2474  1.8007  0.0880
   35MOL   H17421322   2.635   0.947   2.414  2.1436 -1.0790 -0.8338
   35MOL   H17521323   2.523   1.073   2.214  0.2221  0.3384 -0.4303
   35MOL   H17621324   2.684   1.129   2.179 -1.0296 -0.0301 -1.7547
   35MOL   H17721325   2.789   0.911   2.147 -0.6380  0.4873  2.8328
   35MOL   H17821326   2.626   0.840   2.172 -0.3701  0.5411 -0.1554
   35MOL   H17921327   2.679   1.038   1.945 -1.3126 -0.5841 -0.0254
   35MOL   H18021328   2.543   0.948   1.972 -0.1473  0.8750 -0.1095
   35MOL   H18121329   2.804   0.813   1.942  0.9506  1.4450 -0.4056
   35MOL   H18221330   2.661   0.725   1.948  0.4114  1.0696  1.8587
   35MOL   H18321331   2.715   0.732   1.694  0.2125  1.4304 -1.9556
   35MOL   H18421332   2.733   0.905   1.701 -0.0830  0.4616  0.5711
   35MOL   H18521333   2.574   0.820   1.713  0.8549 -1.6040 -2.6295
   35MOL   H18621334   2.727   1.690   2.488  0.0063  0.6885 -1.0806
   35MOL   H18721335   2.787   1.530   2.522 -1.1669  1.6083  2.7308
   35MOL   C18821336   2.814   1.609   2.318 -0.1209 -0.5682 -0.3086
   35MOL   O18921337   2.873   1.480   2.296  0.0326  0.5734  0.1704
   35MOL   C19021338   2.918   1.444   2.168  0.7528 -0.2038 -1.1812
   35MOL   C19121339   3.011   1.327   2.192  0.4419 -0.3914 -0.4892
   35MOL   C19221340   3.101   1.281   2.075 -0.1207 -0.3355  0.7808
   35MOL   C19321341   3.167   1.136   2.075  0.3310 -0.3080 -0.0271
   35MOL   C19421342   3.060   1.027   2.108 -0.1194 -0.2476 -0.0968
   35MOL   C19521343   3.113   0.890   2.149 -0.0819 -0.3105  0.2549
   35MOL   C19621344   3.199   0.878   2.271 -0.0662 -0.6183 -0.8853
   35MOL   C19721345   3.242   0.734   2.300  0.1077  0.2250 -0.4996
   35MOL   C19821346   2.919   1.728   2.311  0.4176  0.3327 -0.4451
   35MOL   H19921347   2.740   1.632   2.241 -1.5784 -0.8648  0.9834
   35MOL   H20021348   2.835   1.423   2.102 -3.0650  0.9185  3.0039
   35MOL   H20121349   2.975   1.527   2.126 -0.1849  0.1768 -1.7007
   35MOL   H20221350   2.948   1.241   2.215 -0.4728 -0.2321 -2.3444
   35MOL   H20321351   3.068   1.342   2.284  0.6636 -0.1126 -0.6707
   35MOL   H20421352   3.059   1.299   1.976  1.5011 -1.6972 -0.1790
   35MOL   H20521353   3.184   1.350   2.084 -0.0852 -0.2540 -0.1062
   35MOL   H20621354   3.221   1.102   1.987 -0.5655 -0.8657 -0.3706
   35MOL   H20721355   3.247   1.142   2.149 -0.9329 -1.9377  1.5265
   35MOL   H20821356   3.003   1.056   2.196  0.7142  0.5327  0.1943
   35MOL   H20921357   2.993   1.009   2.024 -1.6374  0.9613  0.8298
   35MOL   H21021358   3.162   0.838   2.067 -3.3996 -1.6884 -0.9323
   35MOL   H21121359   3.029   0.825   2.174  1.3458 -2.1342  0.3580
   35MOL   H21221360   3.295   0.928   2.261  0.4762 -1.3599  0.3979
   35MOL   H21321361   3.160   0.923   2.362  2.1792 -1.4937  0.5618
   35MOL   H21421362   3.160   0.668   2.327 -0.8021  1.6563  0.3679
   35MOL   H21521363   3.300   0.744   2.392 -2.5585  3.4777  0.9490
   35MOL   H21621364   3.307   0.696   2.222  0.0091  0.6969 -0.8167
   35MOL   H21721365   2.977   1.736   2.402 -1.3611  2.0339  0.5828
   35MOL   H21821366   2.986   1.714   2.226 -0.4957  0.1291 -1.1409
   35MOL   C21921367   2.852   1.865   2.284 -0.7405 -0.3702 -0.2556
   35MOL   O22021368   2.826   1.861   2.150  0.4718 -0.3129 -0.0546
   35MOL   C22121369   2.697   1.898   2.114 -0.0756  0.4652 -0.1977
   35MOL   C22221370   2.695   1.927   1.959 -0.1252  0.1612 -0.2582
   35MOL   C22321371   2.729   2.076   1.930  0.3353 -0.1365 -0.4274
   35MOL   C22421372   2.752   2.077   1.782 -0.6559  0.1612 -0.1383
   35MOL   C22521373   2.796   2.214   1.724  0.3489  0.3652  0.2939
   35MOL   C22621374   2.824   2.210   1.571 -0.3511  0.2824  1.0372
   35MOL   C22721375   2.683   2.213   1.500  0.2403 -0.5957 -0.8132
   35MOL   C22821376   2.620   2.352   1.501  0.7171  0.2050 -0.0423
   35MOL   C22921377   2.947   1.980   2.311  1.2215 -0.2345  0.2464
   35MOL   H23021378   2.759   1.872   2.340 -0.1098  1.5696  0.5667
   35MOL   H23121379   2.645   1.984   2.157 -1.3369  1.1567 -2.9772
   35MOL   H23221380   2.629   1.814   2.127  1.0539 -0.2122  1.4718
   35MOL   H23321381   2.590   1.911   1.935 -0.2233 -1.9468  1.4026
   35MOL   H23421382   2.767   1.864   1.906  2.2940  0.5679  2.4229
   35MOL   H23521383   2.655   2.147   1.967 -0.2333  0.0404 -1.8935
   35MOL   H23621384   2.824   2.096   1.981  0.0188 -1.3797  0.6854
   35MOL   H23721385   2.818   1.998   1.745 -1.3226 -0.9500  0.9846
   35MOL   H23821386   2.656   2.053   1.736 -2.1132 -0.6368  3.1311
   35MOL   H23921387   2.729   2.297   1.747  1.0557  1.2730 -0.9021
   35MOL   H24021388   2.879   2.259   1.778 -0.4046  2.5063 -0.2883
   35MOL   H24121389   2.867   2.115   1.540 -0.5822  1.0439 -1.7584
   35MOL   H24221390   2.901   2.280   1.540  0.4458 -1.3448 -0.7347
   35MOL   H24321391   2.690   2.187   1.394 -0.2383 -2.1521 -0.4820
   35MOL   H24421392   2.603   2.147   1.535  0.6964  0.1086  1.6786
   35MOL   H24521393   2.569   2.383   1.592 -0.9242  0.3251 -0.9763
   35MOL   H24621394   2.544   2.362   1.423  2.7173  0.2034 -2.0435
   35MOL   H24721395   2.698   2.424   1.480 -0.1479  1.4030  0.8313
   35MOL   H24821396   3.033   1.967   2.245  1.0297 -0.1238 -0.0269
   35MOL   H24921397   2.886   2.057   2.266  0.4345 -1.3538 -0.6317
   35MOL   C25021398   2.985   2.018   2.452  0.2261 -0.0393 -0.3121
   35MOL   O25121399   2.860   2.031   2.524 -0.5600 -0.4070 -0.2999
   35MOL   C25221400   2.849   1.929   2.626  0.2499  0.0767  0.5559
   35MOL   C25321401   2.704   1.945   2.673  0.0242  0.2777  0.1297
   35MOL   C25421402   2.675   2.080   2.743  0.4854  0.6792  0.1878
   35MOL   C25521403   2.522   2.106   2.755  0.3536  0.1872 -0.2684
   35MOL   C25621404   2.493   2.249   2.813 -0.1990 -0.4243 -0.1001
   35MOL   C25721405   2.352   2.266   2.854 -0.3207 -0.3153  0.1481
   35MOL   C25821406   2.312   2.402   2.917 -0.7616 -0.6215  0.7054
   35MOL   C25921407   2.183   2.397   3.000 -0.0919  0.3800 -0.3830
   35MOL   C26021408   3.066   2.150   2.454  0.3838  0.6803  0.4405
   35MOL   H26121409   3.041   1.936   2.497 -0.9581 -0.8928 -0.3609
   35MOL   H26221410   2.919   1.952   2.707  2.0550  1.2360 -1.2719
   35MOL   H26321411   2.856   1.831   2.579  0.8317 -0.4193  1.6387
   35MOL   H26421412   2.673   1.862   2.738  1.3601  1.7452  2.7462
   35MOL   H26521413   2.636   1.929   2.589 -1.8864  0.4170  1.5964
   35MOL   H26621414   2.718   2.081   2.843  2.9487 -0.9019 -0.8040
   35MOL   H26721415   2.714   2.167   2.691  1.6711 -0.4166 -0.8061
   35MOL   H26821416   2.471   2.086   2.661  1.0355 -2.4284 -0.1200
   35MOL   H26921417   2.476   2.029   2.817 -0.0791  1.8857  1.6073
   35MOL   H27021418   2.562   2.280   2.892 -0.9806 -0.9839  0.8071
   35MOL   H27121419   2.522   2.316   2.732  1.8235 -1.5117 -0.3142
   35MOL   H27221420   2.345   2.190   2.932  0.3487 -2.2256 -1.6182
   35MOL   H27321421   2.285   2.241   2.772 -1.1655 -0.5395  0.8990
   35MOL   H27421422   2.394   2.432   2.982 -0.4621 -0.3671  0.2124
   35MOL   H27521423   2.312   2.486   2.848 -1.3591 -0.9109  0.3538
   35MOL   H27621424   2.181   2.318   3.075 -0.5040  0.5003 -0.2675
   35MOL   H27721425   2.088   2.380   2.950 -0.2059 -1.0017  0.2871
   35MOL   H27821426   2.170   2.496   3.044 -0.0906  0.1447  0.1430
   35MOL   H27921427   3.153   2.128   2.392 -0.5176 -2.1044  0.1229
   35MOL   H28021428   3.006   2.223   2.399 -1.9638 -1.1365  0.5335
   35MOL   C28121429   3.120   2.212   2.592 -0.3567  0.4604  0.0578
   35MOL   O28221430   3.184   2.104   2.665  0.1966 -0.1026  0.3738
   35MOL   C28321431   3.314   2.119   2.706 -0.4597 -0.1050  0.0559
   35MOL   C28421432   3.417   2.046   2.620  0.6832 -0.2423 -0.3382
   35MOL   C28521433   3.407   1.894   2.637  0.0790  0.9714  0.2440
   35MOL   C28621434   3.496   1.800   2.553  0.3257  0.0964  0.1143
   35MOL   C28721435   3.645   1.799   2.588 -0.3577  0.3398  0.3595
   35MOL   C28821436   3.729   1.717   2.479 -0.2001  0.0528 -0.5333
   35MOL   C28921437   3.875   1.689   2.508  0.2407  0.7192  0.8335
   35MOL   C29021438   3.951   1.630   2.388 -0.0483  0.0148  0.1302
   35MOL   C29121439   3.011   2.267   2.687  0.2539 -0.0893  0.2522
   35MOL   H29221440   3.184   2.295   2.562 -0.4743  0.6898  0.4322
   35MOL   H29321441   3.320   2.094   2.812 -0.3671 -0.9064 -0.1375
   35MOL   H29421442   3.344   2.223   2.692  0.1359 -0.1770  0.7579
   35MOL   H29521443   3.508   2.098   2.650 -0.0752  0.2070  1.1721
   35MOL   H29621444   3.404   2.075   2.515  0.3808 -0.1373 -0.2698
   35MOL   H29721445   3.419   1.876   2.744  1.8294  0.0711 -0.0962
   35MOL   H29821446   3.308   1.858   2.609  0.3251  0.7615 -0.3483
   35MOL   H29921447   3.467   1.697   2.576 -1.9679  1.2908  2.9150
   35MOL   H30021448   3.465   1.828   2.452 -2.1768 -0.8452  0.5703
   35MOL   H30121449   3.684   1.900   2.593  1.9920 -0.4491 -1.4053
   35MOL   H30221450   3.664   1.752   2.685  1.4041 -0.6069 -0.4257
   35MOL   H30321451   3.722   1.774   2.387  1.1532 -1.8556 -1.8354
   35MOL   H30421452   3.676   1.627   2.448  0.0638  0.1805 -1.3571
   35MOL   H30521453   3.923   1.779   2.546  3.8113 -0.3791 -0.8351
   35MOL   H30621454   3.871   1.613   2.585 -2.8565 -1.4976 -1.3753
   35MOL   H30721455   4.049   1.599   2.424 -0.6647 -0.1106  1.7461
   35MOL   H30821456   3.969   1.707   2.313  0.9941  0.1536  0.5185
   35MOL   H30921457   3.902   1.535   2.366  1.4062 -0.4389 -1.2571
   35MOL   H31021458   2.946   2.334   2.629 -2.2082 -3.1599 -0.6976
   35MOL   H31121459   2.946   2.181   2.703  1.4746 -0.8878  0.9398
   35MOL   C31221460   3.063   2.341   2.814 -1.0500 -0.7019 -1.0425
   35MOL   O31321461   3.006   2.311   2.935  0.3524 -0.2250 -0.1675
   35MOL   C31421462   3.029   2.178   2.987  0.2919 -0.3215 -0.3451
   35MOL   C31521463   2.966   2.150   3.126 -0.7634  0.4537  0.1850
   35MOL   C31621464   3.029   2.024   3.199  0.1260  0.2865 -0.2322
   35MOL   C31721465   2.981   2.023   3.343  1.1866 -0.3463 -0.2918
   35MOL   C31821466   3.027   1.890   3.407 -0.5955  0.0508 -0.0756
   35MOL   C31921467   2.995   1.859   3.556 -0.7557 -0.5759  0.2219
   35MOL   C32021468   3.051   1.731   3.600 -0.2447 -0.5260  0.5573
   35MOL   C32121469   3.008   1.703   3.745  0.3390 -0.3545  0.5851
   35MOL   C32221470   3.067   2.497   2.799 -0.1634  0.4455  0.2516
   35MOL   H32321471   3.166   2.308   2.831 -0.4241  1.5121 -0.2472
   35MOL   H32421472   3.136   2.158   2.998  0.5037  0.7640 -0.4371
   35MOL   H32521473   2.994   2.096   2.924 -1.3391 -0.2824  0.4912
   35MOL   H32621474   2.858   2.138   3.120 -0.7929  1.1167 -0.6964
   35MOL   H32721475   2.994   2.246   3.169 -1.5651  0.1713  1.3491
   35MOL   H32821476   3.002   1.934   3.143 -2.8821  0.1451  1.3314
   35MOL   H32921477   3.137   2.032   3.208  0.0856  0.0873  0.3886
   35MOL   H33021478   3.027   2.108   3.395 -0.7831  0.6086 -0.0568
   35MOL   H33121479   2.874   2.028   3.362  1.3469 -0.4287  0.6214
   35MOL   H33221480   2.983   1.804   3.356  1.9392 -1.2009 -0.2517
   35MOL   H33321481   3.136   1.882   3.399 -0.8445 -0.6720 -3.7070
   35MOL   H33421482   2.889   1.861   3.581 -0.1875  0.1881  2.6171
   35MOL   H33521483   3.033   1.934   3.624  1.9081 -2.0485  0.4239
   35MOL   H33621484   2.994   1.654   3.547  1.6616 -1.3911 -0.3045
   35MOL   H33721485   3.158   1.726   3.579 -0.6939  1.2119 -2.4279
   35MOL   H33821486   2.903   1.718   3.767  0.5000  0.3931  0.8503
   35MOL   H33921487   3.078   1.761   3.805  0.2920  2.2609 -1.7877
   35MOL   H34021488   3.019   1.598   3.775  2.0950  0.0563  1.4327
   35MOL   H34121489   3.089   2.524   2.696 -0.6296 -2.4525 -0.6485
   35MOL   H34221490   2.966   2.539   2.802  0.4102  1.7722  3.2589
   35MOL   C34321491   3.158   2.557   2.902 -0.3604  0.3301  0.3372
   35MOL   O34421492   3.106   2.549   3.030  0.1168  0.0557 -0.1493
   35MOL   C34521493   3.194   2.501   3.136  1.0252  0.2499 -0.2423
   35MOL   C34621494   3.131   2.521   3.274 -0.0771  0.0553  0.4328
   35MOL   C34721495   3.235   2.498   3.381 -0.1198 -0.4570  0.8234
   35MOL   C34821496   3.194   2.502   3.530 -0.3554 -0.4643  1.0112
   35MOL   C34921497   3.313   2.472   3.626  0.6198 -0.2658  0.8448
   35MOL   C35021498   3.282   2.529   3.765  0.7761 -0.7822  0.3694
   35MOL   C35121499   3.403   2.508   3.859 -0.3695  0.3070 -0.1700
   35MOL   C35221500   3.385   2.567   3.996 -0.9239 -0.0680  0.4629
   35MOL   C35321501   3.194   2.699   2.869 -0.3525 -0.0056  0.7185
   35MOL   H35421502   3.246   2.492   2.907  0.9498  2.0637  0.4460
   35MOL   H35521503   3.296   2.540   3.128  0.3704  1.6511 -2.1184
   35MOL   H35621504   3.218   2.396   3.115 -0.6962  0.1588 -1.9543
   35MOL   H35721505   3.049   2.450   3.282 -0.5209  0.2780 -1.9954
   35MOL   H35821506   3.088   2.621   3.277 -1.7061 -0.5205 -2.1723
   35MOL   H35921507   3.281   2.401   3.367 -0.6107 -0.6688  0.6664
   35MOL   H36021508   3.316   2.569   3.364  0.2836 -0.4043  2.8930
   35MOL   H36121509   3.171   2.605   3.559 -1.0199 -0.2339 -0.2790
   35MOL   H36221510   3.106   2.445   3.556 -0.9083  0.0561  0.3189
   35MOL   H36321511   3.322   2.364   3.631 -0.0709 -0.4648 -1.5478
   35MOL   H36421512   3.412   2.504   3.594  0.9698 -0.4138  1.7666
   35MOL   H36521513   3.190   2.488   3.805 -0.2908 -1.2987 -2.4741
   35MOL   H36621514   3.275   2.637   3.755  0.2529 -0.9074 -0.6596
   35MOL   H36721515   3.422   2.401   3.867 -1.5360 -0.2129 -3.4868
   35MOL   H36821516   3.486   2.561   3.814  0.8086 -0.7973  0.6371
   35MOL   H36921517   3.439   2.505   4.067  1.7819  0.3047 -1.1844
   35MOL   H37021518   3.279   2.561   4.020 -0.7318 -0.3500  1.2313
   35MOL   H37121519   3.420   2.671   4.000  0.2975 -0.5466  3.2996
   35MOL   H37221520   3.098   2.750   2.865 -1.7327 -2.6248 -1.0520
   35MOL   H37321521   3.235   2.747   2.958  2.1219 -0.2969 -0.1982
   35MOL   C37421522   3.267   2.722   2.725 -0.8399 -0.1436 -0.2336
   35MOL   O37521523   3.406   2.674   2.734 -0.3131  0.4377 -0.0849
   35MOL   C37621524   3.474   2.643   2.612 -0.1439 -0.3099  0.0387
   35MOL   C37721525   3.627   2.651   2.638 -0.0719 -0.1159 -0.1060
   35MOL   C37821526   3.737   2.650   2.528  0.2804  0.6836 -0.3537
   35MOL   C37921527   3.880   2.615   2.574 -1.2692 -0.4352 -0.2436
   35MOL   C38021528   3.890   2.475   2.643  0.0358 -0.1902 -0.1123
   35MOL   C38121529   3.895   2.368   2.536 -0.1079  0.3040  0.9886
   35MOL   C38221530   3.941   2.232   2.572  0.0704  0.0145  0.2973
   35MOL   C38321531   3.893   2.120   2.476  0.0966 -0.0357 -0.5065
   35MOL   C38421532   3.281   2.873   2.693 -0.1235  0.0668 -0.6866
   35MOL   H38521533   3.214   2.681   2.639 -0.7326  0.2946 -0.5102
   35MOL   H38621534   3.463   2.717   2.533 -0.7766  0.6683  1.0320
   35MOL   H38721535   3.434   2.549   2.572  2.4987 -1.1286 -0.7779
   35MOL   H38821536   3.658   2.573   2.708  0.2555 -0.1470 -0.2843
   35MOL   H38921537   3.627   2.744   2.694 -0.7653 -0.1804  0.0119
   35MOL   H39021538   3.711   2.579   2.450 -2.8295  0.7262  0.5749
   35MOL   H39121539   3.749   2.747   2.478 -2.3079  0.8659 -0.7213
   35MOL   H39221540   3.945   2.630   2.488  1.5569  0.3286  1.9389
   35MOL   H39321541   3.901   2.687   2.653 -0.1365  0.0673 -0.9892
   35MOL   H39421542   3.983   2.472   2.700  0.7184  2.5434 -0.9621
   35MOL   H39521543   3.820   2.443   2.720  1.2251 -0.2018  0.9973
   35MOL   H39621544   3.947   2.401   2.446  0.5801 -1.4913  0.7046
   35MOL   H39721545   3.795   2.361   2.492  0.3419 -2.7768  0.3953
   35MOL   H39821546   4.049   2.233   2.585  0.1087 -3.1429  0.5186
   35MOL   H39921547   3.897   2.204   2.668 -1.5189 -0.6262 -0.5859
   35MOL   H40021548   3.790   2.148   2.452 -0.2943  1.7418  2.8551
   35MOL   H40121549   3.885   2.020   2.518 -0.4418  0.0212 -0.4698
   35MOL   H40221550   3.953   2.122   2.386  1.9766  1.1486  0.7389
   35MOL   H40321551   3.333   2.898   2.786  2.2098  1.8603 -2.4368
   35MOL   H40421552   3.355   2.910   2.622 -0.7973  0.4198 -1.2062
   35MOL   C40521553   3.149   2.944   2.665  0.3621  0.7772 -0.1981
   35MOL   O40621554   3.106   2.919   2.533  0.0970 -0.0154 -1.0542
   35MOL   C40721555   2.988   2.855   2.520  0.0675  0.6135  0.0881
   35MOL   C40821556   2.980   2.824   2.367  0.0124 -0.4944  0.0127
   35MOL   C40921557   2.868   2.718   2.347  0.2953  0.6207 -0.2879
   35MOL   C41021558   2.901   2.574   2.402  0.2768  0.4817 -0.6346
   35MOL   C41121559   2.828   2.467   2.318  0.0989 -0.6362 -0.0354
   35MOL   C41221560   2.675   2.470   2.322 -0.2861 -0.1771  0.1399
   35MOL   C41321561   2.615   2.339   2.275  0.5863  0.9372  0.7805
   35MOL   C41421562   2.616   2.236   2.388 -0.0521 -0.3348 -0.1136
   35MOL   C41521563   3.161   3.093   2.699  0.8381 -0.7270  0.1005
   35MOL   H41621564   3.073   2.911   2.736  1.4702 -1.3439  0.0368
   35MOL   H41721565   2.909   2.921   2.554  1.1980  0.5813  2.8983
   35MOL   H41821566   2.985   2.765   2.582  1.8104  0.0680 -0.5883
   35MOL   H41921567   3.079   2.803   2.326 -0.9232  1.9045 -3.7865
   35MOL   H42021568   2.949   2.913   2.313  1.8602  0.0402 -0.1857
   35MOL   H42121569   2.781   2.766   2.392  1.2196  1.6939  0.3908
   35MOL   H42221570   2.854   2.704   2.239  0.2683 -0.6259 -0.1337
   35MOL   H42321571   3.007   2.562   2.385  0.2374 -1.0482  0.0864
   35MOL   H42421572   2.884   2.562   2.510  2.2760  2.2148 -0.1017
   35MOL   H42521573   2.871   2.464   2.218 -0.7547 -1.6419 -0.3816
   35MOL   H42621574   2.848   2.370   2.365  0.4246 -0.7954 -0.5035
   35MOL   H42721575   2.653   2.547   2.248 -0.2247 -0.0198  0.2853
   35MOL   H42821576   2.637   2.501   2.419  2.6826  0.5577  1.1434
   35MOL   H42921577   2.512   2.355   2.242  0.3539 -1.0089  0.4556
   35MOL   H43021578   2.674   2.301   2.191  0.0702  1.0986  0.3411
   35MOL   H43121579   2.559   2.149   2.354 -3.8073  1.5776  1.0511
   35MOL   H43221580   2.565   2.274   2.476 -0.7888 -2.4048  0.3780
   35MOL   H43321581   2.714   2.205   2.424  0.4880  0.3190 -0.9958
   35MOL   H43421582   3.220   3.106   2.790 -1.3767  2.8077  1.1195
   35MOL   H43521583   3.208   3.139   2.612 -0.6850 -1.6521 -1.2388
   35MOL   C43621584   3.030   3.158   2.718  0.1388  0.0484  0.3159
   35MOL   O43721585   3.049   3.289   2.759 -0.7488  0.0682  0.1596
   35MOL   C43821586   3.056   3.394   2.652 -0.0867 -0.0210  0.1987
   35MOL   C43921587   2.915   3.422   2.588  0.3751 -0.1719  0.6483
   35MOL   C44021588   2.809   3.436   2.690 -0.0621  0.3785  0.4467
   35MOL   C44121589   2.679   3.501   2.634 -0.2389  0.2642 -0.3597
   35MOL   C44221590   2.578   3.535   2.747 -0.0631 -0.0792  0.0297
   35MOL   C44321591   2.441   3.587   2.679  0.0222  0.3800  0.1594
   35MOL   C44421592   2.344   3.665   2.766  0.1993  0.2652 -0.0193
   35MOL   C44521593   2.404   3.779   2.848 -0.0551 -0.6713 -0.0605
   35MOL   C44621594   2.934   3.109   2.823  0.3849 -0.3843 -0.0752
   35MOL   H44721595   2.994   3.145   2.616  0.1622  2.5802 -0.0522
   35MOL   H44821596   3.098   3.487   2.690  2.3168 -1.0946  0.2722
   35MOL   H44921597   3.113   3.349   2.571  0.8469 -0.8347  1.2877
   35MOL   H45021598   2.875   3.343   2.525 -1.4610  0.8815  0.4339
   35MOL   H45121599   2.924   3.507   2.521 -0.7999 -1.6830 -1.4932
   35MOL   H45221600   2.780   3.336   2.722  1.6071 -0.7881 -1.5581
   35MOL   H45321601   2.847   3.488   2.778  1.4825 -1.1180  0.7029
   35MOL   H45421602   2.711   3.593   2.585 -1.2946  0.8156 -0.0295
   35MOL   H45521603   2.632   3.437   2.559 -0.2952  0.9064 -0.8813
   35MOL   H45621604   2.566   3.447   2.810  0.6225  0.2213  0.5838
   35MOL   H45721605   2.618   3.618   2.806 -0.0655 -0.7217  0.9421
   35MOL   H45821606   2.387   3.501   2.638  1.4452  0.0799 -1.1637
   35MOL   H45921607   2.469   3.655   2.598  0.5015 -0.3844 -0.3377
   35MOL   H46021608   2.264   3.698   2.699  0.2762  0.9823  0.2420
   35MOL   H46121609   2.307   3.593   2.839 -0.7831 -0.9723 -1.6945
   35MOL   H46221610   2.328   3.819   2.916  0.1274 -0.9028  0.2805
   35MOL   H46321611   2.454   3.855   2.787  1.0193 -0.6149  0.8709
   35MOL   H46421612   2.485   3.742   2.910 -0.6132 -0.8244  0.5862
   35MOL   H46521613   2.838   3.161   2.819 -0.0305 -1.3047 -3.4149
   35MOL   H46621614   2.887   3.020   2.781 -0.7862  0.1694  0.0257
   35MOL   C46721615   2.990   3.076   2.960 -0.0128  0.7140  0.2428
   35MOL   O46821616   2.892   3.001   3.030 -0.2438  0.1249 -0.5433
   35MOL   C46921617   2.911   2.860   3.024 -0.3978  0.8487 -0.0520
   35MOL   C47021618   2.806   2.804   3.120  0.4920 -0.0412  0.8051
   35MOL   C47121619   2.793   2.654   3.143 -0.7521  0.1605  0.2868
   35MOL   C47221620   2.667   2.606   3.217 -0.1956 -0.8967 -0.2382
   35MOL   C47321621   2.662   2.450   3.227  0.5711 -0.2681  0.7280
   35MOL   C47421622   2.569   2.393   3.337 -0.2427 -0.0517 -0.3927
   35MOL   C47521623   2.425   2.422   3.315  0.2990 -0.2604  0.2149
   35MOL   C47621624   2.335   2.360   3.427 -0.6227  0.9619  0.0271
   35MOL   C47721625   3.017   3.208   3.040 -0.4451  0.1595  0.1354
   35MOL   H47821626   3.083   3.019   2.959 -1.2291 -1.3362  1.1995
   35MOL   H47921627   3.014   2.836   3.049 -0.5119 -1.6199 -1.8233
   35MOL   H48021628   2.891   2.816   2.926 -0.1467  1.0324 -0.1862
   35MOL   H48121629   2.713   2.840   3.076  1.4268 -1.2316 -2.3111
   35MOL   H48221630   2.824   2.858   3.213  3.7987  0.6175 -0.1412
   35MOL   H48321631   2.797   2.603   3.047  0.4723 -0.5790  0.7293
   35MOL   H48421632   2.883   2.616   3.190  0.6968  2.3757 -0.6311
   35MOL   H48521633   2.666   2.653   3.316  1.1731 -2.1292  0.3877
   35MOL   H48621634   2.584   2.651   3.163  1.6963  2.6669 -0.3442
   35MOL   H48721635   2.647   2.403   3.130  1.4244  2.6993 -0.9031
   35MOL   H48821636   2.761   2.416   3.256  0.9163 -0.3411 -0.5181
   35MOL   H48921637   2.598   2.426   3.437  0.0784 -2.1160  0.2051
   35MOL   H49021638   2.588   2.287   3.353  0.3972  0.4758  2.7203
   35MOL   H49121639   2.409   2.529   3.308 -0.3046 -0.4166 -0.9600
   35MOL   H49221640   2.400   2.367   3.223  1.3097  1.7412 -1.2914
   35MOL   H49321641   2.360   2.255   3.443 -1.2498  1.0945  1.9586
   35MOL   H49421642   2.229   2.374   3.410 -0.6229 -0.4392 -1.2648
   35MOL   H49521643   2.357   2.400   3.526 -0.1747  1.2016 -0.1671
   35MOL   H49621644   3.061   3.286   2.977 -0.6949 -0.2979 -0.6144
   35MOL   H49721645   2.923   3.256   3.064 -0.5441  1.5579 -2.8356
   35MOL   C49821646   3.085   3.183   3.175 -0.6498  0.4566  0.1629
   35MOL   O49921647   3.209   3.113   3.153  0.5893 -1.1252  0.0312
   35MOL   C50021648   3.322   3.199   3.131 -0.3218 -0.3157 -0.0974
   35MOL   C50121649   3.437   3.110   3.072 -0.3734 -0.9542  0.7300
   35MOL   C50221650   3.492   3.017   3.186  0.0752  0.0334 -0.5715
   35MOL   C50321651   3.596   2.914   3.134 -0.3158  0.0959 -0.0415
   35MOL   C50421652   3.728   2.968   3.058  0.1106 -0.3320  0.0389
   35MOL   C50521653   3.823   2.861   3.012  0.9553  0.9627 -0.1673
   35MOL   C50621654   3.956   2.928   2.969 -0.1073  0.4325 -0.5142
   35MOL   C50721655   4.057   2.816   2.930  0.1191 -0.1253 -0.1208
   35MOL   C50821656   3.004   3.108   3.284  0.9421 -0.0582 -0.1812
   35MOL   H50921657   3.107   3.286   3.203  1.1669  0.4616 -1.1682
   35MOL   H51021658   3.341   3.245   3.228 -2.8570 -0.8523  0.6937
   35MOL   H51121659   3.306   3.285   3.066  0.6344  0.3000  0.4779
   35MOL   H51221660   3.515   3.172   3.027 -0.1800 -1.7132 -0.0104
   35MOL   H51321661   3.396   3.047   2.993  0.6235 -0.1474 -0.4449
   35MOL   H51421662   3.519   3.080   3.271  1.9925 -2.5252  0.8124
   35MOL   H51521663   3.408   2.953   3.212 -0.0080  0.3097 -0.1462
   35MOL   H51621664   3.620   2.844   3.214 -0.3932  1.4606  1.1961
   35MOL   H51721665   3.540   2.858   3.059  1.2961 -1.5169 -0.0913
   35MOL   H51821666   3.699   3.030   2.973 -2.4796 -1.7430 -0.1409
   35MOL   H51921667   3.778   3.038   3.125 -0.5634  1.2299 -1.0489
   35MOL   H52021668   3.774   2.813   2.927 -0.6358 -0.4119  1.4753
   35MOL   H52121669   3.844   2.786   3.088 -0.4177  1.3637  0.6136
   35MOL   H52221670   3.933   3.001   2.891  2.1731  1.2332 -0.4727
   35MOL   H52321671   3.995   2.976   3.060  1.0489 -2.3169  0.4916
   35MOL   H52421672   4.138   2.881   2.897  0.9393 -1.0297  0.0807
   35MOL   H52521673   4.014   2.754   2.851 -2.2079 -1.1137  1.8404
   35MOL   H52621674   4.100   2.759   3.013  0.8566  0.2051 -0.2682
   35MOL   H52721675   2.898   3.131   3.277  0.2182 -2.1588  2.9969
   35MOL   H52821676   3.003   3.005   3.247 -0.7598  0.1632 -0.7745
   35MOL   C52921677   3.049   3.114   3.428  0.5102  0.0506 -0.3148
   35MOL   O53021678   2.977   3.017   3.500  0.4297  0.2134  0.6112
   35MOL   C53121679   3.035   2.885   3.503 -0.1429  0.2452 -0.5098
   35MOL   C53221680   2.952   2.799   3.596 -0.6529  0.5625 -0.0406
   35MOL   C53321681   2.812   2.758   3.540 -0.5955  1.1216  0.0844
   35MOL   C53421682   2.733   2.656   3.623 -1.0302 -0.7123  0.2978
   35MOL   C53521683   2.689   2.719   3.764 -0.5549  0.3457  0.4054
   35MOL   C53621684   2.574   2.651   3.834 -0.3185  0.2579  0.7134
   35MOL   C53721685   2.598   2.505   3.854 -0.5482  0.2069 -0.4954
   35MOL   C53821686   2.689   2.485   3.984  0.0349 -0.3726 -0.0415
   35MOL   C53921687   3.043   3.247   3.511 -1.0762 -0.2831 -0.3058
   35MOL   H54021688   3.152   3.079   3.417  0.5450  0.4539 -1.2850
   35MOL   H54121689   3.043   2.850   3.400  3.1321 -2.2371  0.5185
   35MOL   H54221690   3.132   2.901   3.549 -0.7960  0.7785  0.7015
   35MOL   H54321691   2.949   2.853   3.691 -1.1918  2.3221 -1.0444
   35MOL   H54421692   3.007   2.708   3.622 -0.5604  0.4805 -0.5241
   35MOL   H54521693   2.748   2.845   3.526 -0.4239  1.0002 -1.4968
   35MOL   H54621694   2.828   2.720   3.439 -1.7148 -0.0225  0.3265
   35MOL   H54721695   2.649   2.621   3.563 -0.9735  0.7977 -0.6784
   35MOL   H54821696   2.790   2.565   3.638 -1.4831 -0.9585  0.5413
   35MOL   H54921697   2.780   2.734   3.821 -1.1635 -1.6597  1.9703
   35MOL   H55021698   2.659   2.823   3.751  3.0597  1.4256  0.3803
   35MOL   H55121699   2.487   2.666   3.770  1.9863 -0.1751 -2.7071
   35MOL   H55221700   2.531   2.694   3.924 -0.2236  0.5544  0.6172
   35MOL   H55321701   2.505   2.453   3.874 -0.5277  0.1166 -0.6353
   35MOL   H55421702   2.631   2.453   3.764 -2.9041 -0.2423 -1.1288
   35MOL   H55521703   2.682   2.379   4.010  0.0044 -0.7473 -1.5284
   35MOL   H55621704   2.653   2.547   4.066 -0.2159  0.7086 -0.9653
   35MOL   H55721705   2.791   2.507   3.955  0.3163  0.3954  1.4854
   35MOL   H55821706   3.102   3.231   3.601  1.5400  1.6012 -1.6004
   35MOL   H55921707   3.092   3.333   3.465 -0.2651 -0.7176 -0.2573
   35MOL   C56021708   2.907   3.309   3.533  0.4718  0.9549  0.2301
   35MOL   O56121709   2.850   3.365   3.412  0.3251  0.8189 -0.4592
   35MOL   C56221710   2.716   3.324   3.386 -0.0716 -0.4399 -0.4740
   35MOL   C56321711   2.696   3.346   3.236 -0.0864  0.1521  0.2361
   35MOL   C56421712   2.557   3.300   3.190 -0.2849 -0.2219  0.0102
   35MOL   C56521713   2.535   3.297   3.036 -0.3532  0.4203  0.4371
   35MOL   C56621714   2.396   3.234   2.991 -0.5363  0.1960 -0.1100
   35MOL   C56721715   2.354   3.254   2.841 -0.7591 -0.0599  0.3651
   35MOL   C56821716   2.241   3.163   2.787 -0.4802  0.0131  0.2780
   35MOL   C56921717   2.104   3.174   2.856 -0.8734 -0.7513 -0.2043
   35MOL   C57021718   2.900   3.433   3.637  0.0923  0.4961  0.2487
   35MOL   H57121719   2.843   3.228   3.567  0.6278  0.7239 -0.0269
   35MOL   H57221720   2.649   3.389   3.443  0.6793  0.1776 -0.2981
   35MOL   H57321721   2.695   3.220   3.408  0.5295 -0.5516 -0.4227
   35MOL   H57421722   2.770   3.275   3.197  0.0386  0.0400  0.6639
   35MOL   H57521723   2.723   3.449   3.214  1.3254  0.5362  3.4209
   35MOL   H57621724   2.552   3.196   3.221 -2.8267 -0.5479 -1.2930
   35MOL   H57721725   2.490   3.353   3.258  1.1892 -0.9718  2.0734
   35MOL   H57821726   2.531   3.400   3.001 -2.7798 -0.3267 -1.6465
   35MOL   H57921727   2.621   3.255   2.984 -0.6230 -1.7759  1.6712
   35MOL   H58021728   2.393   3.128   3.016  0.2133 -0.6353 -3.3982
   35MOL   H58121729   2.324   3.287   3.054 -0.9061 -2.6441  1.9492
   35MOL   H58221730   2.446   3.227   2.789 -0.2052  0.3593  1.1220
   35MOL   H58321731   2.339   3.359   2.818  2.4982  0.3062 -0.3817
   35MOL   H58421732   2.226   3.193   2.683 -0.3497 -0.3608  0.1484
   35MOL   H58521733   2.274   3.059   2.783 -1.3420 -0.2797  0.6396
   35MOL   H58621734   2.077   3.280   2.866  1.1383 -0.2199 -0.1939
   35MOL   H58721735   2.108   3.134   2.957  0.3179  0.8850  0.4214
   35MOL   H58821736   2.028   3.117   2.802 -0.4199 -1.6683  0.1209
   35MOL   H58921737   2.973   3.507   3.606  0.0934 -0.0195 -1.0248
   35MOL   H59021738   2.801   3.476   3.618 -0.0568  0.8299  1.7733
   35MOL   C59121739   2.910   3.404   3.787  0.0171  0.1081 -0.0075
   35MOL   O59221740   2.796   3.331   3.826 -0.1505  0.2153  0.0273
   35MOL   C59321741   2.823   3.198   3.859 -0.1385  0.7175  1.1141
   35MOL   C59421742   2.693   3.122   3.871 -0.5740 -0.1043 -0.4850
   35MOL   C59521743   2.606   3.129   3.741 -0.3130 -0.7687 -0.1481
   35MOL   C59621744   2.461   3.076   3.768 -0.5481 -0.3202 -0.5033
   35MOL   C59721745   2.378   3.068   3.641  0.0218 -0.1678  0.1000
   35MOL   C59821746   2.401   2.959   3.535  0.1114  0.0183 -0.5334
   35MOL   C59921747   2.348   3.008   3.393  0.3130  0.2839  0.3741
   35MOL   C60021748   2.396   2.930   3.258 -0.0224 -0.3661  0.4608
   35MOL   C60121749   2.904   3.529   3.877 -0.2736  0.5745  0.2592
   35MOL   H60221750   3.002   3.353   3.817  0.9866  2.5643  1.3926
   35MOL   H60321751   2.881   3.196   3.951  2.0275  0.3786 -0.2114
   35MOL   H60421752   2.887   3.146   3.788 -0.7098 -0.6717  1.5981
   35MOL   H60521753   2.638   3.158   3.957  0.9007 -0.4618  0.6302
   35MOL   H60621754   2.714   3.017   3.890 -1.1853 -0.0345  0.5931
   35MOL   H60721755   2.604   3.230   3.701 -2.3831 -1.2106 -1.2163
   35MOL   H60821756   2.649   3.061   3.667 -0.2238 -0.1805 -0.6448
   35MOL   H60921757   2.462   2.988   3.832 -2.3087 -0.7777 -1.0854
   35MOL   H61021758   2.421   3.156   3.830  0.8334 -1.9109  2.5872
   35MOL   H61121759   2.273   3.064   3.672 -0.1811 -0.1037 -0.5856
   35MOL   H61221760   2.388   3.169   3.601  2.5846  0.3344  1.8690
   35MOL   H61321761   2.350   2.865   3.558  1.0355 -0.1599  0.7898
   35MOL   H61421762   2.507   2.934   3.542 -0.2289 -1.5738 -0.8055
   35MOL   H61521763   2.240   3.015   3.394  0.1178 -1.2775 -2.5733
   35MOL   H61621764   2.380   3.112   3.395 -0.3880  0.4738  1.9475
   35MOL   H61721765   2.501   2.936   3.229 -0.0926  0.4894  0.3511
   35MOL   H61821766   2.326   2.945   3.176 -0.0073  0.0679  0.5237
   35MOL   H61921767   2.384   2.823   3.272  0.6946 -0.6692 -1.1589
   35MOL   H62021768   2.880   3.486   3.975  0.8713  1.1804  0.8133
   35MOL   H62121769   3.002   3.576   3.869 -0.7094  1.2848 -1.1309
   35MOL   H62221770   2.829   3.604   3.852 -0.3631  0.0084 -1.2082
   36MOL     C121771   1.437   2.715   1.156  0.4425  0.1240  0.2661
   36MOL     O221772   1.567   2.664   1.154 -0.6641  0.0827  0.3398
   36MOL     C321773   1.622   2.641   1.026 -0.4571 -0.0074 -0.0884
   36MOL     C421774   1.762   2.586   1.048 -0.4931  0.2313  0.9043
   36MOL     C521775   1.863   2.578   0.931  0.0474 -0.2465  0.1788
   36MOL     C621776   2.007   2.546   0.966 -0.2344  0.2174 -0.0846
   36MOL     C721777   2.075   2.655   1.060 -0.1882  0.0735  0.6657
   36MOL     C821778   2.222   2.637   1.065  1.2890  0.6241 -0.2796
   36MOL     C921779   2.300   2.757   1.120 -0.7123 -0.3261 -0.5197
   36MOL    C1021780   2.452   2.738   1.097  0.3590 -0.6597 -0.9531
   36MOL    C1121781   1.433   2.862   1.101  0.5965  0.0475 -0.5893
   36MOL    H1221782   1.388   2.647   1.086  1.7069 -0.9919  0.4568
   36MOL    H1321783   1.641   2.733   0.973 -3.4181 -0.0072 -1.2523
   36MOL    H1421784   1.562   2.573   0.965  0.0512  0.7417 -1.4248
   36MOL    H1521785   1.758   2.487   1.095 -3.1714  0.2246  0.7367
   36MOL    H1621786   1.801   2.661   1.116  0.0173 -1.1725  2.1862
   36MOL    H1721787   1.823   2.507   0.859 -0.2895 -1.1617  1.2546
   36MOL    H1821788   1.864   2.668   0.869 -0.3342 -0.3277  0.0571
   36MOL    H1921789   2.016   2.457   1.030  0.8065  2.1846  2.6009
   36MOL    H2021790   2.067   2.526   0.877  0.4417 -1.5487  0.7222
   36MOL    H2121791   2.063   2.753   1.015 -1.0869 -0.7176 -0.8471
   36MOL    H2221792   2.039   2.670   1.162 -1.7809  0.4572  0.0584
   36MOL    H2321793   2.263   2.620   0.965 -1.3903  1.1971 -1.5267
   36MOL    H2421794   2.236   2.543   1.119 -3.8593 -0.4536 -0.5224
   36MOL    H2521795   2.276   2.846   1.061 -1.8761 -0.5366 -0.3748
   36MOL    H2621796   2.280   2.782   1.224 -0.1217 -2.7485  0.1909
   36MOL    H2721797   2.484   2.673   1.178 -1.6846  0.3695  0.7256
   36MOL    H2821798   2.499   2.836   1.101 -0.1560 -0.4405 -0.1047
   36MOL    H2921799   2.474   2.676   1.010 -0.2527 -1.2716 -0.6748
   36MOL    H3021800   1.519   2.910   1.148 -1.1514 -0.8466  3.7777
   36MOL    H3121801   1.465   2.852   0.998  2.3309 -3.6543  0.2481
   36MOL    H3221802   1.405   2.714   1.260  1.5986  1.2162  0.6455
   36MOL    C3321803   1.308   2.948   1.119 -0.0889  0.9559 -0.1188
   36MOL    O3421804   1.313   3.043   1.016  0.0486  0.2618  0.1921
   36MOL    C3521805   1.250   3.010   0.893 -0.6003 -0.1385  0.6484
   36MOL    C3621806   1.256   3.131   0.803  0.2170  0.3751  0.4032
   36MOL    C3721807   1.246   3.100   0.653  0.6988 -0.4484  0.2680
   36MOL    C3821808   1.205   3.215   0.556  0.2434 -0.3829  0.3741
   36MOL    C3921809   1.175   3.153   0.423 -0.2433 -0.9536  0.8288
   36MOL    C4021810   1.122   3.239   0.314 -0.3036 -0.4632 -0.1202
   36MOL    C4121811   1.071   3.175   0.181  0.6041 -0.4064 -0.2131
   36MOL    C4221812   1.005   3.276   0.082 -0.1291  0.1535 -0.7948
   36MOL    C4321813   1.299   3.024   1.248  0.4310 -0.5965 -0.3553
   36MOL    H4421814   1.223   2.881   1.105  0.1884  0.9175 -1.7127
   36MOL    H4521815   1.146   2.983   0.915 -0.7614 -0.8057 -0.9213
   36MOL    H4621816   1.304   2.929   0.845 -1.5296  0.1228 -0.8684
   36MOL    H4721817   1.350   3.182   0.827 -0.7204  1.8540  0.9693
   36MOL    H4821818   1.180   3.203   0.832  1.3597  1.8219 -0.1593
   36MOL    H4921819   1.336   3.054   0.611  1.6132 -0.4745  2.2251
   36MOL    H5021820   1.169   3.023   0.643 -0.0083  0.5311 -2.1322
   36MOL    H5121821   1.122   3.270   0.600  0.0670 -0.4755  0.1496
   36MOL    H5221822   1.290   3.281   0.537 -0.1032  0.3594  1.3506
   36MOL    H5321823   1.259   3.093   0.385 -0.0412  0.3767 -0.9039
   36MOL    H5421824   1.088   3.089   0.437 -1.2738  0.7040  2.1000
   36MOL    H5521825   1.189   3.321   0.289 -0.1324 -0.7856 -0.7274
   36MOL    H5621826   1.040   3.292   0.362  0.9598 -0.2773  1.8823
   36MOL    H5721827   1.158   3.129   0.134  0.5808 -0.3355 -0.3267
   36MOL    H5821828   1.018   3.084   0.207  0.6186 -0.1975  0.5382
   36MOL    H5921829   0.922   3.327   0.131  0.9543 -0.6189  1.9509
   36MOL    H6021830   0.983   3.226   7.762  0.5041 -0.7214 -0.4858
   36MOL    H6121831   1.076   3.356   0.057  0.5611  0.6887  2.6509
   36MOL    H6221832   1.280   2.954   1.330  1.0752 -1.4495 -0.9202
   36MOL    H6321833   1.392   3.076   1.268  0.7522 -0.0317 -3.1123
   36MOL    C6421834   1.178   3.116   1.264 -0.5995  0.7775 -0.1515
   36MOL    O6521835   1.177   3.182   1.392 -0.6544 -0.0306  0.2744
   36MOL    C6621836   1.281   3.282   1.409  0.0059  0.9027 -0.4636
   36MOL    C6721837   1.278   3.322   1.555 -0.4890  0.1509  0.1261
   36MOL    C6821838   1.144   3.367   1.602  0.3978  0.4380 -0.2492
   36MOL    C6921839   1.141   3.373   1.757  0.0267  0.5226 -0.2704
   36MOL    C7021840   1.141   3.232   1.819  0.3348 -0.7468  0.4144
   36MOL    C7121841   1.077   3.227   1.959 -0.5671 -0.2416 -0.3785
   36MOL    C7221842   1.076   3.085   2.009  0.5910 -0.5684 -1.2348
   36MOL    C7321843   1.027   3.070   2.155  0.2411 -0.0823 -0.4558
   36MOL    C7421844   1.036   3.053   1.238  0.4688 -0.5106  0.4460
   36MOL    H7521845   1.186   3.204   1.201 -0.5820  0.2612 -0.8771
   36MOL    H7621846   1.259   3.365   1.342 -0.3114  0.8020 -0.4852
   36MOL    H7721847   1.381   3.251   1.379  0.2069  2.3498 -1.3303
   36MOL    H7821848   1.347   3.403   1.575 -2.5752  1.8667  0.5402
   36MOL    H7921849   1.304   3.236   1.617 -0.9837  0.1786  0.3753
   36MOL    H8021850   1.123   3.462   1.553 -0.1848  1.0140  1.0830
   36MOL    H8121851   1.066   3.298   1.569 -0.9605  2.3165 -1.0535
   36MOL    H8221852   1.223   3.436   1.792  1.7158 -1.0957 -1.1752
   36MOL    H8321853   1.054   3.422   1.800  1.2071  2.3281  0.0809
   36MOL    H8421854   1.068   3.176   1.760 -2.0495  0.9084  1.7139
   36MOL    H8521855   1.240   3.189   1.802  1.0467  1.4204 -1.1191
   36MOL    H8621856   0.976   3.267   1.959  0.1990  1.7755  0.7944
   36MOL    H8721857   1.134   3.286   2.031 -0.1771 -1.6728  0.4894
   36MOL    H8821858   1.004   3.037   1.942 -3.5069  1.9872  1.1355
   36MOL    H8921859   1.173   3.035   1.999  1.6187  0.7047  1.6260
   36MOL    H9021860   0.933   3.125   2.163  0.9994  1.0086  1.1254
   36MOL    H9121861   1.103   3.100   2.227 -0.4791  1.3668 -0.2867
   36MOL    H9221862   1.018   2.962   2.169 -1.2456  0.0382 -0.3548
   36MOL    H9321863   1.032   3.032   1.131 -0.6397 -2.9614  0.9240
   36MOL    H9421864   1.038   2.961   1.297 -1.7484  0.0670  1.4682
   36MOL    C9521865   0.920   3.143   1.282 -0.2739 -0.4780  0.2132
   36MOL    O9621866   0.801   3.067   1.284  0.2058  0.1524 -0.4317
   36MOL    C9721867   0.736   3.070   1.414 -0.3771 -0.1767  0.5269
   36MOL    C9821868   0.595   3.014   1.407 -0.1133 -0.5606 -0.1000
   36MOL    C9921869   0.501   3.083   1.308 -0.3623 -0.3050 -0.2563
   36MOL   C10021870   0.350   3.057   1.336  0.1048  0.4814  0.4442
   36MOL   C10121871   0.258   3.146   1.244  0.1338 -0.4995 -0.9476
   36MOL   C10221872   0.111   3.120   1.269 -0.1319 -0.5667 -0.3556
   36MOL   C10321873   0.019   3.212   1.184  0.0123  0.3305  0.1103
   36MOL   C10421874   7.643   3.203   1.221  1.1144 -0.0543 -0.9139
   36MOL   C10521875   0.896   3.253   1.181  0.2357 -0.2031  0.5246
   36MOL   H10621876   0.930   3.194   1.378 -3.7822  0.1042  0.3440
   36MOL   H10721877   0.735   3.172   1.451  0.1069  0.4873 -1.2607
   36MOL   H10821878   0.794   3.009   1.484  0.7163 -3.8131 -3.3141
   36MOL   H10921879   0.554   3.025   1.507  0.9635  0.8214  0.2061
   36MOL   H11021880   0.611   2.909   1.380  1.4369 -0.0410 -1.3359
   36MOL   H11121881   0.523   3.190   1.306  0.4679 -0.4047  2.0103
   36MOL   H11221882   0.525   3.056   1.205 -0.5158 -0.9910 -0.1136
   36MOL   H11321883   0.330   2.950   1.321  1.5041 -0.1279  2.6818
   36MOL   H11421884   0.338   3.079   1.442 -0.3627 -2.0241  0.9433
   36MOL   H11521885   0.292   3.249   1.249  0.4695 -0.6639  0.0920
   36MOL   H11621886   0.279   3.131   1.138 -1.5015 -0.1380 -1.3499
   36MOL   H11721887   0.090   3.151   1.372  0.8027  3.2757 -1.2398
   36MOL   H11821888   0.094   3.012   1.269  0.0687 -0.6335 -2.9656
   36MOL   H11921889   0.049   3.317   1.184 -1.3415  0.7367  1.0335
   36MOL   H12021890   0.030   3.180   1.080  1.6501 -0.9605  0.6497
   36MOL   H12121891   7.581   3.270   1.161 -0.6288 -1.2708 -0.4968
   36MOL   H12221892   7.627   3.235   1.324 -1.9032  0.0978 -1.3954
   36MOL   H12321893   7.609   3.105   1.189  1.1246  0.5173 -2.7686
   36MOL   H12421894   0.987   3.292   1.136 -0.9532  0.1647 -1.6524
   36MOL   H12521895   0.855   3.207   1.090 -0.0258 -0.2771  0.6774
   36MOL   C12621896   0.803   3.377   1.226  1.0751 -0.0449 -0.3537
   36MOL   O12721897   0.756   3.458   1.110 -0.2086  0.4861  0.0690
   36MOL   C12821898   0.633   3.402   1.063  0.1483  0.6911  0.3596
   36MOL   C12921899   0.598   3.462   0.924  0.3596  0.4749  0.1831
   36MOL   C13021900   0.458   3.449   0.876 -0.4260 -0.1143  0.8649
   36MOL   C13121901   0.417   3.304   0.833 -0.0849  0.0702 -0.4120
   36MOL   C13221902   0.278   3.301   0.762  0.0388 -0.9254  0.1428
   36MOL   C13321903   0.206   3.169   0.741 -1.0093  0.1080 -0.0845
   36MOL   C13421904   0.300   3.065   0.677 -0.0046  0.4923  0.2047
   36MOL   C13521905   0.214   2.938   0.634 -0.2427 -0.7906  0.0017
   36MOL   C13621906   0.884   3.466   1.314 -0.1177  0.3035 -0.9686
   36MOL   H13721907   0.715   3.346   1.282 -0.4216 -0.3756 -2.8295
   36MOL   H13821908   0.555   3.420   1.137  0.7105  0.3704  1.0290
   36MOL   H13921909   0.640   3.294   1.059  0.5192  0.6509  1.9577
   36MOL   H14021910   0.669   3.410   0.859 -0.7523  1.0041 -1.4918
   36MOL   H14121911   0.623   3.568   0.921 -0.6547  0.6938 -0.5035
   36MOL   H14221912   0.379   3.486   0.942 -0.4462  1.1553  0.1343
   36MOL   H14321913   0.447   3.509   0.786  1.4916  1.3343  1.5481
   36MOL   H14421914   0.485   3.257   0.762  2.0374 -0.5155  1.9487
   36MOL   H14521915   0.405   3.242   0.922 -1.5775  1.0740  0.1058
   36MOL   H14621916   0.214   3.375   0.810 -0.6535 -1.5374  0.1664
   36MOL   H14721917   0.298   3.342   0.664  0.0699  0.1220  0.5829
   36MOL   H14821918   0.121   3.187   0.674 -1.4016  0.4865  0.5089
   36MOL   H14921919   0.186   3.120   0.836  0.0643  1.8401  1.0609
   36MOL   H15021920   0.353   3.101   0.589 -0.2611  0.0458 -0.1292
   36MOL   H15121921   0.386   3.037   0.739 -1.0905 -2.3170  0.5049
   36MOL   H15221922   0.277   2.875   0.572 -2.5192 -2.3392 -0.8356
   36MOL   H15321923   0.132   2.964   0.567 -0.5999  0.1161  0.7726
   36MOL   H15421924   0.182   2.869   0.713 -0.4170  0.3023  0.9053
   36MOL   H15521925   0.912   3.415   1.407 -0.0832  1.8617 -0.1041
   36MOL   H15621926   0.980   3.483   1.264  0.3548 -0.5937 -0.4020
   36MOL   C15721927   0.823   3.599   1.361 -0.1034  0.2053  0.8174
   36MOL   O15821928   0.922   3.656   1.446  0.1399 -0.3201 -0.3711
   36MOL   C15921929   0.940   3.793   1.437  0.1792  0.1916  0.5805
   36MOL   C16021930   1.028   3.853   1.550 -0.0855 -0.3434 -0.3547
   36MOL   C16121931   0.966   3.815   1.678  0.7911  0.4707  0.3122
   36MOL   C16221932   0.959   3.920   1.785  0.4407  0.0532 -0.2011
   36MOL   C16321933   1.096   3.960   1.838 -0.4751  0.0434 -0.7683
   36MOL   C16421934   1.094   4.064   1.953  0.3479 -0.0888 -0.1515
   36MOL   C16521935   1.230   4.118   1.998 -0.7015  0.2445 -0.2332
   36MOL   C16621936   1.325   4.019   2.057  0.5040  1.1484  0.3768
   36MOL   C16721937   0.680   3.589   1.413  0.2924  0.3919  0.3887
   36MOL   H16821938   0.820   3.664   1.274 -0.6705 -0.0225  0.6645
   36MOL   H16921939   0.845   3.846   1.443  0.4994  0.8121  0.1117
   36MOL   H17021940   0.992   3.820   1.345 -1.2880  1.2212  0.0266
   36MOL   H17121941   1.041   3.960   1.534 -1.2591 -0.2282 -0.6102
   36MOL   H17221942   1.127   3.808   1.546 -0.1049 -0.4542  0.4442
   36MOL   H17321943   0.865   3.779   1.657  1.1354 -0.6231  0.4541
   36MOL   H17421944   1.014   3.726   1.718 -0.4859  0.1912  1.2598
   36MOL   H17521945   0.896   4.003   1.750 -0.8001 -0.9438 -0.3729
   36MOL   H17621946   0.903   3.871   1.864 -1.0404  0.6803 -0.8366
   36MOL   H17721947   1.173   3.886   1.858  0.8197  1.3827 -0.7238
   36MOL   H17821948   1.144   4.011   1.754  2.3812  0.4313  1.0436
   36MOL   H17921949   1.031   4.016   2.028  0.2383  2.3719  1.4093
   36MOL   H18021950   1.038   4.151   1.917 -0.5773 -0.0102  1.4232
   36MOL   H18121951   1.286   4.169   1.920 -0.5799 -1.0320 -0.9979
   36MOL   H18221952   1.218   4.192   2.077  1.3150  0.5835 -0.2347
   36MOL   H18321953   1.417   4.053   2.105  0.2890  0.2750  1.4265
   36MOL   H18421954   1.344   3.946   1.978 -4.0184  0.1452  0.0519
   36MOL   H18521955   1.272   3.970   2.139 -1.1767  1.6699 -0.3700
   36MOL   H18621956   0.651   3.691   1.440 -0.0400  0.2942  0.3974
   36MOL   H18721957   0.617   3.571   1.326  3.7972 -0.1338 -2.1513
   36MOL   C18821958   0.635   3.487   1.524  0.3357 -0.5889  0.3296
   36MOL   O18921959   0.498   3.496   1.540 -0.0046  0.3307 -0.0257
   36MOL   C19021960   0.422   3.401   1.469 -0.7241  0.4910  0.8529
   36MOL   C19121961   0.277   3.444   1.460 -0.2722 -1.3255 -0.3493
   36MOL   C19221962   0.207   3.422   1.594  0.0472 -0.1250  0.2874
   36MOL   C19321963   0.056   3.442   1.578 -0.5648 -0.3195  0.5669
   36MOL   C19421964   7.738   3.355   1.668  0.2816 -0.3343  0.3844
   36MOL   C19521965   7.591   3.355   1.632 -0.6454  0.8555 -0.2806
   36MOL   C19621966   7.521   3.490   1.612 -0.0436 -0.3522 -0.0721
   36MOL   C19721967   7.526   3.562   1.476  0.0170  0.2315 -1.2643
   36MOL   C19821968   0.708   3.512   1.657 -0.0124 -0.1574  0.1306
   36MOL   H19921969   0.654   3.382   1.499 -0.7272 -0.5283 -0.7781
   36MOL   H20021970   0.467   3.397   1.369  3.1854  1.8247  2.4373
   36MOL   H20121971   0.432   3.300   1.508  2.3950  0.0864 -0.7877
   36MOL   H20221972   0.233   3.385   1.380  0.5906 -1.8430 -0.4434
   36MOL   H20321973   0.275   3.550   1.434  1.4845 -1.3576 -0.6641
   36MOL   H20421974   0.234   3.322   1.627 -0.2959 -0.7604 -1.2793
   36MOL   H20521975   0.233   3.488   1.677  1.2189  0.7046 -0.7151
   36MOL   H20621976   0.024   3.545   1.590  0.4701  0.0116  0.5902
   36MOL   H20721977   0.030   3.409   1.477 -0.5167  1.5677 -0.0735
   36MOL   H20821978   7.772   3.251   1.660  0.0901 -0.4138  0.6069
   36MOL   H20921979   7.761   3.376   1.772  2.1014  1.2983 -0.3152
   36MOL   H21021980   7.534   3.307   1.711  0.6094  1.5858  1.0877
   36MOL   H21121981   7.580   3.301   1.538  1.0137  2.8121 -1.6624
   36MOL   H21221982   7.419   3.455   1.628  0.4003 -1.9514 -0.6638
   36MOL   H21321983   7.551   3.547   1.700  0.5452 -0.4478 -0.2093
   36MOL   H21421984   7.490   3.664   1.490 -0.8885 -0.2676  0.1455
   36MOL   H21521985   7.458   3.516   1.404  0.3374 -3.5425  0.6845
   36MOL   H21621986   7.623   3.559   1.425  0.1623 -1.7722 -0.9141
   36MOL   H21721987   0.816   3.514   1.642 -0.2777  1.3276 -1.7060
   36MOL   H21821988   0.683   3.616   1.675 -0.8059 -0.1920 -0.7220
   36MOL   C21921989   0.667   3.419   1.776  0.3039 -0.1678  0.1269
   36MOL   O22021990   0.766   3.444   1.878  0.5237 -0.3916 -0.0545
   36MOL   C22121991   0.767   3.574   1.929 -0.0496  0.2082 -0.2028
   36MOL   C22221992   0.871   3.570   2.039 -0.6163 -0.3089  0.3989
   36MOL   C22321993   0.905   3.712   2.097 -0.2290  0.1594 -0.2290
   36MOL   C22421994   0.966   3.701   2.239 -0.6169 -0.3253 -0.5078
   36MOL   C22521995   0.993   3.843   2.304 -0.2635 -0.2339 -0.3623
   36MOL   C22621996   0.862   3.934   2.306  0.2628 -0.1348  0.0327
   36MOL   C22721997   0.887   4.074   2.361  0.0245  0.1886  0.1381
   36MOL   C22821998   0.963   4.169   2.267  0.2124  0.5842 -0.3377
   36MOL   C22921999   0.670   3.268   1.733  0.4780  0.6923 -0.9335
   36MOL   H23022000   0.573   3.463   1.810 -0.0523 -1.0566  0.3106
   36MOL   H23122001   0.669   3.600   1.970 -0.1078  0.8380 -0.7269
   36MOL   H23222002   0.797   3.650   1.857  1.9592 -0.7206 -0.3579
   36MOL   H23322003   0.962   3.533   1.992 -0.7976 -1.1971  0.7467
   36MOL   H23422004   0.841   3.489   2.106 -4.6950  1.1635  0.4862
   36MOL   H23522005   0.974   3.761   2.028 -1.8654  0.0345 -1.9737
   36MOL   H23622006   0.809   3.763   2.100  1.1370  2.7750  0.4115
   36MOL   H23722007   0.894   3.638   2.292  1.5547 -1.9731  0.5549
   36MOL   H23822008   1.061   3.649   2.239 -1.1688 -1.3699 -1.4800
   36MOL   H23922009   1.026   3.826   2.407  0.1355  0.1749 -0.4208
   36MOL   H24022010   1.076   3.892   2.254  1.5725 -3.1748 -0.3193
   36MOL   H24122011   0.794   3.885   2.376 -0.5035 -0.2733 -0.7893
   36MOL   H24222012   0.790   3.941   2.224  0.6115  2.2809 -0.1030
   36MOL   H24322013   0.786   4.114   2.374  0.6413  1.9407 -0.3428
   36MOL   H24422014   0.940   4.071   2.456  1.0568 -0.5229 -0.4473
   36MOL   H24522015   0.963   4.274   2.297  2.7621  0.7027 -0.6301
   36MOL   H24622016   0.920   4.170   2.166 -2.0358  2.7394  0.5884
   36MOL   H24722017   1.065   4.134   2.250 -0.3774  0.0547 -3.1049
   36MOL   H24822018   0.596   3.243   1.658  1.5934  1.1199 -2.1959
   36MOL   H24922019   0.762   3.247   1.679  0.3350 -0.4325 -0.7536
   36MOL   C25022020   0.647   3.172   1.853  0.1896 -1.3732 -0.0078
   36MOL   O25122021   0.625   3.040   1.805  0.2890  0.0343  0.1931
   36MOL   C25222022   0.740   2.963   1.787 -0.6307  0.5747  0.3798
   36MOL   C25322023   0.707   2.815   1.750 -0.0749  0.9971  0.3111
   36MOL   C25422024   0.817   2.713   1.755 -0.2438 -0.1004 -0.6192
   36MOL   C25522025   0.785   2.568   1.716  0.2418 -0.3629  0.4583
   36MOL   C25622026   0.695   2.496   1.816  0.0723 -0.1014 -0.5868
   36MOL   C25722027   0.684   2.354   1.762  0.3006 -0.0480  0.3360
   36MOL   C25822028   0.793   2.264   1.822 -0.8757 -0.6515 -0.1036
   36MOL   C25922029   0.801   2.126   1.761 -0.0914 -0.3670 -0.1400
   36MOL   C26022030   0.526   3.218   1.934 -0.2871 -0.6102  0.3645
   36MOL   H26122031   0.725   3.173   1.929  1.2828 -1.9117 -1.0934
   36MOL   H26222032   0.786   2.974   1.885  1.3069  0.1028 -0.4584
   36MOL   H26322033   0.803   3.004   1.708 -0.2590 -0.6397  0.0323
   36MOL   H26422034   0.663   2.820   1.651  2.3100  0.8040 -0.7953
   36MOL   H26522035   0.636   2.780   1.825  0.4334  0.1535  0.4002
   36MOL   H26622036   0.892   2.754   1.688  0.3154 -0.0023  0.0549
   36MOL   H26722037   0.860   2.721   1.855  0.9730  1.3193 -1.2473
   36MOL   H26822038   0.743   2.577   1.616 -0.9168  1.6698  1.1077
   36MOL   H26922039   0.879   2.512   1.718  0.6541  0.2889 -0.2835
   36MOL   H27022040   0.734   2.510   1.917  0.3804  0.7557 -0.8161
   36MOL   H27122041   0.601   2.549   1.830 -0.0820 -0.9707  1.9628
   36MOL   H27222042   0.675   2.355   1.654  1.7054  1.0754  0.2064
   36MOL   H27322043   0.594   2.308   1.802 -0.5674 -1.7415 -3.3389
   36MOL   H27422044   0.895   2.302   1.816 -1.3323  0.6430  0.2008
   36MOL   H27522045   0.774   2.258   1.929  1.3979  1.1564  0.4544
   36MOL   H27622046   0.856   2.062   1.829 -0.3797  0.8648  1.2830
   36MOL   H27722047   0.842   2.115   1.660 -1.2800 -0.8991 -0.5715
   36MOL   H27822048   0.698   2.093   1.753  0.0260 -0.6156 -0.6445
   36MOL   H27922049   0.543   3.307   1.993 -0.4826  1.0122 -1.9541
   36MOL   H28022050   0.442   3.231   1.865  1.6323 -0.4461 -1.9994
   36MOL   C28122051   0.474   3.131   2.050 -0.2195 -0.0271 -0.0485
   36MOL   O28222052   0.338   3.174   2.080  0.3688 -0.2173 -0.4515
   36MOL   C28322053   0.227   3.140   2.008  0.7649  0.0038  0.1237
   36MOL   C28422054   0.103   3.163   2.098 -0.9549 -0.0042 -0.8249
   36MOL   C28522055   7.747   3.149   2.033  0.2201 -0.3948 -0.1262
   36MOL   C28622056   7.621   3.158   2.129  0.1261  0.3466  0.1630
   36MOL   C28722057   7.488   3.176   2.064 -0.5152 -0.0147  0.1561
   36MOL   C28822058   7.371   3.206   2.159 -0.1020  0.4756  0.4677
   36MOL   C28922059   7.279   3.307   2.083  0.6301 -0.5526 -0.0643
   36MOL   C29022060   7.180   3.374   2.183 -0.6240 -0.3169  0.5718
   36MOL   C29122061   0.553   3.135   2.180  0.5008 -0.0072  0.0119
   36MOL   H29222062   0.465   3.032   2.006 -0.2477  0.2791 -0.7276
   36MOL   H29322063   0.229   3.034   1.983 -1.1245 -0.2860  1.1299
   36MOL   H29422064   0.220   3.192   1.913  0.3782  0.0458  0.1742
   36MOL   H29522065   0.096   3.259   2.149 -0.7367 -0.4946  0.1379
   36MOL   H29622066   0.111   3.096   2.183  1.0719  2.0316  0.6510
   36MOL   H29722067   7.757   3.231   1.963 -1.1773 -0.8797 -0.9117
   36MOL   H29822068   7.742   3.061   1.969 -1.3759  1.1656 -2.2086
   36MOL   H29922069   7.611   3.079   2.204 -1.2537 -1.8516 -2.2429
   36MOL   H30022070   7.633   3.245   2.193 -3.2224  0.6881  0.4172
   36MOL   H30122071   7.509   3.252   1.989  1.0875 -0.5959 -0.0055
   36MOL   H30222072   7.460   3.086   2.011 -1.6699 -0.1290  0.9504
   36MOL   H30322073   7.417   3.240   2.252 -1.6698  3.2610  0.2552
   36MOL   H30422074   7.314   3.115   2.177  0.9660 -0.5542 -1.2278
   36MOL   H30522075   7.341   3.385   2.039  0.4052 -0.9781 -1.1535
   36MOL   H30622076   7.227   3.257   2.001 -2.0880  2.7438 -0.4726
   36MOL   H30722077   7.089   3.401   2.129 -0.4230  0.2778  0.5289
   36MOL   H30822078   7.222   3.471   2.209 -0.3575 -0.4783  0.7362
   36MOL   H30922079   7.150   3.314   2.269  1.6792 -1.4966  0.5821
   36MOL   H31022080   0.656   3.123   2.147  0.4125 -1.1192  0.1442
   36MOL   H31122081   0.541   3.235   2.223 -2.7872 -1.4287  2.5704
   36MOL   C31222082   0.511   3.020   2.280  0.6778 -0.5334  0.3774
   36MOL   O31322083   0.495   3.083   2.403  0.5468 -0.1236 -0.0348
   36MOL   C31422084   0.371   3.047   2.463  0.1477  0.1906  1.1343
   36MOL   C31522085   0.271   3.162   2.441  0.7966  0.0218  0.3568
   36MOL   C31622086   0.133   3.139   2.500 -0.3137  0.1399 -0.2743
   36MOL   C31722087   0.026   3.248   2.478 -0.2732  0.2007  0.5390
   36MOL   C31822088   0.043   3.392   2.537  0.3599 -0.2829 -0.0219
   36MOL   C31922089   0.064   3.395   2.690  0.1475 -0.8586  0.8223
   36MOL   C32022090   0.034   3.534   2.745 -0.6283 -0.9143 -0.3460
   36MOL   C32122091   0.066   3.552   2.891  0.2989 -0.0459 -0.6572
   36MOL   C32222092   0.623   2.914   2.281  0.5154  0.5108  0.2330
   36MOL   H32322093   0.419   2.975   2.242 -0.3345  1.7235  0.0643
   36MOL   H32422094   0.386   3.052   2.571 -1.5132 -2.7556  1.5630
   36MOL   H32522095   0.327   2.949   2.443  1.1883  0.3870 -2.4338
   36MOL   H32622096   0.263   3.200   2.339  1.7105  0.9570  0.6318
   36MOL   H32722097   0.316   3.252   2.482  0.6097 -0.0114  0.6393
   36MOL   H32822098   0.091   3.046   2.460 -2.4514  0.5771  0.8808
   36MOL   H32922099   0.128   3.121   2.607 -2.7582 -0.9552 -0.5358
   36MOL   H33022100   0.007   3.260   2.371  0.6884  2.2468  0.5774
   36MOL   H33122101   7.713   3.202   2.524 -0.9329  2.8169  2.0107
   36MOL   H33222102   0.121   3.456   2.495 -1.7941  2.1944 -0.4056
   36MOL   H33322103   7.727   3.452   2.524  1.3821  1.5662  1.1014
   36MOL   H33422104   0.169   3.373   2.710  0.8710  1.3439 -0.4535
   36MOL   H33522105   7.768   3.323   2.733 -0.4191  0.1781  1.6568
   36MOL   H33622106   0.089   3.610   2.690  3.7052 -2.3506  1.7573
   36MOL   H33722107   7.702   3.552   2.733 -0.5556 -0.5400 -0.4093
   36MOL   H33822108   0.170   3.578   2.909  0.8188 -0.8395 -2.4753
   36MOL   H33922109   0.061   3.460   2.950  0.3906  0.6965  0.5354
   36MOL   H34022110   0.009   3.633   2.937 -2.0825 -0.5375 -2.6799
   36MOL   H34122111   0.724   2.952   2.291  0.3826  1.1058 -0.6423
   36MOL   H34222112   0.612   2.854   2.371  0.2933 -2.4825 -1.7134
   36MOL   C34322113   0.612   2.820   2.161 -0.6232 -0.1925  0.4207
   36MOL   O34422114   0.503   2.733   2.180 -0.3434  0.2592  0.3580
   36MOL   C34522115   0.427   2.709   2.064  0.3028 -0.8401 -0.0937
   36MOL   C34622116   0.289   2.654   2.103 -0.4213  0.0669 -0.2872
   36MOL   C34722117   0.213   2.754   2.196 -0.1465 -0.4044 -0.1194
   36MOL   C34822118   0.090   2.696   2.265  0.4602  0.8247  0.4956
   36MOL   C34922119   0.015   2.799   2.343  0.7038 -0.0404 -0.0889
   36MOL   C35022120   7.643   2.758   2.342  0.1277 -0.6118 -0.4289
   36MOL   C35122121   7.547   2.838   2.420 -0.6942 -0.0980  0.0133
   36MOL   C35222122   7.402   2.794   2.408  0.4656 -0.3709  0.1074
   36MOL   C35322123   0.734   2.737   2.137  0.3488  0.3584 -0.1378
   36MOL   H35422124   0.596   2.883   2.073  0.1291 -3.8740 -2.5107
   36MOL   H35522125   0.483   2.633   2.009  1.4543  0.3761 -0.6083
   36MOL   H35622126   0.411   2.803   2.013 -0.3919 -1.9014 -1.8893
   36MOL   H35722127   0.302   2.562   2.160  1.4923  1.4640  1.5916
   36MOL   H35822128   0.237   2.634   2.009  0.2184 -2.5551 -0.1194
   36MOL   H35922129   0.277   2.792   2.276  1.4508 -2.8800 -0.1830
   36MOL   H36022130   0.180   2.843   2.143  0.2627  1.0045  1.9173
   36MOL   H36122131   0.033   2.653   2.182  3.6282 -2.7517  0.0364
   36MOL   H36222132   0.110   2.606   2.323  1.3776  0.2666 -0.6536
   36MOL   H36322133   0.057   2.808   2.443 -2.0974 -1.3363  1.2861
   36MOL   H36422134   0.014   2.898   2.298  0.6212 -0.2114 -0.4633
   36MOL   H36522135   7.628   2.654   2.371  1.8072 -0.9353 -0.6392
   36MOL   H36622136   7.610   2.758   2.238 -0.9086  0.3641 -0.1085
   36MOL   H36722137   7.578   2.831   2.524 -0.6367 -0.6054 -0.0383
   36MOL   H36822138   7.559   2.943   2.393  0.1003 -0.4910 -1.2109
   36MOL   H36922139   7.366   2.751   2.315 -2.6755  0.0008  1.0924
   36MOL   H37022140   7.346   2.886   2.423  1.5763  0.4048 -0.4727
   36MOL   H37122141   7.374   2.733   2.494 -0.5771 -1.2114 -0.8205
   36MOL   H37222142   0.725   2.685   2.042  1.7888 -1.5667  0.7600
   36MOL   H37322143   0.818   2.804   2.119  0.2670  0.5399  0.1580
   36MOL   C37422144   0.775   2.633   2.234 -0.4083  0.4537  0.1855
   36MOL   O37522145   0.907   2.667   2.282  0.0902  0.1086 -0.2890
   36MOL   C37622146   0.910   2.717   2.415  0.1234 -0.1706  0.8291
   36MOL   C37722147   1.049   2.776   2.433  0.2189 -0.0104  0.0144
   36MOL   C37822148   1.163   2.677   2.458 -0.7245  0.9850 -0.7823
   36MOL   C37922149   1.287   2.746   2.514  0.5041 -0.6945 -0.3367
   36MOL   C38022150   1.405   2.654   2.543 -0.4811  0.7289 -0.0276
   36MOL   C38122151   1.538   2.729   2.538 -0.0574  0.1208 -0.3016
   36MOL   C38222152   1.660   2.633   2.571 -0.0453  0.7746  0.1298
   36MOL   C38322153   1.801   2.693   2.547 -0.2031 -0.1284  0.5681
   36MOL   C38422154   0.776   2.487   2.181 -0.5349  0.0340  0.9529
   36MOL   H38522155   0.706   2.624   2.317  1.1812  0.1504  1.5136
   36MOL   H38622156   0.888   2.640   2.489 -2.4117  1.4990  1.8810
   36MOL   H38722157   0.844   2.802   2.430  1.0131  0.6626  0.0986
   36MOL   H38822158   1.038   2.830   2.527 -0.5160  0.5170 -0.3748
   36MOL   H38922159   1.071   2.854   2.360 -2.1936  1.2747  0.6106
   36MOL   H39022160   1.126   2.595   2.521 -0.3747  1.0016 -0.5570
   36MOL   H39122161   1.193   2.625   2.367  0.8763  1.2368 -0.4012
   36MOL   H39222162   1.302   2.827   2.443 -2.6773 -0.4796 -0.8246
   36MOL   H39322163   1.253   2.789   2.607 -1.2849 -0.8676 -0.8864
   36MOL   H39422164   1.395   2.590   2.630 -0.8338  0.3900 -0.3178
   36MOL   H39522165   1.408   2.581   2.462  1.9140  1.7320 -0.9035
   36MOL   H39622166   1.531   2.805   2.616  1.0344  0.0402 -0.1154
   36MOL   H39722167   1.541   2.781   2.443  1.8550  1.9629  0.7459
   36MOL   H39822168   1.654   2.605   2.676  3.1554  0.9310  0.3858
   36MOL   H39922169   1.648   2.546   2.507 -2.2450  0.4906  0.8857
   36MOL   H40022170   1.877   2.641   2.604 -0.8304 -0.4017  1.1623
   36MOL   H40122171   1.811   2.796   2.583  1.2190  0.7525 -2.2175
   36MOL   H40222172   1.820   2.684   2.440 -2.2864 -0.9474  0.2438
   36MOL   H40322173   0.685   2.479   2.122 -0.6461  1.5078  0.9012
   36MOL   H40422174   0.857   2.473   2.110 -0.9225 -0.2387  0.5591
   36MOL   C40522175   0.811   2.374   2.283  0.3892 -0.1133 -0.0212
   36MOL   O40622176   0.825   2.258   2.198  0.0180  0.0373 -0.0836
   36MOL   C40722177   0.873   2.144   2.268  0.9447  0.2390  0.3638
   36MOL   C40822178   0.895   2.046   2.141 -0.5867 -0.1902 -0.1602
   36MOL   C40922179   0.989   1.924   2.166 -0.2498 -0.2558  0.2634
   36MOL   C41022180   1.007   1.841   2.040  0.3313  0.3665  0.6171
   36MOL   C41122181   1.097   1.717   2.069  0.1811 -0.0048 -1.0800
   36MOL   C41222182   1.250   1.747   2.095 -0.1002  0.1260 -0.7226
   36MOL   C41322183   1.326   1.617   2.119  0.2334 -0.3582 -0.1342
   36MOL   C41422184   1.274   1.536   2.237 -0.1864  0.4604 -0.3976
   36MOL   C41522185   0.699   2.371   2.386 -0.1524  0.3564  0.3131
   36MOL   H41622186   0.904   2.402   2.332  0.6568 -0.6967 -0.1949
   36MOL   H41722187   0.805   2.113   2.348 -0.5099  1.1842 -0.5030
   36MOL   H41822188   0.970   2.177   2.306  1.3221  1.0101 -1.2443
   36MOL   H41922189   0.931   2.101   2.054  1.6905  2.3517  2.2559
   36MOL   H42022190   0.799   2.003   2.114 -0.5827  1.2367 -2.5531
   36MOL   H42122191   1.086   1.952   2.208 -0.1114  2.4476 -1.6787
   36MOL   H42222192   0.942   1.862   2.242  0.4031 -1.4944 -0.3264
   36MOL   H42322193   0.916   1.801   1.994  1.5851 -2.1825  0.2620
   36MOL   H42422194   1.045   1.900   1.957 -0.1380  0.4484  0.4565
   36MOL   H42522195   1.057   1.664   2.156  3.1314  1.4447  1.2678
   36MOL   H42622196   1.085   1.659   1.978 -0.5319 -1.5199 -0.0290
   36MOL   H42722197   1.261   1.803   2.187  2.4633  0.8876 -1.4494
   36MOL   H42822198   1.297   1.803   2.014 -0.2675  1.1365 -0.1326
   36MOL   H42922199   1.311   1.560   2.027 -1.0338 -1.3122  0.6579
   36MOL   H43022200   1.431   1.641   2.137  0.3208 -0.9635  0.1609
   36MOL   H43122201   1.334   1.447   2.248  0.4063  0.8732 -0.2596
   36MOL   H43222202   1.169   1.507   2.231 -0.4895  1.2003  0.8962
   36MOL   H43322203   1.274   1.594   2.330 -1.3999 -1.4753  0.8487
   36MOL   H43422204   0.728   2.306   2.469 -0.5515 -0.8977 -0.5232
   36MOL   H43522205   0.702   2.466   2.440  0.5077  0.2018  0.5625
   36MOL   C43622206   0.557   2.344   2.342 -0.3147  0.3328 -0.0560
   36MOL   O43722207   0.476   2.373   2.452  0.5045 -0.3544 -0.0370
   36MOL   C43822208   0.411   2.499   2.434  0.0719  0.1471 -0.0948
   36MOL   C43922209   0.330   2.540   2.560 -0.1201 -0.8953  0.9526
   36MOL   C44022210   0.224   2.434   2.581 -0.1127  0.8956 -0.0417
   36MOL   C44122211   0.158   2.462   2.718  0.2537  0.0247 -0.2386
   36MOL   C44222212   0.023   2.395   2.754  0.0453  0.9937  0.2543
   36MOL   C44322213   7.681   2.443   2.661  0.4401 -0.0724  0.5786
   36MOL   C44422214   7.532   2.385   2.689  0.2914 -0.2289 -0.3984
   36MOL   C44522215   7.433   2.470   2.609  0.0912  0.9883  0.5798
   36MOL   C44622216   0.527   2.201   2.291 -0.5199 -0.4152  0.2050
   36MOL   H44722217   0.542   2.415   2.261  1.4118  0.9193  0.1134
   36MOL   H44822218   0.486   2.573   2.407  1.5117 -2.1995 -2.7739
   36MOL   H44922219   0.335   2.480   2.358 -0.8412  1.1320  0.5581
   36MOL   H45022220   0.283   2.636   2.541  0.1938 -0.6390  1.4749
   36MOL   H45122221   0.394   2.554   2.647 -0.2586  1.4781  0.6888
   36MOL   H45222222   0.148   2.451   2.506 -0.7892 -1.0300  0.1666
   36MOL   H45322223   0.270   2.335   2.582 -2.3550 -0.1724  1.2820
   36MOL   H45422224   0.236   2.447   2.792  0.6374 -1.0851 -0.8608
   36MOL   H45522225   0.137   2.568   2.734  0.8857  0.1144  0.0179
   36MOL   H45622226   0.031   2.286   2.752 -0.3133  0.9398  1.6190
   36MOL   H45722227   0.005   2.414   2.859  1.1619 -1.4250  0.9292
   36MOL   H45822228   7.721   2.420   2.562 -1.7423 -1.3348 -0.0617
   36MOL   H45922229   7.683   2.551   2.652  2.2084 -0.1105  0.4312
   36MOL   H46022230   7.532   2.277   2.674  1.9415 -0.0298 -2.1080
   36MOL   H46122231   7.514   2.388   2.796 -1.5232  1.9656 -0.7365
   36MOL   H46222232   7.466   2.473   2.505  2.1437  0.0468  1.1991
   36MOL   H46322233   7.423   2.576   2.634 -1.2101  1.3643 -1.3714
   36MOL   H46422234   7.340   2.413   2.608  0.8414 -0.2597  1.0105
   36MOL   H46522235   0.596   2.194   2.206 -0.7491  1.2784 -0.1367
   36MOL   H46622236   0.555   2.131   2.370  1.9937 -0.6003 -0.7902
   36MOL   C46722237   0.387   2.175   2.236  0.1890 -0.1371 -0.2331
   36MOL   O46822238   0.381   2.042   2.202  0.4268  0.0811  0.2668
   36MOL   C46922239   0.362   1.936   2.288 -0.2777  0.5997 -0.0096
   36MOL   C47022240   0.364   1.803   2.216  0.4891  0.0026  0.3041
   36MOL   C47122241   0.507   1.751   2.182 -0.4643  0.6339 -0.3745
   36MOL   C47222242   0.517   1.634   2.078  0.1657  0.0330  0.5822
   36MOL   C47322243   0.652   1.597   2.037 -0.9437 -0.3202  0.3384
   36MOL   C47422244   0.754   1.553   2.138  0.0449 -0.6328 -0.3652
   36MOL   C47522245   0.715   1.424   2.210  0.4608  1.0410  0.0907
   36MOL   C47622246   0.826   1.374   2.305  0.4823  0.2397  0.0523
   36MOL   C47722247   0.356   2.263   2.111  0.1300  0.2097 -0.0335
   36MOL   H47822248   0.309   2.201   2.308 -1.1507 -2.7115 -0.7098
   36MOL   H47922249   0.268   1.939   2.343 -1.5222 -1.6451 -1.9188
   36MOL   H48022250   0.428   1.942   2.374 -0.5304  2.1767  0.0954
   36MOL   H48122251   0.301   1.800   2.127 -0.7460  2.2922  1.0598
   36MOL   H48222252   0.310   1.730   2.276 -1.3340  0.4382 -0.7682
   36MOL   H48322253   0.571   1.831   2.145 -0.5747  1.0496  0.3209
   36MOL   H48422254   0.562   1.722   2.272 -2.6326  0.5435  0.9594
   36MOL   H48522255   0.461   1.546   2.109 -2.9553  1.1185 -1.6884
   36MOL   H48622256   0.461   1.668   1.991  1.3544 -2.7511 -1.3211
   36MOL   H48722257   0.646   1.515   1.966  1.1106 -1.6565  1.6081
   36MOL   H48822258   0.693   1.679   1.979 -0.7872  0.6431  1.7666
   36MOL   H48922259   0.779   1.634   2.207  1.9121  0.3945 -2.2001
   36MOL   H49022260   0.852   1.541   2.091  1.1162  0.2210  1.5906
   36MOL   H49122261   0.614   1.418   2.252  0.5871 -0.1222  0.2310
   36MOL   H49222262   0.709   1.337   2.145 -0.4780 -1.1329  3.0102
   36MOL   H49322263   0.913   1.345   2.245  1.1601  1.2413  0.5354
   36MOL   H49422264   0.796   1.290   2.367  1.3716  0.4658  0.7878
   36MOL   H49522265   0.853   1.445   2.383 -1.3894  0.3970  0.5776
   36MOL   H49622266   0.386   2.364   2.135 -0.0508  0.5528 -1.1956
   36MOL   H49722267   0.421   2.242   2.025 -3.4632 -1.7773 -2.3892
   36MOL   C49822268   0.206   2.262   2.075  0.1139 -0.0921 -0.1180
   36MOL   O49922269   0.191   2.341   1.950 -0.3725  0.1247 -0.0464
   36MOL   C50022270   0.165   2.255   1.844  0.1780 -0.7083 -0.5767
   36MOL   C50122271   0.181   2.337   1.713 -0.1791  0.0593  0.2084
   36MOL   C50222272   0.317   2.406   1.699 -0.0517 -0.3772  0.5263
   36MOL   C50322273   0.348   2.481   1.569 -0.9050 -0.1152  0.2740
   36MOL   C50422274   0.293   2.633   1.564 -0.5770 -0.0661 -0.3843
   36MOL   C50522275   0.279   2.711   1.691 -0.3081  0.0099 -0.2747
   36MOL   C50622276   0.261   2.867   1.668 -0.3352  0.7584  0.3257
   36MOL   C50722277   0.119   2.915   1.619  0.2599 -1.0219 -0.1588
   36MOL   C50822278   0.113   2.334   2.165  0.1687 -0.2854  0.6366
   36MOL   H50922279   0.180   2.156   2.074  1.3778 -0.4237  0.4275
   36MOL   H51022280   0.065   2.210   1.849  0.1691 -0.6613 -0.2947
   36MOL   H51122281   0.244   2.181   1.838  0.5982 -0.2867 -0.2429
   36MOL   H51222282   0.107   2.413   1.687  0.1238  0.9030  1.7489
   36MOL   H51322283   0.173   2.260   1.636  0.6671 -0.3092  0.4785
   36MOL   H51422284   0.329   2.473   1.784 -2.6202  1.5355 -0.5338
   36MOL   H51522285   0.395   2.330   1.711  1.3585  0.7933 -0.8371
   36MOL   H51622286   0.456   2.495   1.566 -1.1715  1.7773 -1.5767
   36MOL   H51722287   0.316   2.427   1.480  0.6742  0.4225 -0.6432
   36MOL   H51822288   0.349   2.678   1.482  2.7285 -3.0856  0.0949
   36MOL   H51922289   0.191   2.630   1.527 -1.6945 -1.6789  2.6541
   36MOL   H52022290   0.373   2.695   1.744 -0.0910 -1.6344 -1.1350
   36MOL   H52122291   0.200   2.676   1.757 -1.2535  0.8044 -0.9661
   36MOL   H52222292   0.291   2.927   1.754 -1.6871  0.8827  0.7193
   36MOL   H52322293   0.328   2.901   1.589 -0.5610  0.5299  0.0354
   36MOL   H52422294   0.050   2.916   1.703  0.9256 -0.0909  0.3871
   36MOL   H52522295   0.086   2.850   1.538  0.0212 -1.0301 -0.0538
   36MOL   H52622296   0.127   3.015   1.578 -0.4316 -1.1086 -0.5098
   36MOL   H52722297   0.136   2.334   2.272 -1.8814  3.7417  1.1568
   36MOL   H52822298   0.114   2.442   2.147 -1.2981 -0.4114 -0.2010
   36MOL   C52922299   7.739   2.288   2.165  0.2604  0.5002  0.5491
   36MOL   O53022300   7.665   2.406   2.133 -0.9552 -0.0145 -0.9740
   36MOL   C53122301   7.590   2.404   2.009  0.2177 -0.1853  0.2294
   36MOL   C53222302   7.494   2.519   1.987 -0.3193  0.2548  0.6036
   36MOL   C53322303   7.393   2.487   1.872 -0.1559  0.7714  0.3344
   36MOL   C53422304   7.272   2.576   1.900  0.3131 -0.0398  0.2817
   36MOL   C53522305   7.151   2.521   1.812 -0.2053 -0.2030 -0.0541
   36MOL   C53622306   7.019   2.603   1.812 -0.2128 -0.3392 -0.3360
   36MOL   C53722307   6.916   2.556   1.911  0.1492 -0.4077  0.0566
   36MOL   C53822308   6.926   2.631   2.041 -0.4135  0.3253 -0.6971
   36MOL   C53922309   7.687   2.237   2.298  1.0235  0.3834 -0.2718
   36MOL   H54022310   7.724   2.211   2.091 -1.0975 -1.7440  3.0714
   36MOL   H54122311   7.661   2.395   1.927  2.2702  2.7781  1.5900
   36MOL   H54222312   7.536   2.311   1.990 -2.3525  0.7985  2.3405
   36MOL   H54322313   7.543   2.616   1.982 -1.3290  0.7959  1.0108
   36MOL   H54422314   7.436   2.524   2.079 -0.7429 -1.2609  0.4367
   36MOL   H54522315   7.426   2.489   1.768  0.1443 -1.3379  0.3626
   36MOL   H54622316   7.350   2.389   1.894  0.9102  0.4079  0.8270
   36MOL   H54722317   7.232   2.574   2.001 -2.9943  0.6510 -0.9452
   36MOL   H54822318   7.292   2.678   1.867 -0.2323 -0.4866 -1.4969
   36MOL   H54922319   7.195   2.522   1.712  1.3265  1.4208  0.6208
   36MOL   H55022320   7.146   2.416   1.842  2.3279 -0.8774 -1.8411
   36MOL   H55122321   6.977   2.588   1.713 -0.3582 -2.2671  0.0009
   36MOL   H55222322   7.038   2.709   1.828 -3.1772  0.0426  1.0076
   36MOL   H55322323   6.821   2.568   1.859  1.5593 -0.0405 -2.5463
   36MOL   H55422324   6.938   2.454   1.940  0.1344 -0.2020  0.7964
   36MOL   H55522325   6.948   2.737   2.031  3.0628 -0.2877  0.1510
   36MOL   H55622326   7.002   2.597   2.111  0.0290 -2.0467 -2.2581
   36MOL   H55722327   6.827   2.625   2.087  1.2183 -0.0186  2.8829
   36MOL   H55822328   7.711   2.315   2.370 -1.1229 -0.1703  1.1130
   36MOL   H55922329   7.579   2.222   2.289  1.1078 -0.9367  0.8873
   36MOL   C56022330   7.745   2.098   2.336  0.5113  0.1790  0.1790
   36MOL   O56122331   7.669   1.996   2.263  0.6222 -0.1325  1.2558
   36MOL   C56222332   7.749   1.929   2.168  0.5122 -0.3233 -0.2774
   36MOL   C56322333   7.675   1.814   2.093  0.8117 -0.3143  0.1993
   36MOL   C56422334   7.607   1.713   2.183 -0.1934 -0.0118  0.7815
   36MOL   C56522335   7.538   1.603   2.094  1.2472 -0.3309 -0.5967
   36MOL   C56622336   7.465   1.490   2.166 -0.4236 -0.2389  0.4293
   36MOL   C56722337   7.563   1.401   2.236  0.0302  0.0049 -0.7616
   36MOL   C56822338   7.483   1.276   2.277 -0.1328 -0.4361 -0.2509
   36MOL   C56922339   7.552   1.185   2.385  0.4395 -0.0596  0.6148
   36MOL   C57022340   7.721   2.070   2.489 -0.0762  0.0479 -0.2850
   36MOL   H57122341   0.078   2.100   2.317  0.0396 -1.3135 -3.0945
   36MOL   H57222342   0.064   1.888   2.216 -0.1503 -2.1140 -0.5152
   36MOL   H57322343   0.006   2.002   2.094  0.5377 -1.4181 -1.3648
   36MOL   H57422344   7.748   1.760   2.032  0.7808  0.5848 -0.6472
   36MOL   H57522345   7.609   1.850   2.014  2.2738  1.7624 -0.1134
   36MOL   H57622346   7.682   1.664   2.246  1.2083 -0.4268 -1.1356
   36MOL   H57722347   7.545   1.755   2.262 -0.8283  0.1036  0.2189
   36MOL   H57822348   7.457   1.648   2.036  1.1622 -0.6571 -0.7295
   36MOL   H57922349   7.609   1.573   2.017  0.9031  2.2169 -1.9833
   36MOL   H58022350   7.395   1.534   2.237 -2.4401  0.1869 -1.7610
   36MOL   H58122351   7.403   1.449   2.086  0.4132 -0.3107 -0.2029
   36MOL   H58222352   7.591   1.457   2.326 -2.9023 -2.2418  1.6563
   36MOL   H58322353   7.652   1.383   2.175  1.3510 -0.3529  1.2034
   36MOL   H58422354   7.395   1.318   2.326  1.7368  0.6561  2.2847
   36MOL   H58522355   7.456   1.211   2.194  0.5176  0.4131 -1.1418
   36MOL   H58622356   7.494   1.106   2.432  2.8389 -1.7699  0.8078
   36MOL   H58722357   7.582   1.244   2.472  2.0923  1.0542 -0.6845
   36MOL   H58822358   7.648   1.144   2.353  1.1812  0.6962  1.8421
   36MOL   H58922359   7.741   2.159   2.548  2.4837 -0.5225 -0.2366
   36MOL   H59022360   7.617   2.045   2.510  0.4732 -1.3510  0.8755
   36MOL   C59122361   0.037   1.956   2.544  0.0783 -0.2083  0.9005
   36MOL   O59222362   7.737   1.891   2.649 -0.3524 -0.5942  0.8245
   36MOL   C59322363   7.652   1.791   2.597  0.7102  0.0399  0.5106
   36MOL   C59422364   7.617   1.694   2.706  0.1350  0.0654 -0.1256
   36MOL   C59522365   7.730   1.601   2.737  0.2285 -0.4597  0.0494
   36MOL   C59622366   7.716   1.520   2.863  0.1296 -0.1787  0.5566
   36MOL   C59722367   0.063   1.443   2.911 -0.0630 -0.1534 -0.1942
   36MOL   C59822368   0.032   1.349   3.033 -0.1424 -0.3522 -0.0277
   36MOL   C59922369   7.754   1.205   2.996  0.2316  0.2492 -1.2328
   36MOL   C60022370   7.749   1.112   3.121  0.0221 -0.9963  0.1879
   36MOL   C60122371   0.170   2.002   2.599  0.0147 -0.6606 -1.0669
   36MOL   H60222372   0.056   1.887   2.463  1.9049  2.0540 -0.6804
   36MOL   H60322373   7.695   1.731   2.518  1.1185  0.1492  0.6510
   36MOL   H60422374   7.559   1.834   2.560  0.1005 -0.8291  1.0043
   36MOL   H60522375   7.526   1.638   2.684  0.0657  0.6165 -1.3065
   36MOL   H60622376   7.591   1.759   2.790  0.0018 -0.0664 -0.0639
   36MOL   H60722377   7.735   1.529   2.655  1.6439 -1.1804  0.7309
   36MOL   H60822378   0.055   1.644   2.719  0.0611 -0.7992 -1.8589
   36MOL   H60922379   7.703   1.593   2.942 -0.4626  0.3278 -0.0048
   36MOL   H61022380   7.628   1.454   2.862  0.1848 -0.2504  0.3200
   36MOL   H61122381   0.103   1.394   2.823 -3.0469  0.5196 -1.9841
   36MOL   H61222382   0.125   1.526   2.944 -0.8737  0.3041  0.2062
   36MOL   H61322383   7.739   1.402   3.100 -1.4482  0.2994 -1.8114
   36MOL   H61422384   0.123   1.339   3.092 -1.3679  0.2689  2.0223
   36MOL   H61522385   7.660   1.217   2.942 -0.0568 -0.8363 -0.9770
   36MOL   H61622386   0.051   1.161   2.926 -0.0501 -0.3014 -1.1755
   36MOL   H61722387   7.681   1.151   3.195  1.7669  1.2490  0.6524
   36MOL   H61822388   0.073   1.107   3.168 -0.9387  1.5861  2.5302
   36MOL   H61922389   7.712   1.013   3.093  1.5687 -0.8361 -2.7183
   36MOL   H62022390   0.216   2.067   2.524  1.0014 -0.3257 -0.1732
   36MOL   H62122391   0.156   2.070   2.683  3.0513 -2.1385  0.7003
   36MOL   H62222392   0.242   1.926   2.628  0.8583 -0.2970 -2.1801
   37MOL     C122393   6.361   5.520   1.771  0.3791  0.3184 -0.3460
   37MOL     O222394   6.261   5.431   1.831  0.0441  0.6088 -0.1052
   37MOL     C322395   6.308   5.341   1.931  0.3505 -0.5798 -0.3697
   37MOL     C422396   6.181   5.304   2.016  0.1760 -1.0278 -0.4199
   37MOL     C522397   6.213   5.218   2.131 -0.1625  0.2091  0.7116
   37MOL     C622398   6.100   5.230   2.232  0.4130  0.3473 -0.5307
   37MOL     C722399   6.134   5.170   2.372  0.4405 -0.3426 -0.3402
   37MOL     C822400   6.039   5.205   2.487  0.1936 -0.2843 -0.5553
   37MOL     C922401   6.086   5.142   2.626  0.3313 -0.0384 -0.0011
   37MOL    C1022402   6.003   5.192   2.742  0.0742 -0.3220  0.5549
   37MOL    C1122403   6.297   5.607   1.668  0.2020  0.0309  0.4552
   37MOL    H1222404   6.421   5.568   1.849  0.9439 -1.1389  0.1433
   37MOL    H1322405   6.381   5.398   1.989 -0.4796  0.3069 -0.1850
   37MOL    H1422406   6.352   5.249   1.894  0.5922 -1.2394  1.4990
   37MOL    H1522407   6.103   5.270   1.947  1.6922 -1.1454 -2.0903
   37MOL    H1622408   6.152   5.401   2.057  1.2884 -0.5175 -0.8238
   37MOL    H1722409   6.221   5.112   2.106  0.1048  0.8713 -2.2241
   37MOL    H1822410   6.304   5.239   2.187  1.5185 -0.2236 -1.7789
   37MOL    H1922411   6.081   5.334   2.255  2.2911  0.6544 -0.2915
   37MOL    H2022412   6.015   5.178   2.187  0.5713  0.7415 -1.3014
   37MOL    H2122413   6.144   5.061   2.367  1.4933 -0.2595 -0.0307
   37MOL    H2222414   6.232   5.204   2.404  1.5818 -2.7605 -1.1649
   37MOL    H2322415   5.932   5.186   2.477 -0.4936  1.5439  2.4012
   37MOL    H2422416   6.045   5.314   2.485  1.0827 -0.3043  0.5500
   37MOL    H2522417   6.079   5.033   2.627 -2.0689  0.0790  0.2161
   37MOL    H2622418   6.188   5.174   2.647  0.3480  0.5135 -0.8719
   37MOL    H2722419   6.044   5.175   2.842 -0.2878 -0.9653  0.5982
   37MOL    H2822420   5.901   5.152   2.737 -0.9472  2.1848  0.6720
   37MOL    H2922421   5.995   5.300   2.729 -0.5650 -0.5556 -1.1710
   37MOL    H3022422   6.238   5.553   1.594 -0.1997 -0.7108  1.2942
   37MOL    H3122423   6.226   5.672   1.719  1.1170  1.3155  0.0882
   37MOL    H3222424   6.436   5.457   1.723  2.5839  2.3809  0.3040
   37MOL    C3322425   6.394   5.695   1.597  0.2938  0.1223  0.8632
   37MOL    O3422426   6.429   5.786   1.699  0.2546 -0.0184 -0.3169
   37MOL    C3522427   6.557   5.843   1.682  0.6556 -0.1810 -0.0879
   37MOL    C3622428   6.565   5.961   1.774  0.3180  0.1068  0.4457
   37MOL    C3722429   6.697   6.041   1.750  0.0784  0.0142 -0.3450
   37MOL    C3822430   6.709   6.146   1.862 -0.2173 -0.1312  0.1795
   37MOL    C3922431   6.826   6.244   1.823  0.7843  0.6665  0.0329
   37MOL    C4022432   6.867   6.330   1.934  0.7056 -0.1945 -0.1837
   37MOL    C4122433   6.976   6.424   1.891  0.6029  0.6507  0.3442
   37MOL    C4222434   6.921   6.569   1.852  0.4639  0.2393  0.0785
   37MOL    C4322435   6.332   5.769   1.480 -0.4227  0.0179 -0.0469
   37MOL    H4422436   6.475   5.631   1.563 -0.4110 -1.0988  1.4688
   37MOL    H4522437   6.568   5.869   1.577 -0.7140  0.6253 -0.0369
   37MOL    H4622438   6.641   5.773   1.695  0.5104 -0.4581 -0.6266
   37MOL    H4722439   6.561   5.929   1.878 -2.4260  1.2097  0.7320
   37MOL    H4822440   6.478   6.027   1.773 -0.0845 -0.4330 -1.0698
   37MOL    H4922441   6.787   5.982   1.736 -0.1865 -0.5095  0.1517
   37MOL    H5022442   6.669   6.092   1.658  2.1478  3.3106  0.7552
   37MOL    H5122443   6.619   6.202   1.890 -0.4417 -0.9039  1.0099
   37MOL    H5222444   6.739   6.096   1.953  0.2963  1.0325  0.6589
   37MOL    H5322445   6.913   6.184   1.798 -0.1730  0.1639 -2.2133
   37MOL    H5422446   6.802   6.297   1.732 -1.5983 -1.4293 -0.6197
   37MOL    H5522447   6.889   6.267   2.021 -0.7442  0.1642  0.4576
   37MOL    H5622448   6.782   6.391   1.963 -0.1111 -1.6094  0.5095
   37MOL    H5722449   7.050   6.448   1.968  0.3862  0.3680  0.6377
   37MOL    H5822450   7.027   6.383   1.804 -0.3773 -2.5892  1.2508
   37MOL    H5922451   6.847   6.568   1.772  0.7269 -1.5587 -0.1621
   37MOL    H6022452   7.002   6.627   1.808  0.1548  0.8752  0.3342
   37MOL    H6122453   6.871   6.630   1.927  1.6952 -0.3580  1.4173
   37MOL    H6222454   6.242   5.811   1.524 -0.1933  0.3452  0.1050
   37MOL    H6322455   6.389   5.858   1.455 -0.9737  0.6527  0.9241
   37MOL    C6422456   6.307   5.686   1.353 -0.0442 -0.1866 -0.0105
   37MOL    O6522457   6.432   5.691   1.286  0.2861  0.2291  0.3684
   37MOL    C6622458   6.467   5.566   1.224  0.4037 -0.5293  0.0766
   37MOL    C6722459   6.551   5.477   1.318 -0.1525  0.3512 -0.3037
   37MOL    C6822460   6.684   5.532   1.365 -0.7061 -0.2308 -0.5259
   37MOL    C6922461   6.758   5.448   1.466 -0.1012 -0.0858  0.0986
   37MOL    C7022462   6.910   5.471   1.496  0.8282  0.8626 -0.0244
   37MOL    C7122463   7.001   5.453   1.380 -0.1001 -0.4789  0.2037
   37MOL    C7222464   7.153   5.482   1.409  0.1544 -0.0931 -0.6160
   37MOL    C7322465   7.258   5.425   1.309 -0.3556  0.1333 -0.0636
   37MOL    C7422466   6.196   5.745   1.256  0.4462  0.1927 -0.6919
   37MOL    H7522467   6.272   5.585   1.374 -1.2217  0.5958  1.8581
   37MOL    H7622468   6.518   5.592   1.132  0.4230 -0.7388  0.0281
   37MOL    H7722469   6.381   5.502   1.202 -1.6188  2.0732  0.2231
   37MOL    H7822470   6.565   5.380   1.270 -0.0992  1.0091 -1.6312
   37MOL    H7922471   6.489   5.447   1.403 -1.7194 -2.3540 -2.3234
   37MOL    H8022472   6.745   5.528   1.275 -1.2980  0.9614 -0.9843
   37MOL    H8122473   6.675   5.631   1.409  0.0347  0.4060 -1.7807
   37MOL    H8222474   6.696   5.450   1.556 -0.9900  3.4919 -0.5260
   37MOL    H8322475   6.747   5.342   1.443  2.6423 -0.1909 -0.9131
   37MOL    H8422476   6.914   5.573   1.537 -4.2644 -0.0595  3.3224
   37MOL    H8522477   6.934   5.410   1.583 -0.5898 -0.0640 -0.2670
   37MOL    H8622478   6.964   5.517   1.300 -0.5817 -0.8718  0.1111
   37MOL    H8722479   6.978   5.351   1.352 -1.0991 -0.0392 -0.5956
   37MOL    H8822480   7.183   5.587   1.416  0.9054 -0.3353 -0.2170
   37MOL    H8922481   7.196   5.451   1.504  1.1367 -4.4619 -2.3547
   37MOL    H9022482   7.359   5.454   1.338 -0.2326 -0.2599 -0.0893
   37MOL    H9122483   7.242   5.462   1.208  0.6502  2.2497  0.5281
   37MOL    H9222484   7.248   5.317   1.296 -0.0458 -0.1336  1.8103
   37MOL    H9322485   6.202   5.853   1.244  1.2020  0.0931 -1.2494
   37MOL    H9422486   6.212   5.707   1.155  0.9058 -1.9003  0.1392
   37MOL    C9522487   6.051   5.725   1.306 -0.4413 -0.2601 -0.2780
   37MOL    O9622488   6.029   5.588   1.295 -1.2349  0.3917  0.0989
   37MOL    C9722489   5.923   5.529   1.370  0.1403  0.0022  0.1188
   37MOL    C9822490   5.965   5.509   1.519  0.0960 -0.0920  0.2576
   37MOL    C9922491   5.841   5.494   1.612  0.2874 -0.1890 -0.4293
   37MOL   C10022492   5.883   5.503   1.758 -0.0837  0.4814 -0.2004
   37MOL   C10122493   5.767   5.512   1.857 -0.2452 -0.4562  0.0753
   37MOL   C10222494   5.704   5.375   1.897 -0.0387 -0.5024 -0.8996
   37MOL   C10322495   5.803   5.274   1.954 -0.5492  0.3317 -0.4721
   37MOL   C10422496   5.740   5.152   2.028  0.2935 -0.0491 -0.8063
   37MOL   C10522497   5.937   5.803   1.224  0.1297 -0.6944  0.2564
   37MOL   H10622498   6.046   5.769   1.405 -1.1761 -1.8947  0.4291
   37MOL   H10722499   5.887   5.435   1.327  1.3395 -0.6284  0.4666
   37MOL   H10822500   5.843   5.602   1.362  2.0472  1.9567 -1.7342
   37MOL   H10922501   6.036   5.585   1.552  0.5722 -0.0150 -0.9249
   37MOL   H11022502   6.021   5.417   1.532 -2.0643 -1.7891 -1.9878
   37MOL   H11122503   5.770   5.573   1.586  0.5521  0.0801 -0.3354
   37MOL   H11222504   5.789   5.401   1.591  0.7446 -0.8261  1.1551
   37MOL   H11322505   5.963   5.431   1.774  2.6529  3.2484 -0.8356
   37MOL   H11422506   5.937   5.596   1.780 -0.4398  0.5093  0.5569
   37MOL   H11522507   5.815   5.558   1.944 -0.2528 -2.6545  1.2786
   37MOL   H11622508   5.696   5.589   1.826  0.5000  0.5207  0.7489
   37MOL   H11722509   5.661   5.332   1.807  0.7867 -0.4589 -1.3202
   37MOL   H11822510   5.636   5.398   1.979  0.6661  1.0128 -0.7341
   37MOL   H11922511   5.862   5.229   1.875  0.0011  0.8245 -0.3503
   37MOL   H12022512   5.871   5.325   2.023  1.6470 -0.4656 -2.0101
   37MOL   H12122513   5.684   5.191   2.114  0.6167  0.1373 -0.6792
   37MOL   H12222514   5.815   5.084   2.069  1.2495  1.2640 -0.3138
   37MOL   H12322515   5.672   5.103   1.959 -0.9109 -0.6478  0.7828
   37MOL   H12422516   5.921   5.744   1.134  0.4227  1.3015 -1.1425
   37MOL   H12522517   5.840   5.801   1.273  0.1025 -0.6824  0.2027
   37MOL   C12622518   5.963   5.952   1.186 -0.0485  0.2783  0.2435
   37MOL   O12722519   5.975   6.021   1.318 -0.3581  0.0057 -0.2337
   37MOL   C12822520   6.080   6.115   1.313 -0.8250  0.2643 -0.2445
   37MOL   C12922521   6.095   6.179   1.452  0.2825  0.0020  0.3366
   37MOL   C13022522   6.242   6.214   1.467 -0.0661  0.4358 -0.4142
   37MOL   C13122523   6.267   6.254   1.611  0.2058  0.3521  0.0630
   37MOL   C13222524   6.404   6.334   1.630 -0.2455  0.2842 -0.6002
   37MOL   C13322525   6.416   6.466   1.547  1.0094  0.3082  0.5946
   37MOL   C13422526   6.541   6.550   1.574  0.2230  0.0073  0.0662
   37MOL   C13522527   6.551   6.614   1.706  0.1832 -0.0455  0.5098
   37MOL   C13622528   5.837   6.011   1.108 -0.2877  0.1638 -0.8576
   37MOL   H13722529   6.049   5.949   1.119 -0.6114 -0.5152 -0.4506
   37MOL   H13822530   6.055   6.192   1.240 -0.3243 -0.8310 -1.5963
   37MOL   H13922531   6.172   6.064   1.285 -2.4124 -3.8403  1.6853
   37MOL   H14022532   6.068   6.102   1.524  1.4384  0.3876  1.1877
   37MOL   H14122533   6.025   6.260   1.475 -0.8825 -1.4483  2.0702
   37MOL   H14222534   6.304   6.131   1.433 -0.1332  0.8584 -1.5827
   37MOL   H14322535   6.255   6.305   1.408  1.2743  0.8507  0.5192
   37MOL   H14422536   6.180   6.316   1.631 -0.7342 -1.4781  1.7765
   37MOL   H14522537   6.266   6.160   1.666  1.5932  1.1916  1.5910
   37MOL   H14622538   6.413   6.347   1.738 -4.2036 -1.5100  0.0240
   37MOL   H14722539   6.492   6.274   1.607  0.3329  1.4486 -1.4587
   37MOL   H14822540   6.327   6.526   1.567 -0.0904 -2.4011  4.4338
   37MOL   H14922541   6.419   6.435   1.442  0.6294 -0.8271  0.9063
   37MOL   H15022542   6.627   6.483   1.567  1.0424  1.1752 -1.2027
   37MOL   H15122543   6.538   6.623   1.494  1.3603  1.6688  1.4952
   37MOL   H15222544   6.610   6.544   1.765 -0.8957 -2.6577 -1.4422
   37MOL   H15322545   6.460   6.647   1.757  0.1194  1.0889 -0.3066
   37MOL   H15422546   6.608   6.707   1.706  0.1620 -0.0311  0.9634
   37MOL   H15522547   5.749   6.001   1.172  0.4382 -1.4814 -0.0805
   37MOL   H15622548   5.854   6.118   1.099  2.2318 -0.2505 -1.3630
   37MOL   C15722549   5.797   5.937   0.975  0.3515 -0.3510 -0.1940
   37MOL   O15822550   5.896   5.963   0.872  0.1959  0.0204 -0.1720
   37MOL   C15922551   5.943   5.852   0.796 -0.1677  1.2896  0.0370
   37MOL   C16022552   6.026   5.908   0.684 -0.0716 -0.2083  0.1568
   37MOL   C16122553   6.117   5.798   0.630  0.7529 -0.9180 -0.5841
   37MOL   C16222554   6.191   5.843   0.501 -0.3599 -0.3496  0.2690
   37MOL   C16322555   6.297   5.741   0.440 -0.0637  0.0179 -0.2587
   37MOL   C16422556   6.216   5.631   0.362  0.2661 -0.0231 -0.1732
   37MOL   C16522557   6.269   5.493   0.392  0.3324  0.0772 -0.2848
   37MOL   C16622558   6.228   5.440   0.529 -0.3160  0.4723  0.1694
   37MOL   C16722559   5.668   5.990   0.924  0.4313 -0.2802  1.2602
   37MOL   H16822560   5.790   5.830   0.992  0.0052 -0.0451  1.7907
   37MOL   H16922561   5.863   5.785   0.764  0.4961 -0.1173  1.3035
   37MOL   H17022562   6.014   5.784   0.842  0.0940  0.1650 -1.9785
   37MOL   H17122563   6.089   5.987   0.723 -0.1103  0.0775 -0.3530
   37MOL   H17222564   5.962   5.957   0.611  0.3047 -0.6215 -0.4643
   37MOL   H17322565   6.193   5.758   0.696  1.2530  0.5558 -0.2610
   37MOL   H17422566   6.049   5.719   0.597  0.4738 -0.4980 -1.0407
   37MOL   H17522567   6.110   5.863   0.430  0.6858  0.9050 -0.5995
   37MOL   H17622568   6.250   5.930   0.527  1.1550 -1.0846 -0.6420
   37MOL   H17722569   6.363   5.793   0.371  1.5580 -0.5910  0.8206
   37MOL   H17822570   6.353   5.692   0.519  0.1675 -1.6778 -1.4475
   37MOL   H17922571   6.224   5.657   0.256  0.9616  2.0265  0.3746
   37MOL   H18022572   6.110   5.639   0.386  0.0970 -0.3227 -0.8154
   37MOL   H18122573   6.227   5.429   0.314  0.0754  0.9149 -0.8451
   37MOL   H18222574   6.377   5.490   0.376  0.4971 -1.1143  0.9913
   37MOL   H18322575   6.273   5.342   0.544 -0.1701  0.5894  0.5082
   37MOL   H18422576   6.122   5.430   0.550 -0.7347 -0.4688 -2.2733
   37MOL   H18522577   6.273   5.503   0.606  0.4593 -0.2127  0.2911
   37MOL   H18622578   5.663   6.098   0.934 -0.7556 -0.2068 -0.0397
   37MOL   H18722579   5.663   5.967   0.818  1.9518 -0.6957  1.2605
   37MOL   C18822580   5.542   5.934   1.005 -0.0108  0.2397 -0.0500
   37MOL   O18922581   5.524   5.805   0.943 -0.5271 -0.2192  0.0593
   37MOL   C19022582   5.427   5.716   1.000 -0.3631  0.2189  0.9279
   37MOL   C19122583   5.461   5.576   0.960  0.3554 -0.4817  0.2656
   37MOL   C19222584   5.602   5.528   1.016  0.0636 -0.6964  0.0994
   37MOL   C19322585   5.635   5.374   0.998 -0.0398 -0.5447  0.5914
   37MOL   C19422586   5.776   5.343   1.052  0.4394  0.3839 -0.2896
   37MOL   C19522587   5.889   5.420   0.977 -0.8741 -0.3655 -0.3350
   37MOL   C19622588   6.033   5.375   1.013 -0.3759  0.0230 -0.2752
   37MOL   C19722589   6.140   5.447   0.921  0.7594 -0.0848  0.1614
   37MOL   C19822590   5.419   6.018   0.977 -0.0376 -0.0234  0.2119
   37MOL   H19922591   5.558   5.923   1.113  0.7509  2.1141  0.0501
   37MOL   H20022592   5.425   5.716   1.109  0.6150  0.1657  0.9496
   37MOL   H20122593   5.329   5.748   0.965 -0.5580 -0.7007  0.6198
   37MOL   H20222594   5.468   5.565   0.852 -0.3916 -0.6665  0.2283
   37MOL   H20322595   5.381   5.511   0.997 -1.0879  1.5211  0.7874
   37MOL   H20422596   5.675   5.586   0.959 -0.3605  0.4637  0.7238
   37MOL   H20522597   5.627   5.565   1.115  1.0706 -3.7096  1.0034
   37MOL   H20622598   5.564   5.313   1.055 -0.3694 -2.1074 -1.4313
   37MOL   H20722599   5.637   5.337   0.895  2.9176  1.6353 -0.1925
   37MOL   H20822600   5.791   5.344   1.160  1.8091  0.8848 -0.4757
   37MOL   H20922601   5.798   5.238   1.030 -0.2920  0.3735 -1.0000
   37MOL   H21022602   5.894   5.526   0.999  1.4533 -0.5899  0.3325
   37MOL   H21122603   5.875   5.417   0.869  0.7008  0.2905 -0.5629
   37MOL   H21222604   6.046   5.407   1.116 -2.2262  0.1928 -0.0794
   37MOL   H21322605   6.043   5.267   1.010 -1.7294 -0.0701 -2.1492
   37MOL   H21422606   6.244   5.427   0.946 -0.0954 -0.3835  3.7657
   37MOL   H21522607   6.115   5.553   0.929  2.3250  0.2912  0.1774
   37MOL   H21622608   6.132   5.426   0.815  0.1711 -1.4990  0.4831
   37MOL   H21722609   5.432   6.057   0.876  2.8704 -0.5910  0.3289
   37MOL   H21822610   5.329   5.959   0.993 -1.0998  1.6375  0.4823
   37MOL   C21922611   5.408   6.144   1.064  0.1578 -0.3948  0.2645
   37MOL   O22022612   5.391   6.096   1.197 -0.5445  0.1463 -0.4955
   37MOL   C22122613   5.414   6.188   1.298 -0.5960  0.6499  0.3609
   37MOL   C22222614   5.562   6.171   1.338 -0.5034  0.4373  0.5303
   37MOL   C22322615   5.606   6.270   1.455 -0.3549  0.7892  0.2694
   37MOL   C22422616   5.744   6.244   1.511 -0.9650  0.0227 -0.5131
   37MOL   C22522617   5.776   6.338   1.625  0.5062  0.5472  0.2336
   37MOL   C22622618   5.787   6.490   1.600  0.0689 -0.0627 -0.1227
   37MOL   C22722619   5.891   6.532   1.495 -0.5082  0.1342 -0.2195
   37MOL   C22822620   5.925   6.682   1.488 -0.4288  0.1013 -0.0839
   37MOL   C22922621   5.298   6.252   1.018  0.3106  0.7229  0.0220
   37MOL   H23022622   5.509   6.184   1.053 -0.5041  1.6011  1.1719
   37MOL   H23122623   5.359   6.160   1.388 -0.3114  0.3872  0.4514
   37MOL   H23222624   5.385   6.292   1.283  3.2975  1.7473 -0.2130
   37MOL   H23322625   5.628   6.191   1.254 -0.7598 -1.4071 -0.1309
   37MOL   H23422626   5.572   6.069   1.374 -0.7263  0.3816  0.4358
   37MOL   H23522627   5.591   6.373   1.424 -2.7167  0.5830  0.5762
   37MOL   H23622628   5.533   6.270   1.536 -1.1844  0.9580 -0.4732
   37MOL   H23722629   5.751   6.147   1.560  1.8714  1.0738  1.3189
   37MOL   H23822630   5.822   6.235   1.435 -1.6091 -2.7154 -0.8908
   37MOL   H23922631   5.711   6.323   1.711 -0.6465  1.0399 -0.5412
   37MOL   H24022632   5.865   6.296   1.674  1.3459  1.4702 -0.4769
   37MOL   H24122633   5.793   6.543   1.694  0.8445  1.0059 -0.7661
   37MOL   H24222634   5.687   6.512   1.561 -0.2287 -0.5986  0.3270
   37MOL   H24322635   5.984   6.476   1.507 -0.8354 -0.7109 -1.4865
   37MOL   H24422636   5.859   6.500   1.396 -2.8997  0.5809  0.3851
   37MOL   H24522637   5.848   6.734   1.431 -1.7359 -1.1774  0.4822
   37MOL   H24622638   6.029   6.680   1.456  0.1680 -0.1866  1.8168
   37MOL   H24722639   5.918   6.732   1.585  2.6028 -0.0826  0.2859
   37MOL   H24822640   5.203   6.206   1.044  1.5867 -2.3638 -0.5015
   37MOL   H24922641   5.304   6.338   1.084  0.8368  1.4104 -0.9054
   37MOL   C25022642   5.298   6.307   0.869 -0.0914 -0.8402 -0.8712
   37MOL   O25122643   5.414   6.391   0.870  0.4785  0.3585  0.2259
   37MOL   C25222644   5.474   6.410   0.744  0.4250 -0.0130  0.1558
   37MOL   C25322645   5.612   6.479   0.766 -0.2052 -0.2395  0.4063
   37MOL   C25422646   5.707   6.385   0.840  0.5619 -0.0506 -0.5028
   37MOL   C25522647   5.851   6.438   0.846 -0.1140 -0.6151 -0.6370
   37MOL   C25622648   5.946   6.344   0.933  0.1378  0.6878  0.1208
   37MOL   C25722649   6.088   6.330   0.873 -0.1938  0.2163 -0.2510
   37MOL   C25822650   6.166   6.224   0.955  0.8648 -1.0580 -0.2502
   37MOL   C25922651   6.313   6.199   0.916 -0.2327  0.6399 -0.3744
   37MOL   C26022652   5.160   6.368   0.832 -0.3450  0.5476  0.5216
   37MOL   H26122653   5.317   6.217   0.810 -1.5622 -0.5929 -1.7639
   37MOL   H26222654   5.403   6.460   0.677 -0.5915 -0.8494  0.5789
   37MOL   H26322655   5.496   6.311   0.705 -4.4960 -0.5093 -1.8409
   37MOL   H26422656   5.595   6.572   0.822  3.1217  1.4600 -1.2961
   37MOL   H26522657   5.655   6.504   0.669 -0.5994  0.3292  0.3721
   37MOL   H26622658   5.673   6.358   0.940  0.6204 -1.2615 -0.8016
   37MOL   H26722659   5.707   6.290   0.787 -0.9949  0.7056 -1.8530
   37MOL   H26822660   5.891   6.430   0.745  0.9735  0.8988 -0.3477
   37MOL   H26922661   5.839   6.543   0.873 -1.4283  0.1622 -4.0438
   37MOL   H27022662   5.940   6.379   1.036  1.4949 -0.4916  0.6180
   37MOL   H27122663   5.901   6.244   0.939  0.8877  0.3992  1.1459
   37MOL   H27222664   6.135   6.429   0.870 -3.1267  1.7821  2.4287
   37MOL   H27322665   6.088   6.309   0.766 -0.1889 -0.6716 -0.0801
   37MOL   H27422666   6.157   6.268   1.054 -1.6448  1.0406 -1.3517
   37MOL   H27522667   6.108   6.132   0.952 -0.8061 -0.1737  2.7276
   37MOL   H27622668   6.367   6.284   0.956  0.3704 -0.2478  0.7407
   37MOL   H27722669   6.333   6.190   0.810  2.4499 -0.2188  0.1639
   37MOL   H27822670   6.343   6.116   0.981 -1.1976  1.0190  0.5890
   37MOL   H27922671   5.135   6.444   0.905 -0.8554  1.0964 -0.2235
   37MOL   H28022672   5.182   6.414   0.736 -0.6355 -0.5343 -0.0670
   37MOL   C28122673   5.048   6.258   0.802 -0.3495  1.4022  0.1157
   37MOL   O28222674   5.107   6.175   0.696  0.3256 -0.5054 -0.4348
   37MOL   C28322675   5.059   6.049   0.706  0.7681  0.1585  0.2827
   37MOL   C28422676   5.129   5.963   0.611 -0.4125  0.2045  0.7714
   37MOL   C28522677   5.283   5.955   0.641  0.0918  0.1419  0.5221
   37MOL   C28622678   5.362   5.859   0.551  0.1207  0.2826  0.2524
   37MOL   C28722679   5.511   5.871   0.564 -0.4883  0.4166 -0.0194
   37MOL   C28822680   5.588   5.828   0.435  0.1690  0.4774 -0.4106
   37MOL   C28922681   5.736   5.811   0.455  0.6507  0.2224 -0.3584
   37MOL   C29022682   5.802   5.769   0.328  0.2600 -0.1809 -0.2544
   37MOL   C29122683   4.908   6.303   0.767 -0.0924 -0.9040 -0.0872
   37MOL   H29222684   5.038   6.202   0.895  3.1529  1.9338  0.8848
   37MOL   H29322685   4.959   6.042   0.663  0.0967  2.8230  1.3358
   37MOL   H29422686   5.059   5.994   0.800  0.9239  0.1076  0.2520
   37MOL   H29522687   5.101   5.991   0.510  0.0263  2.2624  1.1958
   37MOL   H29622688   5.084   5.864   0.619 -0.3270  0.3765  4.0651
   37MOL   H29722689   5.331   6.053   0.644  1.2112 -0.4105  1.0884
   37MOL   H29822690   5.290   5.912   0.741 -1.5366 -2.4216 -0.3997
   37MOL   H29922691   5.343   5.755   0.576  1.0580 -0.1539 -0.8218
   37MOL   H30022692   5.331   5.884   0.449  2.3507 -0.6760 -0.6931
   37MOL   H30122693   5.542   5.974   0.581  0.0210  0.2509  0.0433
   37MOL   H30222694   5.533   5.807   0.648  0.4327 -1.7703 -1.8815
   37MOL   H30322695   5.561   5.895   0.353 -2.8435 -0.4340 -0.2362
   37MOL   H30422696   5.544   5.735   0.398 -1.3071  0.7118  0.6695
   37MOL   H30522697   5.767   5.899   0.511 -1.4618  0.4633  0.4659
   37MOL   H30622698   5.755   5.727   0.522  0.9079 -0.4574 -1.2759
   37MOL   H30722699   5.906   5.745   0.348  0.8241 -0.7170 -3.5191
   37MOL   H30822700   5.796   5.841   0.246  0.6930  0.9352  0.6827
   37MOL   H30922701   5.753   5.679   0.290 -1.0438  0.3888  0.0527
   37MOL   H31022702   4.918   6.348   0.668 -2.0940  0.2547  0.2156
   37MOL   H31122703   4.836   6.222   0.753 -0.7474 -0.2639 -0.4962
   37MOL   C31222704   4.858   6.415   0.861 -0.6843 -0.3105  0.4593
   37MOL   O31322705   4.851   6.353   0.990 -0.6329 -0.7169 -0.1870
   37MOL   C31422706   4.854   6.450   1.097  0.0605  0.0892  0.6780
   37MOL   C31522707   4.906   6.398   1.231 -0.0702  0.3541 -0.6334
   37MOL   C31622708   4.810   6.314   1.309  0.8022 -0.4248 -0.1952
   37MOL   C31722709   4.864   6.245   1.439 -0.7819 -0.2216  0.3473
   37MOL   C31822710   4.761   6.160   1.511 -0.0653 -0.5669 -0.2862
   37MOL   C31922711   4.807   6.071   1.630  0.4004 -0.1583 -0.3004
   37MOL   C32022712   4.869   6.136   1.760  0.5458 -0.8138  0.7297
   37MOL   C32122713   4.901   6.038   1.870 -0.3347  0.5495  0.2775
   37MOL   C32222714   4.703   6.442   0.837 -0.5339  0.3428  0.5223
   37MOL   H32322715   4.908   6.510   0.840  1.0633 -1.0487  1.2501
   37MOL   H32422716   4.755   6.494   1.110 -0.3356 -0.5385 -0.1882
   37MOL   H32522717   4.929   6.523   1.065 -0.4642  0.0983 -0.5827
   37MOL   H32622718   4.932   6.491   1.281  0.5245  1.0889 -2.2803
   37MOL   H32722719   4.995   6.337   1.217 -2.5291 -3.1263 -1.8662
   37MOL   H32822720   4.719   6.371   1.328  1.7696  1.0871 -0.0242
   37MOL   H32922721   4.773   6.237   1.240 -3.6783 -2.2656  3.9368
   37MOL   H33022722   4.958   6.197   1.414 -0.9072 -0.0591 -0.4660
   37MOL   H33122723   4.898   6.315   1.515 -1.5549 -3.0600  3.3828
   37MOL   H33222724   4.681   6.226   1.545 -0.8275 -0.8335 -1.5437
   37MOL   H33322725   4.712   6.096   1.438 -0.2799  0.7457 -1.3092
   37MOL   H33422726   4.872   6.002   1.577  1.1408  0.8110 -0.6693
   37MOL   H33522727   4.724   6.007   1.663  0.3420  0.4799  0.8267
   37MOL   H33622728   4.956   6.198   1.738 -0.5368  1.0977  1.7125
   37MOL   H33722729   4.797   6.207   1.801  0.9405 -0.5675  0.9959
   37MOL   H33822730   4.805   6.007   1.911 -0.6688 -0.2022 -1.0456
   37MOL   H33922731   4.970   6.080   1.943  2.7293 -0.3404 -1.9952
   37MOL   H34022732   4.947   5.946   1.834  1.8240  0.8840  2.0992
   37MOL   H34122733   4.652   6.349   0.861  1.5812 -1.1797 -0.7831
   37MOL   H34222734   4.663   6.519   0.904 -3.1534 -1.7174  1.4145
   37MOL   C34322735   4.661   6.489   0.699 -0.3804  0.3126 -1.0942
   37MOL   O34422736   4.731   6.609   0.682 -0.4262  0.2271  0.1336
   37MOL   C34522737   4.793   6.623   0.557  0.3143  0.0223  0.0998
   37MOL   C34622738   4.854   6.766   0.548 -0.1121  0.3333  0.0003
   37MOL   C34722739   4.958   6.804   0.652  0.5923 -0.2060  0.3202
   37MOL   C34822740   5.014   6.947   0.646 -0.1844 -0.0491  0.4506
   37MOL   C34922741   5.154   6.969   0.712 -0.4346  0.4250 -0.5912
   37MOL   C35022742   5.267   6.907   0.636  0.4863 -0.1359 -0.6884
   37MOL   C35122743   5.406   6.921   0.711  0.6764 -0.2547  0.0114
   37MOL   C35222744   5.398   6.832   0.829 -0.5360  0.4496  0.2057
   37MOL   C35322745   4.513   6.515   0.654 -0.0040  0.0122  0.6907
   37MOL   H35422746   4.695   6.415   0.626 -0.2514  0.7187 -1.4524
   37MOL   H35522747   4.721   6.611   0.475  0.2821  2.3812 -0.2649
   37MOL   H35622748   4.876   6.555   0.539 -0.8985 -1.6581  0.7437
   37MOL   H35722749   4.777   6.842   0.552  0.7592  1.1132  3.3237
   37MOL   H35822750   4.904   6.773   0.451  2.4465  0.2468  1.2856
   37MOL   H35922751   4.906   6.780   0.745  0.6950  1.1151  0.7295
   37MOL   H36022752   5.042   6.734   0.661  1.1440  0.2289 -1.4084
   37MOL   H36122753   5.013   6.976   0.541 -0.9160  0.2410  0.5373
   37MOL   H36222754   4.939   7.007   0.698  0.5006  2.0191 -0.8982
   37MOL   H36322755   5.170   7.075   0.734 -1.0274  0.1339  1.3099
   37MOL   H36422756   5.145   6.921   0.809 -2.0914  1.0599 -0.4177
   37MOL   H36522757   5.270   6.955   0.538  0.2686 -1.7196 -1.4911
   37MOL   H36622758   5.248   6.807   0.597  1.9255 -0.6873  0.0192
   37MOL   H36722759   5.480   6.872   0.648 -0.7567 -4.8794  1.6562
   37MOL   H36822760   5.424   7.023   0.743 -1.7134  0.7325 -1.6141
   37MOL   H36922761   5.375   6.729   0.801 -0.7556  0.3421  0.7612
   37MOL   H37022762   5.318   6.852   0.901 -0.2070  0.8807  0.4495
   37MOL   H37122763   5.492   6.834   0.884  0.3215  1.6833 -1.2937
   37MOL   H37222764   4.503   6.612   0.703  1.3999  0.2109  0.5868
   37MOL   H37322765   4.520   6.527   0.546  2.1981 -0.4049  0.7596
   37MOL   C37422766   4.408   6.404   0.700 -0.2133  0.4111 -0.4784
   37MOL   O37522767   4.411   6.404   0.835  0.4309  0.1901 -0.2383
   37MOL   C37622768   4.288   6.369   0.903 -0.0812 -0.0640  0.1329
   37MOL   C37722769   4.329   6.352   1.050  0.4874  0.3176  0.2686
   37MOL   C37822770   4.421   6.228   1.062 -0.1780  0.1226  0.0598
   37MOL   C37922771   4.442   6.199   1.212  0.4771  0.0283 -0.2095
   37MOL   C38022772   4.308   6.149   1.282 -0.5785 -0.2452 -0.2694
   37MOL   C38122773   4.340   6.086   1.419 -0.3529  0.0063 -0.1033
   37MOL   C38222774   4.218   6.025   1.488  1.0282  0.3275 -0.0744
   37MOL   C38322775   4.103   6.114   1.494  0.8048  0.2053  0.6049
   37MOL   C38422776   4.415   6.258   0.639 -0.6181  0.6059 -0.3262
   37MOL   H38522777   4.312   6.443   0.670 -0.6154 -0.1127  0.1009
   37MOL   H38622778   4.242   6.280   0.860  2.2012  0.1775 -2.9012
   37MOL   H38722779   4.213   6.447   0.885 -1.3045 -1.5403 -1.3214
   37MOL   H38822780   4.237   6.342   1.108 -0.1951 -0.1863 -0.8638
   37MOL   H38922781   4.371   6.445   1.088  0.1882  0.4976  0.1609
   37MOL   H39022782   4.383   6.137   1.015  1.1591  0.1850 -1.2012
   37MOL   H39122783   4.519   6.247   1.018 -1.0450  1.5382 -1.2705
   37MOL   H39222784   4.519   6.122   1.225 -0.4088 -1.3034 -2.4752
   37MOL   H39322785   4.475   6.292   1.259  3.1111  1.1774 -4.0274
   37MOL   H39422786   4.234   6.228   1.301 -0.8548 -0.8502  1.1881
   37MOL   H39522787   4.261   6.072   1.221  1.4134 -0.0210 -2.1361
   37MOL   H39622788   4.386   6.168   1.474 -1.9867  1.7062 -1.1901
   37MOL   H39722789   4.407   6.002   1.407  0.1556  0.2723  0.8272
   37MOL   H39822790   4.200   5.932   1.434  0.7242 -0.3438  1.1630
   37MOL   H39922791   4.238   5.989   1.589  1.7951  0.9627  0.0064
   37MOL   H40022792   4.123   6.206   1.550  1.5655  0.1700  0.3882
   37MOL   H40122793   4.028   6.053   1.545  1.7921 -3.0591 -1.7372
   37MOL   H40222794   4.066   6.138   1.395 -2.3554 -0.2582  1.5882
   37MOL   H40322795   4.479   6.189   0.693 -2.4395 -0.8830 -0.0370
   37MOL   H40422796   4.312   6.225   0.650 -0.3707 -0.4582 -1.1502
   37MOL   C40522797   4.444   6.259   0.489  0.4481  1.0213 -0.4535
   37MOL   O40622798   4.337   6.318   0.410  0.1427  0.3700  0.0822
   37MOL   C40722799   4.366   6.395   0.295  0.6560 -0.2300 -0.4073
   37MOL   C40822800   4.236   6.408   0.216  0.0617  0.2385  0.0771
   37MOL   C40922801   4.245   6.492   0.096 -0.2120 -0.2359  0.6025
   37MOL   C41022802   4.108   6.499   0.014 -0.1331 -0.0828 -0.5511
   37MOL   C41122803   4.112   6.603   7.675  0.6339 -0.6715  0.6505
   37MOL   C41222804   3.975   6.630   7.607 -0.3215  0.1675 -0.2028
   37MOL   C41322805   3.992   6.720   7.478  0.3120 -0.0651 -0.3829
   37MOL   C41422806   3.871   6.711   7.386 -0.3933 -0.1423  0.2469
   37MOL   C41522807   4.480   6.122   0.427 -0.1991 -0.2330  0.2832
   37MOL   H41622808   4.532   6.322   0.473  1.8943 -0.8420 -0.0067
   37MOL   H41722809   4.435   6.338   0.232  0.6292 -1.8154  0.9777
   37MOL   H41822810   4.424   6.484   0.320  0.9854 -0.4784 -0.2773
   37MOL   H41922811   4.163   6.452   0.284  0.3902  1.1357 -0.1441
   37MOL   H42022812   4.210   6.307   0.185  0.0739  0.0066  0.8099
   37MOL   H42122813   4.289   6.591   0.106 -1.2736  0.4620 -1.3699
   37MOL   H42222814   4.309   6.446   0.021  0.0267  0.0151  0.6515
   37MOL   H42322815   4.087   6.396   7.760  1.3169 -0.3236 -0.8369
   37MOL   H42422816   4.035   6.536   0.086 -2.3781 -0.4367 -2.6066
   37MOL   H42522817   4.153   6.700   7.705 -1.2174  0.7769 -1.3398
   37MOL   H42622818   4.184   6.572   7.599 -0.2414  1.2872 -1.0127
   37MOL   H42722819   3.907   6.676   7.679  1.2738  0.0276  1.4306
   37MOL   H42822820   3.931   6.534   7.583  0.4530  0.0866 -1.3039
   37MOL   H42922821   4.012   6.822   7.510 -0.4570 -0.3322  0.9875
   37MOL   H43022822   4.082   6.693   7.423  1.8404  1.8416  1.0983
   37MOL   H43122823   3.775   6.731   7.433  0.4599  0.1471  1.8983
   37MOL   H43222824   3.869   6.612   7.342  3.1218  0.4212 -1.3973
   37MOL   H43322825   3.881   6.784   7.305  1.8294  0.3548  0.9140
   37MOL   H43422826   4.406   6.047   0.457  0.7800 -1.2585  0.1600
   37MOL   H43522827   4.468   6.123   0.318 -2.3608  2.5346  0.5006
   37MOL   C43622828   4.613   6.069   0.459 -0.2717  0.3912 -0.1683
   37MOL   O43722829   4.696   6.101   0.350  0.7790  0.2582  0.4328
   37MOL   C43822830   4.821   6.168   0.372  0.0857 -0.0471  0.0633
   37MOL   C43922831   4.854   6.264   0.253  0.5479  0.3811  0.2930
   37MOL   C44022832   4.752   6.377   0.251  0.4570  0.6453 -0.3076
   37MOL   C44122833   4.780   6.486   0.150 -0.6321  0.5234  0.4944
   37MOL   C44222834   4.679   6.605   0.149 -0.3335  0.7013  0.3679
   37MOL   C44322835   4.720   6.712   0.035  0.3730 -0.4053  0.0460
   37MOL   C44422836   4.659   6.672   7.682  0.5099 -0.2782 -0.0637
   37MOL   C44522837   4.727   6.745   7.569 -0.1189  0.7876  0.5418
   37MOL   C44622838   4.636   5.915   0.463 -0.2911  0.1063  0.8284
   37MOL   H44722839   4.649   6.105   0.555  0.6492 -1.9957  0.4345
   37MOL   H44822840   4.828   6.223   0.466  0.3311  1.3022 -0.7468
   37MOL   H44922841   4.900   6.093   0.384  0.1254  0.3417  2.4631
   37MOL   H45022842   4.854   6.202   0.164  0.7624  1.8169 -0.7088
   37MOL   H45122843   4.959   6.291   0.257  1.4490 -2.5775 -1.6524
   37MOL   H45222844   4.652   6.335   0.244 -0.0979  1.3447  2.6084
   37MOL   H45322845   4.758   6.410   0.355 -1.3993  0.3176 -0.0852
   37MOL   H45422846   4.877   6.529   0.175  0.0623 -0.7580  0.0606
   37MOL   H45522847   4.780   6.443   0.050 -1.7916 -0.4109  0.8757
   37MOL   H45622848   4.579   6.573   0.120  0.9172 -0.0005 -3.5398
   37MOL   H45722849   4.659   6.655   0.243  2.0229  0.4434  1.0550
   37MOL   H45822850   4.828   6.708   0.022  0.2969 -0.2133 -0.6649
   37MOL   H45922851   4.695   6.816   0.053 -0.3694 -0.2312 -1.8827
   37MOL   H46022852   4.672   6.567   7.657  1.3911  0.0364 -0.9786
   37MOL   H46122853   4.551   6.681   7.687  0.5927  0.0659  1.3965
   37MOL   H46222854   4.689   6.691   7.482  1.2886  2.1877 -0.9866
   37MOL   H46322855   4.836   6.741   7.580 -0.1799 -1.6625  0.5850
   37MOL   H46422856   4.696   6.849   7.560 -1.4318  0.4272  0.8222
   37MOL   H46522857   4.615   5.895   0.358  0.1783  0.7837  0.6054
   37MOL   H46622858   4.743   5.911   0.485  0.7363  0.9724 -3.5451
   37MOL   C46722859   4.548   5.840   0.556  0.1074 -0.0221 -0.4175
   37MOL   O46822860   4.549   5.907   0.684 -0.0729  0.0228 -0.3700
   37MOL   C46922861   4.650   5.888   0.782 -0.5268 -0.3263 -0.4201
   37MOL   C47022862   4.649   5.985   0.888 -0.4579  0.4990 -0.1592
   37MOL   C47122863   4.779   6.001   0.961  0.2036 -0.9085 -0.2077
   37MOL   C47222864   4.817   5.901   1.076 -0.5200 -0.3982 -0.5376
   37MOL   C47322865   4.969   5.932   1.105 -0.4071  0.4141  0.1701
   37MOL   C47422866   5.010   5.828   1.215  0.4776 -0.3164 -0.3725
   37MOL   C47522867   5.147   5.834   1.278  0.3640 -0.2250  0.2426
   37MOL   C47622868   5.176   5.706   1.356  0.1351 -0.2339 -0.1610
   37MOL   C47722869   4.575   5.686   0.570 -0.0487  0.1445  0.7963
   37MOL   H47822870   4.451   5.847   0.508 -0.4749  2.0918  1.0318
   37MOL   H47922871   4.738   5.891   0.718 -0.7492  0.8237 -0.6760
   37MOL   H48022872   4.638   5.787   0.822 -1.7860 -0.4463 -1.0637
   37MOL   H48122873   4.578   5.962   0.967 -0.3554  0.0879 -0.1884
   37MOL   H48222874   4.612   6.079   0.848  1.3280  0.8321 -1.0776
   37MOL   H48322875   4.860   5.999   0.888 -0.1706  0.0670 -0.6611
   37MOL   H48422876   4.780   6.102   1.002 -0.4102 -0.9167 -0.1731
   37MOL   H48522877   4.759   5.911   1.167  3.0747  0.6035  1.7516
   37MOL   H48622878   4.785   5.801   1.047  1.7155 -1.0330 -0.8983
   37MOL   H48722879   5.035   5.930   1.018  1.4873  0.8323  1.5756
   37MOL   H48822880   4.967   6.038   1.132  0.3781  0.6619 -0.7220
   37MOL   H48922881   4.984   5.730   1.175 -0.3337  0.4024 -1.6674
   37MOL   H49022882   4.938   5.845   1.295 -2.1199 -0.2414 -2.6296
   37MOL   H49122883   5.225   5.853   1.204  0.3369 -1.7730 -0.2052
   37MOL   H49222884   5.158   5.922   1.341 -2.5334  0.3189  0.0447
   37MOL   H49322885   5.112   5.697   1.444 -1.2699 -0.6098 -1.1929
   37MOL   H49422886   5.277   5.702   1.396 -0.7284  0.6764  2.2086
   37MOL   H49522887   5.161   5.614   1.298 -1.6725  0.4179 -0.7756
   37MOL   H49622888   4.675   5.668   0.608 -0.8410 -1.9395  1.9805
   37MOL   H49722889   4.495   5.646   0.632  0.2312 -1.2366  0.2925
   37MOL   C49822890   4.571   5.603   0.443  0.5296  0.3354  0.1490
   37MOL   O49922891   4.685   5.640   0.354 -0.5436 -0.3907  0.3007
   37MOL   C50022892   4.690   5.585   0.224  0.4121 -0.4024 -0.7894
   37MOL   C50122893   4.813   5.633   0.164  0.3751 -0.1238 -0.7891
   37MOL   C50222894   4.813   5.778   0.116 -0.7365  0.1556  0.3907
   37MOL   C50322895   4.937   5.817   0.029  1.0259  0.7895 -0.2603
   37MOL   C50422896   5.046   5.902   0.105  0.0704 -0.1927 -0.1914
   37MOL   C50522897   5.183   5.933   0.035  0.7404  0.1823  0.0834
   37MOL   C50622898   5.300   5.955   0.138  0.1348  0.2650 -0.6745
   37MOL   C50722899   5.435   5.930   0.067  0.0258  1.4570  0.3222
   37MOL   C50822900   4.437   5.613   0.366  0.0282  0.4535 -0.4530
   37MOL   H50922901   4.591   5.501   0.478  0.7242  0.6098  0.8479
   37MOL   H51022902   4.607   5.624   0.165  1.0604  0.2472 -1.2856
   37MOL   H51122903   4.691   5.477   0.217 -2.1503 -0.4192 -1.3755
   37MOL   H51222904   4.834   5.572   0.076 -2.9293 -2.2305 -0.1970
   37MOL   H51322905   4.893   5.607   0.233  1.1620 -3.8257 -2.9228
   37MOL   H51422906   4.722   5.780   0.055 -1.2277 -0.2906  1.1016
   37MOL   H51522907   4.796   5.844   0.201  3.3371 -0.9904  2.1860
   37MOL   H51622908   4.976   5.732   7.747 -1.0237 -1.1765  1.2013
   37MOL   H51722909   4.902   5.873   7.716  0.6993  0.6959 -0.1883
   37MOL   H51822910   4.999   5.990   0.150  0.6664 -0.0756  0.2165
   37MOL   H51922911   5.073   5.847   0.195  2.0405 -1.1367 -1.3365
   37MOL   H52022912   5.167   6.018   7.743  0.5553 -0.1133 -0.2513
   37MOL   H52122913   5.217   5.850   7.747 -1.2866 -0.2667 -0.4925
   37MOL   H52222914   5.298   6.060   0.165  1.4221 -0.2344  1.4422
   37MOL   H52322915   5.289   5.886   0.221  2.3666 -3.0633 -2.9727
   37MOL   H52422916   5.410   5.836   0.018 -0.7191  1.2385  1.1140
   37MOL   H52522917   5.514   5.929   0.142 -0.0680  0.4547  0.4177
   37MOL   H52622918   5.448   6.006   7.765 -1.5319  1.6625  0.2426
   37MOL   H52722919   4.441   5.709   0.316 -1.5261  1.5099  1.3736
   37MOL   H52822920   4.430   5.535   0.290 -0.9790  2.2025 -2.2202
   37MOL   C52922921   4.313   5.610   0.447 -0.6495 -0.0425  0.1844
   37MOL   O53022922   4.302   5.491   0.510  0.0261 -0.2579 -0.0604
   37MOL   C53122923   4.226   5.493   0.629  0.8163 -0.0587 -0.0253
   37MOL   C53222924   4.194   5.346   0.677 -0.2354 -0.8520  0.4712
   37MOL   C53322925   4.105   5.285   0.575 -0.9040  0.1072  0.2831
   37MOL   C53422926   3.995   5.186   0.624 -0.3818  0.2253  0.1535
   37MOL   C53522927   3.959   5.073   0.536 -0.4955  0.0987  0.0823
   37MOL   C53622928   3.880   5.116   0.409 -0.4484  0.0310  0.4251
   37MOL   C53722929   3.854   4.987   0.330 -0.4079 -0.2145  0.0633
   37MOL   C53822930   3.739   4.999   0.233  0.1684 -0.0742  0.0639
   37MOL   C53922931   4.179   5.635   0.365  0.3248  0.1926 -0.5920
   37MOL   H54022932   4.320   5.685   0.525 -0.5162  0.6908 -0.5276
   37MOL   H54122933   4.267   5.552   0.711 -0.9097 -0.9925  1.5568
   37MOL   H54222934   4.124   5.528   0.611  0.8601  0.0574 -0.0490
   37MOL   H54322935   4.140   5.352   0.772  0.7860  0.6242  0.9890
   37MOL   H54422936   4.291   5.297   0.684  1.4089  1.7522 -2.3951
   37MOL   H54522937   4.064   5.359   0.506  1.1195  1.6290  0.6705
   37MOL   H54622938   4.170   5.219   0.516 -0.1543  1.4845 -0.4552
   37MOL   H54722939   4.021   5.144   0.721 -0.2594  1.3971  0.6321
   37MOL   H54822940   3.903   5.242   0.640 -0.1257  0.2695  1.5834
   37MOL   H54922941   4.049   5.018   0.508 -3.2883 -4.3084 -0.8296
   37MOL   H55022942   3.896   5.001   0.588  0.8926 -0.8616  0.4586
   37MOL   H55122943   3.942   5.193   0.363  0.4533 -0.2749  1.1034
   37MOL   H55222944   3.784   5.161   0.435 -1.3174 -0.8433 -1.1778
   37MOL   H55322945   3.947   4.942   0.294 -0.1083 -1.2993  2.1102
   37MOL   H55422946   3.819   4.912   0.401 -0.0435 -0.7264 -0.2907
   37MOL   H55522947   3.763   5.064   0.149  0.2352 -1.5174 -1.0459
   37MOL   H55622948   3.659   5.049   0.288  2.3054  3.2920  0.2405
   37MOL   H55722949   3.701   4.909   0.186 -0.3049  0.0847  0.1302
   37MOL   H55822950   4.188   5.574   0.276  1.6530 -0.0631 -0.2928
   37MOL   H55922951   4.092   5.602   0.421  0.5794  0.0858 -0.2562
   37MOL   C56022952   4.151   5.784   0.334 -0.5863 -0.0764 -0.9760
   37MOL   O56122953   4.073   5.847   0.440 -0.0822  0.1698  0.0676
   37MOL   C56222954   4.097   5.986   0.459 -0.2455 -0.3809 -0.0482
   37MOL   C56322955   4.088   6.020   0.617 -0.1860  0.5266  0.0194
   37MOL   C56422956   4.185   5.924   0.682 -0.5655  0.0086  0.4217
   37MOL   C56522957   4.211   5.943   0.833 -0.0825  0.0705 -0.6478
   37MOL   C56622958   4.260   5.813   0.902  0.1212 -1.0556 -0.3603
   37MOL   C56722959   4.279   5.844   1.052  0.0221  0.0343 -0.3209
   37MOL   C56822960   4.331   5.723   1.124 -0.8843 -0.6475 -0.2244
   37MOL   C56922961   4.487   5.707   1.123 -0.7160  0.1015  0.2046
   37MOL   C57022962   4.088   5.804   0.203  0.5081 -0.2405  0.4616
   37MOL   H57122963   4.248   5.834   0.328 -0.1742 -0.7288  0.1742
   37MOL   H57222964   4.032   6.048   0.397  0.6180  1.4563  0.8333
   37MOL   H57322965   4.197   6.008   0.420 -1.0424  2.8252 -0.4304
   37MOL   H57422966   3.986   5.998   0.649  0.0999  0.0621  0.6079
   37MOL   H57522967   4.121   6.121   0.643  0.3553  0.0598  1.1501
   37MOL   H57622968   4.159   5.818   0.677 -1.5407  0.3047 -1.3611
   37MOL   H57722969   4.283   5.945   0.639 -0.5792 -0.1155  0.3302
   37MOL   H57822970   4.285   6.021   0.850  0.4127 -0.8668  1.7504
   37MOL   H57922971   4.112   5.969   0.871 -0.5876 -1.0885 -1.1719
   37MOL   H58022972   4.196   5.728   0.883  2.0323 -2.7399  0.5102
   37MOL   H58122973   4.352   5.791   0.848  0.0584 -1.1956 -0.4105
   37MOL   H58222974   4.184   5.865   1.100  0.0425  0.1012 -0.3097
   37MOL   H58322975   4.339   5.934   1.061 -0.6642  0.4508  0.1111
   37MOL   H58422976   4.295   5.720   1.227  0.5507 -0.1132  0.3095
   37MOL   H58522977   4.282   5.635   1.083  1.5120 -1.4565 -1.4368
   37MOL   H58622978   4.523   5.617   1.173 -1.6957 -0.9723 -0.9972
   37MOL   H58722979   4.534   5.793   1.170 -0.6162 -0.4766  1.1678
   37MOL   H58822980   4.522   5.701   1.020  0.8237  3.1415  0.5055
   37MOL   H58922981   4.001   5.737   0.202 -1.5677  2.3630 -1.3114
   37MOL   H59022982   4.056   5.908   0.206 -0.1945 -0.4891  2.1534
   37MOL   C59122983   4.178   5.778   0.078  0.2465 -0.1932 -0.3048
   37MOL   O59222984   4.271   5.884   0.073  0.5716 -0.0669  0.5025
   37MOL   C59322985   4.394   5.865   7.765 -0.2523 -0.9806  0.5814
   37MOL   C59422986   4.495   5.981   0.009  0.1112 -0.4873  0.2317
   37MOL   C59522987   4.424   6.115   7.724  0.2063 -0.1898 -0.0282
   37MOL   C59622988   4.417   6.120   7.568  0.4977 -0.1200  0.0930
   37MOL   C59722989   4.342   6.236   7.509 -0.5298 -0.5181 -0.2753
   37MOL   C59822990   4.420   6.358   7.469 -0.0777 -0.1344  0.3620
   37MOL   C59922991   4.508   6.332   7.346  0.3816  0.0544 -0.2235
   37MOL   C60022992   4.434   6.289   7.226  0.2629 -0.1087 -0.0364
   37MOL   C60122993   4.087   5.806   7.734 -0.4339 -0.0990 -0.2708
   37MOL   H60222994   4.217   5.677   0.072 -5.8964 -2.8123 -0.5012
   37MOL   H60322995   4.382   5.867   7.657  2.0322  1.7533  0.3391
   37MOL   H60422996   4.444   5.773   0.021  2.4172  0.9890  2.3878
   37MOL   H60522997   4.587   5.969   7.727 -1.3158  1.3908 -2.6211
   37MOL   H60622998   4.518   5.979   0.116 -0.7799 -2.0961  0.4101
   37MOL   H60722999   4.325   6.123   7.770  0.1589 -0.9554  0.0109
   37MOL   H60823000   4.480   6.205   7.747 -0.2260 -0.0264  0.4032
   37MOL   H60923001   4.515   6.106   7.521 -0.3333 -1.4404 -1.2739
   37MOL   H61023002   4.371   6.028   7.531  1.4828 -0.1519 -1.0699
   37MOL   H61123003   4.275   6.206   7.428  1.0801 -1.0439 -1.4641
   37MOL   H61223004   4.270   6.272   7.582 -1.8328 -0.7985 -1.4060
   37MOL   H61323005   4.483   6.394   7.551  1.7046  0.9434 -1.4322
   37MOL   H61423006   4.357   6.441   7.439  1.2772  0.3055 -1.3580
   37MOL   H61523007   4.567   6.419   7.318  1.7679 -0.4839  0.9793
   37MOL   H61623008   4.583   6.259   7.375 -0.2248 -0.2960  0.4824
   37MOL   H61723009   4.342   6.345   7.208  1.8994  1.4976 -3.8200
   37MOL   H61823010   4.408   6.183   7.231 -2.1390  0.3240 -2.2433
   37MOL   H61923011   4.496   6.302   7.138  2.2231  1.1558  1.4975
   37MOL   H62023012   4.093   5.910   7.702  0.6477  0.7423  2.5406
   37MOL   H62123013   4.119   5.750   7.647 -2.1872  1.9365 -2.3202
   37MOL   H62223014   3.986   5.769   7.753 -0.7421  0.2158 -1.2281
   38MOL     C123015   6.690   7.439   2.015 -0.5803 -0.4390  0.2200
   38MOL     O223016   6.596   7.445   2.128  0.3577  0.1527 -0.3755
   38MOL     C323017   6.622   7.352   2.231  0.2038  0.6014 -0.2792
   38MOL     C423018   6.499   7.353   2.325 -0.0996 -0.9400 -0.4725
   38MOL     C523019   6.511   7.254   2.439  0.4499  0.5022  0.0269
   38MOL     C623020   6.378   7.207   2.503  0.0234  0.3093 -0.6680
   38MOL     C723021   6.396   7.105   2.615  0.2271 -0.1989  0.4624
   38MOL     C823022   6.265   7.019   2.639  0.2569 -0.2168 -0.0522
   38MOL     C923023   6.240   6.905   2.546 -0.0810 -0.3240  0.3267
   38MOL    C1023024   6.096   6.883   2.512 -0.6888 -0.1921 -0.8262
   38MOL    C1123025   6.832   7.474   2.068  0.0533  0.0248 -0.0320
   38MOL    H1223026   6.671   7.343   1.967 -2.3231  1.4494 -3.0655
   38MOL    H1323027   6.714   7.377   2.284  0.0739 -1.2408  0.8395
   38MOL    H1423028   6.634   7.248   2.202 -2.2013  0.2943 -0.2549
   38MOL    H1523029   6.419   7.332   2.254  0.1408 -2.2848 -0.3442
   38MOL    H1623030   6.493   7.450   2.375 -0.1424 -0.5447 -1.2197
   38MOL    H1723031   6.556   7.163   2.400 -0.5564  0.0236 -0.0169
   38MOL    H1823032   6.586   7.290   2.511  2.1962  1.8538 -2.4005
   38MOL    H1923033   6.314   7.290   2.535 -0.3837 -0.0694 -0.4806
   38MOL    H2023034   6.331   7.160   2.417  0.1785  0.7998 -1.0194
   38MOL    H2123035   6.472   7.032   2.587  0.4489 -0.5568  1.9758
   38MOL    H2223036   6.422   7.155   2.708  1.5234 -0.5697  0.3084
   38MOL    H2323037   6.174   7.079   2.639 -0.5122 -1.3434  1.9770
   38MOL    H2423038   6.266   6.983   2.742  2.6873 -0.3460 -0.0853
   38MOL    H2523039   6.285   6.930   2.450  1.7086  0.8376  1.4295
   38MOL    H2623040   6.290   6.821   2.595 -0.0090  1.0092  2.5758
   38MOL    H2723041   6.096   6.807   2.434 -0.5155  0.3103 -1.3153
   38MOL    H2823042   6.041   6.963   2.463 -1.0651 -0.3035 -0.5950
   38MOL    H2923043   6.040   6.847   2.599 -1.1545 -2.4903 -2.0542
   38MOL    H3023044   6.839   7.553   2.143 -0.0057 -0.4669  0.4980
   38MOL    H3123045   6.856   7.383   2.123  1.9345 -1.3313 -2.9584
   38MOL    H3223046   6.651   7.512   1.943 -0.3520 -0.3901  0.1428
   38MOL    C3323047   6.933   7.486   1.953 -0.5013 -0.5370 -0.4317
   38MOL    O3423048   6.966   7.354   1.910 -0.4332 -0.1265  0.1087
   38MOL    C3523049   6.928   7.309   1.788  0.7190  0.2025  0.0537
   38MOL    C3623050   6.970   7.164   1.776  0.5960  0.0542 -0.0937
   38MOL    C3723051   6.883   7.072   1.868 -0.5484  0.3064 -0.4468
   38MOL    C3823052   6.736   7.057   1.840 -0.4618  0.4638  0.1629
   38MOL    C3923053   6.659   6.941   1.902  0.5328  0.7172 -1.3639
   38MOL    C4023054   6.603   6.973   2.035 -0.1339 -0.4376 -0.3810
   38MOL    C4123055   6.516   6.859   2.099  0.3349 -0.6358  0.0359
   38MOL    C4223056   6.480   6.881   2.250  0.3253  0.3445  0.2991
   38MOL    C4323057   7.056   7.574   2.001  0.7467 -0.3279  0.1250
   38MOL    H4423058   6.877   7.539   1.876  2.8312  1.2157 -1.7236
   38MOL    H4523059   6.971   7.351   1.697 -0.4382 -2.0294 -1.5891
   38MOL    H4623060   6.821   7.328   1.783  0.4325 -1.2670  0.3373
   38MOL    H4723061   7.076   7.153   1.797  0.8236 -0.1018 -1.2594
   38MOL    H4823062   6.968   7.138   1.670 -2.5969  0.3958 -0.1589
   38MOL    H4923063   6.919   6.970   1.854  1.4121  1.0839 -1.2748
   38MOL    H5023064   6.892   7.093   1.974  2.3320  1.1077 -0.7998
   38MOL    H5123065   6.698   7.156   1.865  0.3790  0.5037  1.3309
   38MOL    H5223066   6.730   7.054   1.731 -0.7157 -1.0862  0.2176
   38MOL    H5323067   6.576   6.937   1.831  0.7877  0.0301 -1.6206
   38MOL    H5423068   6.701   6.842   1.886 -0.8519 -0.1652  0.3062
   38MOL    H5523069   6.551   7.068   2.025 -1.7644 -1.3547 -0.9247
   38MOL    H5623070   6.686   6.995   2.102  0.2166 -1.6905 -0.3775
   38MOL    H5723071   6.425   6.846   2.040  0.5146  0.9947 -0.6188
   38MOL    H5823072   6.568   6.763   2.100  1.2901 -0.1210  1.5402
   38MOL    H5923073   6.568   6.918   2.302  1.9762 -2.8439 -0.1301
   38MOL    H6023074   6.447   6.788   2.295  3.3627 -0.8650  0.1151
   38MOL    H6123075   6.403   6.958   2.253  0.1938  0.1899  0.9099
   38MOL    H6223076   7.027   7.668   2.046  1.0316 -1.5628  2.9825
   38MOL    H6323077   7.112   7.518   2.076  3.0360 -0.1596 -1.3991
   38MOL    C6423078   7.144   7.620   1.884 -0.0832 -0.3764  0.0052
   38MOL    O6523079   7.198   7.495   1.840  0.0436  0.0228 -0.6647
   38MOL    C6623080   7.254   7.500   1.706 -0.0282  0.5106  0.5171
   38MOL    C6723081   7.322   7.364   1.671 -0.0338 -1.1031 -0.9344
   38MOL    C6823082   7.451   7.361   1.753  0.3694  0.9919 -0.0220
   38MOL    C6923083   7.540   7.241   1.720 -0.0436 -0.1336 -0.2222
   38MOL    C7023084   7.674   7.230   1.796  0.3245 -0.2305 -0.2139
   38MOL    C7123085   7.731   7.092   1.780 -0.1001 -0.2850  0.1405
   38MOL    C7223086   0.101   7.075   1.841 -1.1023  0.3601  0.3788
   38MOL    C7323087   0.211   7.154   1.768 -0.2607 -0.2028  0.3026
   38MOL    C7423088   7.250   7.722   1.927  0.4023  0.0078  0.1472
   38MOL    H7523089   7.085   7.659   1.802 -1.4507  0.2169  1.2602
   38MOL    H7623090   7.312   7.592   1.708 -0.9194  1.0513  2.7057
   38MOL    H7723091   7.164   7.507   1.644  0.9522  0.3168 -0.9497
   38MOL    H7823092   7.350   7.359   1.566 -0.5875  0.6924 -1.1836
   38MOL    H7923093   7.254   7.285   1.703 -0.3281 -0.7206 -0.6106
   38MOL    H8023094   7.504   7.455   1.735  1.3989  0.1786 -1.2542
   38MOL    H8123095   7.424   7.369   1.859  1.4686  0.1520  0.3329
   38MOL    H8223096   7.470   7.162   1.744  4.1644 -3.9058  0.2581
   38MOL    H8323097   7.533   7.231   1.612  0.8234  0.9618 -0.3915
   38MOL    H8423098   7.741   7.296   1.740  1.5802  1.1911  2.8235
   38MOL    H8523099   7.670   7.261   1.900 -0.9528  1.3426 -0.7114
   38MOL    H8623100   7.732   7.055   1.678  0.0167  1.9035 -0.6632
   38MOL    H8723101   7.675   7.014   1.832  1.4264 -1.7991 -0.4338
   38MOL    H8823102   0.105   7.105   1.946  1.0047  0.4638  0.2982
   38MOL    H8923103   0.135   6.971   1.842 -2.2501 -0.0167  1.0703
   38MOL    H9023104   0.232   7.119   1.668 -1.1421 -1.9642  0.7088
   38MOL    H9123105   0.303   7.157   1.826  1.0554 -1.5816 -1.6785
   38MOL    H9223106   0.182   7.258   1.752  1.1103  0.2841  0.9612
   38MOL    H9323107   7.297   7.688   2.018 -0.9192  0.0979  0.8776
   38MOL    H9423108   7.326   7.744   1.852 -0.1272 -1.7517 -0.9330
   38MOL    C9523109   7.190   0.093   1.957 -0.4146  0.9562 -0.2784
   38MOL    O9623110   7.127   0.145   1.839  0.0092 -0.3558 -0.3821
   38MOL    C9723111   7.019   0.242   1.854  0.1703  0.2445  1.0195
   38MOL    C9823112   6.964   0.285   1.716  0.0608  0.4016 -0.1500
   38MOL    C9923113   6.850   0.389   1.726 -0.0608  0.5225 -0.3165
   38MOL   C10023114   6.778   0.409   1.596  0.7649 -0.0957 -0.3238
   38MOL   C10123115   6.862   0.480   1.492 -0.0521 -0.3616 -0.4194
   38MOL   C10223116   6.808   0.481   1.350 -0.4945 -0.0365  0.0725
   38MOL   C10323117   6.897   0.561   1.265  0.4096  0.0218  0.7669
   38MOL   C10423118   6.875   0.540   1.113  0.4107 -0.0063 -0.3909
   38MOL   C10523119   7.300   0.191   2.005  0.2209  0.6531 -0.0793
   38MOL   H10623120   7.121   0.097   2.041 -1.3844 -0.5047 -1.0084
   38MOL   H10723121   7.055   0.333   1.903  0.6919  0.5275  0.1238
   38MOL   H10823122   6.933   0.210   1.913 -1.0282 -0.1345 -0.9051
   38MOL   H10923123   6.939   0.199   1.654  0.1197 -0.2156  0.6734
   38MOL   H11023124   7.051   0.322   1.661 -1.0560  3.2745 -0.0605
   38MOL   H11123125   6.790   0.356   1.811  0.8814 -1.0369 -0.2392
   38MOL   H11223126   6.894   0.484   1.754  2.4515  0.1932 -2.9414
   38MOL   H11323127   6.736   0.319   1.550  1.6155 -0.4510 -0.4154
   38MOL   H11423128   6.698   0.479   1.618 -0.0270 -0.5277 -1.7494
   38MOL   H11523129   6.854   0.579   1.536  2.7394  0.1172 -0.8646
   38MOL   H11623130   6.963   0.438   1.482 -0.0787  0.2241 -3.5074
   38MOL   H11723131   6.711   0.531   1.356  0.3579  1.6017  0.2240
   38MOL   H11823132   6.781   0.385   1.305  1.1091 -0.9294  0.9696
   38MOL   H11923133   6.881   0.663   1.300  0.5358 -0.4336  2.1654
   38MOL   H12023134   6.996   0.524   1.294  0.2452 -0.4293  0.7566
   38MOL   H12123135   6.779   0.579   1.081 -0.6893 -1.4962  0.9578
   38MOL   H12223136   6.860   0.433   1.096 -0.1646  0.0642 -0.3150
   38MOL   H12323137   6.956   0.580   1.051  1.6490 -1.5394  0.1887
   38MOL   H12423138   7.383   0.184   1.935 -1.0211 -2.0992 -1.3513
   38MOL   H12523139   7.261   0.292   2.017 -1.3395  0.0691 -0.1303
   38MOL   C12623140   7.358   0.152   2.145 -0.7383 -0.0003  0.4067
   38MOL   O12723141   7.253   0.185   2.235 -0.5324 -0.2524 -0.0524
   38MOL   C12823142   7.185   0.096   2.313 -0.6512 -0.2988  0.0293
   38MOL   C12923143   7.071   0.165   2.377  0.1978  0.1699 -0.1136
   38MOL   C13023144   7.114   0.248   2.499  0.2061 -0.1929  0.2171
   38MOL   C13123145   7.001   0.270   2.604 -0.8857 -0.5806 -0.5395
   38MOL   C13223146   7.058   0.315   2.741  0.0009  0.0043 -0.0666
   38MOL   C13323147   7.097   0.459   2.771  0.1837 -0.3715  0.2616
   38MOL   C13423148   7.160   0.479   2.910  0.9507  0.6798  0.4244
   38MOL   C13523149   7.065   0.466   3.026 -0.3385  0.0399 -0.6583
   38MOL   C13623150   7.484   0.237   2.180  0.3879  0.7066 -0.6761
   38MOL   H13723151   7.389   0.047   2.143 -1.7029 -0.2854  0.1034
   38MOL   H13823152   7.237   0.036   2.387  0.3003 -0.5008 -0.7916
   38MOL   H13923153   7.146   0.012   2.255 -0.4757 -1.7133  1.9123
   38MOL   H14023154   7.006   0.084   2.411  0.9832  0.2365  1.5738
   38MOL   H14123155   7.017   0.229   2.308 -0.3595  1.0006  1.0781
   38MOL   H14223156   7.185   0.185   2.553  0.5852  0.6309  0.6922
   38MOL   H14323157   7.177   0.333   2.470  0.4065  0.3646  2.2044
   38MOL   H14423158   6.924   0.339   2.568 -0.4161  0.7206  0.8776
   38MOL   H14523159   6.955   0.174   2.629  0.8687 -1.2272  0.2850
   38MOL   H14623160   6.992   0.276   2.819 -0.2162  1.3090  0.4042
   38MOL   H14723161   7.148   0.256   2.758 -0.4547 -1.2544 -1.8433
   38MOL   H14823162   7.012   0.526   2.754 -0.9967 -1.8788  0.0455
   38MOL   H14923163   7.182   0.496   2.715 -0.4170  0.3302 -0.2026
   38MOL   H15023164   7.240   0.405   2.911 -0.7174 -1.1905 -0.3327
   38MOL   H15123165   7.204   0.578   2.902  0.1790  1.0355  0.5487
   38MOL   H15223166   7.029   0.363   3.031  0.1782 -0.1114  0.0400
   38MOL   H15323167   6.980   0.529   3.004 -0.4176  0.2169  0.1604
   38MOL   H15423168   7.103   0.492   3.124 -2.9098  0.5503  0.2342
   38MOL   H15523169   7.561   0.209   2.108  0.9659  0.7275 -0.0679
   38MOL   H15623170   7.462   0.342   2.163 -1.8659  0.2613 -0.6628
   38MOL   C15723171   7.539   0.221   2.325  0.1291 -0.4380 -0.2369
   38MOL   O15823172   7.642   0.318   2.355 -0.4451  0.0192  0.1507
   38MOL   C15923173   7.608   0.452   2.400 -0.3836  0.2114 -0.3719
   38MOL   C16023174   7.596   0.464   2.554 -0.2903 -0.9135  0.0052
   38MOL   C16123175   7.542   0.599   2.596  0.1395 -0.0073  0.5437
   38MOL   C16223176   7.560   0.623   2.747 -0.2401 -0.4603  0.3786
   38MOL   C16323177   7.513   0.766   2.790 -0.1429  0.4422 -0.1397
   38MOL   C16423178   7.529   0.787   2.940  0.0582  0.1216 -0.1437
   38MOL   C16523179   7.421   0.735   3.026  0.0688 -0.4206 -0.3129
   38MOL   C16623180   7.428   0.800   3.170 -0.8118  0.0617 -0.4367
   38MOL   C16723181   7.604   0.080   2.341 -0.2552 -0.0715 -0.2067
   38MOL   H16823182   7.457   0.251   2.390 -0.7927 -1.2103 -1.0199
   38MOL   H16923183   7.522   0.488   2.343  0.0491  0.5171 -0.8330
   38MOL   H17023184   7.689   0.516   2.366 -1.2068  0.8518 -1.1427
   38MOL   H17123185   7.696   0.454   2.597 -0.8451 -1.1496  1.2773
   38MOL   H17223186   7.537   0.381   2.594 -1.6964 -1.6974 -3.4927
   38MOL   H17323187   7.599   0.667   2.533 -0.3694 -0.5031 -0.4532
   38MOL   H17423188   7.439   0.595   2.564 -0.4708  1.1647  2.2638
   38MOL   H17523189   7.509   0.547   2.806  0.6230  1.1971  3.3367
   38MOL   H17623190   7.663   0.608   2.778  0.6917  2.3956 -1.1512
   38MOL   H17723191   7.572   0.843   2.739 -1.5573  1.0273 -0.9085
   38MOL   H17823192   7.415   0.789   2.749  0.5916  2.2472 -0.9422
   38MOL   H17923193   7.529   0.895   2.957  0.0530 -0.4856  4.2763
   38MOL   H18023194   7.630   0.759   2.972 -0.0824  0.3188  0.4804
   38MOL   H18123195   7.323   0.771   2.993  0.3947 -0.5789 -1.4452
   38MOL   H18223196   7.418   0.626   3.025  1.2328 -0.4961  1.7436
   38MOL   H18323197   7.362   0.762   3.248  1.1790  1.3048  1.9127
   38MOL   H18423198   7.406   0.906   3.163  2.8679  0.7446 -2.6979
   38MOL   H18523199   7.530   0.797   3.207 -1.0692 -0.2115  0.2563
   38MOL   H18623200   7.534   0.001   2.315  1.6053 -1.5386 -0.8704
   38MOL   H18723201   7.685   0.080   2.269 -1.3456  1.3974 -1.4667
   38MOL   C18823202   7.653   0.042   2.485 -0.2150  0.2748  0.8278
   38MOL   O18923203   7.716   7.683   2.482 -0.4438 -0.2834 -0.0561
   38MOL   C19023204   0.050   7.676   2.571  0.0585 -0.1240 -0.1562
   38MOL   C19123205   0.093   7.529   2.575 -0.0322 -0.0741  0.8226
   38MOL   C19223206   0.013   7.433   2.665  0.0330 -0.0207 -0.2078
   38MOL   C19323207   0.005   7.487   2.809 -0.1982 -0.6387  0.4084
   38MOL   C19423208   7.708   7.377   2.893  0.4897 -0.0295 -0.4839
   38MOL   C19523209   7.677   7.415   3.039 -0.0474  0.0503  0.7768
   38MOL   C19623210   7.662   7.296   3.137  0.0474  0.2046  0.6239
   38MOL   C19723211   7.632   7.339   3.276  0.0822  0.1862  0.2672
   38MOL   C19823212   7.530   0.034   2.579  0.2210 -0.0914  0.1148
   38MOL   H19923213   7.726   0.121   2.508 -0.2386  1.0002 -1.4897
   38MOL   H20023214   0.123   7.747   2.532 -2.4647  1.2745 -2.4513
   38MOL   H20123215   0.032   7.711   2.673 -2.1398 -1.4150 -0.0520
   38MOL   H20223216   0.197   7.533   2.609 -0.5496 -0.3724  2.4668
   38MOL   H20323217   0.096   7.484   2.476 -1.0110 -0.9443  1.1829
   38MOL   H20423218   7.687   7.432   2.623 -0.6223 -3.2763  1.2640
   38MOL   H20523219   0.054   7.333   2.649  0.5046  0.5328 -2.5802
   38MOL   H20623220   0.108   7.507   2.839 -0.3353  0.7767 -0.0165
   38MOL   H20723221   7.738   7.586   2.829  2.5472  0.6069  0.2291
   38MOL   H20823222   7.619   7.346   2.838 -0.5304  2.3683 -0.2440
   38MOL   H20923223   0.000   7.291   2.892  2.1544  1.1941 -2.7829
   38MOL   H21023224   7.584   7.471   3.047  0.0256 -0.1197  3.3165
   38MOL   H21123225   7.759   7.479   3.071 -0.9857  0.2164  2.8939
   38MOL   H21223226   7.609   7.219   3.083 -0.8426  0.0900  1.6430
   38MOL   H21323227   7.762   7.257   3.156  0.1407  0.1365  0.0027
   38MOL   H21423228   7.648   7.264   3.353  1.6558 -1.6551 -1.7708
   38MOL   H21523229   7.526   7.364   3.271 -0.4048 -1.7685  0.7046
   38MOL   H21623230   7.675   7.431   3.316 -1.4013  0.3238  1.5886
   38MOL   H21723231   7.469   0.122   2.557 -1.0538 -1.2706 -1.1499
   38MOL   H21823232   7.469   7.731   2.532 -1.1577  2.3746 -2.3664
   38MOL   C21923233   7.535   0.015   2.729  0.1542 -0.0541  0.0633
   38MOL   O22023234   7.396   7.759   2.757 -0.2013 -0.3688 -0.8945
   38MOL   C22123235   7.361   7.622   2.767  0.8522 -0.3225  0.5500
   38MOL   C22223236   7.209   7.625   2.803  0.2781 -0.3092  0.4546
   38MOL   C22323237   7.180   7.690   2.942 -0.1280 -0.4283  0.2519
   38MOL   C22423238   7.031   7.702   2.961  0.5145 -0.8418 -0.1964
   38MOL   C22523239   6.994   7.754   3.105  0.3888 -0.7305 -0.3206
   38MOL   C22623240   6.845   7.761   3.128  0.7846  0.4224  0.5685
   38MOL   C22723241   6.810   0.061   3.261  0.1629 -0.1855 -0.3358
   38MOL   C22823242   6.871   0.200   3.290  0.1055  0.3586  0.1083
   38MOL   C22923243   7.574   0.139   2.798  0.0594 -0.2343 -0.4185
   38MOL   H23023244   7.592   7.699   2.749  0.5597  0.0972 -0.4032
   38MOL   H23123245   7.417   7.579   2.851  0.4427  0.8998  1.4600
   38MOL   H23223246   7.375   7.569   2.673  0.4778  0.6395 -0.0613
   38MOL   H23323247   7.160   7.530   2.784 -1.6731  0.5993  0.7117
   38MOL   H23423248   7.150   7.685   2.732  0.6486  0.7714  1.0421
   38MOL   H23523249   7.227   7.631   3.021 -1.8003 -0.4580  1.2610
   38MOL   H23623250   7.221   0.016   2.953  1.6490 -1.0576 -0.5593
   38MOL   H23723251   6.991   7.771   2.887 -0.1163 -0.3102  0.6271
   38MOL   H23823252   6.989   7.602   2.954  0.5283 -0.8225 -0.5465
   38MOL   H23923253   7.047   7.711   3.190  0.3545  0.4322  0.2945
   38MOL   H24023254   7.026   0.083   3.099  1.4165 -1.0056  0.4395
   38MOL   H24123255   6.806   7.659   3.133  0.2965  0.7412  3.7655
   38MOL   H24223256   6.796   0.044   3.049  0.1578  0.9023  1.3000
   38MOL   H24323257   6.703   0.075   3.278  0.1184 -0.0550 -0.7262
   38MOL   H24423258   6.845   7.768   3.339  0.2107 -0.4161 -0.5565
   38MOL   H24523259   6.825   0.284   3.239  1.3987 -0.4360 -2.4461
   38MOL   H24623260   6.978   0.203   3.270  0.4087 -1.7687  1.2401
   38MOL   H24723261   6.852   0.220   3.395 -0.2592  3.2292 -0.4550
   38MOL   H24823262   7.674   0.163   2.762  0.9052 -1.3317  1.1291
   38MOL   H24923263   7.507   0.214   2.757 -0.2300 -0.3766 -0.2093
   38MOL   C25023264   7.570   0.136   2.950 -0.6985  0.3501  0.6689
   38MOL   O25123265   7.638   0.251   2.998  0.5400  0.2634 -0.2453
   38MOL   C25223266   7.568   0.364   3.041  0.2056 -1.1426  0.7871
   38MOL   C25323267   7.656   0.481   3.099 -0.7765 -0.1339  0.6134
   38MOL   C25423268   7.746   0.434   3.215 -0.3479  0.5233  0.3069
   38MOL   C25523269   0.045   0.551   3.281  0.1230  0.4176  0.5304
   38MOL   C25623270   7.724   0.629   3.379  0.6563  0.5203 -0.4617
   38MOL   C25723271   7.763   0.772   3.420 -0.5655 -0.1753 -0.3568
   38MOL   C25823272   7.659   0.843   3.503  0.3915 -0.2188 -0.1438
   38MOL   C25923273   7.680   0.997   3.523  0.1346  0.1816 -0.3500
   38MOL   C26023274   7.637   0.013   3.008  0.6390  0.1723 -0.2546
   38MOL   H26123275   7.467   0.148   2.986 -0.0276 -0.9379  3.1943
   38MOL   H26223276   7.498   0.333   3.118 -1.7872 -0.8176 -0.8438
   38MOL   H26323277   7.507   0.404   2.960  2.6932  0.0338 -0.5728
   38MOL   H26423278   7.592   0.561   3.136 -0.1493  0.7921 -0.2719
   38MOL   H26523279   7.713   0.524   3.016 -1.4552  1.5463  0.9948
   38MOL   H26623280   7.695   0.370   3.287  0.1799  1.5074  1.5626
   38MOL   H26723281   0.048   0.373   3.167 -1.8284 -1.7161  0.7279
   38MOL   H26823282   0.128   0.521   3.345  0.1980  1.7739  1.0741
   38MOL   H26923283   0.079   0.618   3.202  0.1498  2.0897  1.9286
   38MOL   H27023284   7.625   0.630   3.333  1.5049  1.2488 -2.2891
   38MOL   H27123285   7.706   0.572   3.470 -2.4919 -0.3242 -1.5331
   38MOL   H27223286   0.015   0.825   3.329 -0.4342 -0.7695 -0.6712
   38MOL   H27323287   0.077   0.761   3.482  0.2075  2.5452 -0.9307
   38MOL   H27423288   7.557   0.828   3.469  0.5639  0.2280 -0.8597
   38MOL   H27523289   7.663   0.798   3.602  1.9234 -0.2470 -0.2089
   38MOL   H27623290   7.607   1.030   3.597  0.6280 -0.2630  0.3400
   38MOL   H27723291   7.664   1.054   3.431  2.3795  1.2535 -0.0972
   38MOL   H27823292   0.002   1.036   3.554 -0.6055  2.0311 -0.3119
   38MOL   H27923293   7.576   7.699   2.991 -0.2460  0.2673  2.1017
   38MOL   H28023294   7.739   7.769   2.975  0.3560 -1.1737 -0.3805
   38MOL   C28123295   7.649   0.015   3.166  0.3814 -0.6450 -0.9037
   38MOL   O28223296   7.738   7.679   3.192  0.2295 -0.1753 -0.3118
   38MOL   C28323297   0.085   7.718   3.241  0.4122 -0.2367  0.6831
   38MOL   C28423298   0.144   7.595   3.318 -0.8484 -0.5224 -0.5124
   38MOL   C28523299   0.095   7.562   3.459  0.1718  1.0959  0.1149
   38MOL   C28623300   0.166   7.437   3.514 -0.8359  0.0060 -0.7102
   38MOL   C28723301   0.124   7.401   3.651 -0.7210  0.3105  0.6858
   38MOL   C28823302   0.229   7.311   3.715 -0.1364  0.4592 -0.3074
   38MOL   C28923303   0.169   7.238   3.841  0.2554  0.1372  0.3965
   38MOL   C29023304   0.142   7.328   3.958  0.3611  0.4835 -0.4093
   38MOL   C29123305   7.520   7.745   3.249 -0.3602 -0.8985  0.9373
   38MOL   H29223306   7.690   0.108   3.205 -1.9702 -0.5581  1.5247
   38MOL   H29323307   0.082   0.031   3.306  0.1760  1.1326 -1.0896
   38MOL   H29423308   0.133   7.752   3.148 -0.3311 -0.0744  0.3504
   38MOL   H29523309   0.248   7.627   3.326 -0.8254 -0.5350 -0.7386
   38MOL   H29623310   0.138   7.510   3.250  1.6552  1.1758 -2.9890
   38MOL   H29723311   0.118   7.642   3.529  2.6339 -0.8352  1.5642
   38MOL   H29823312   7.763   7.542   3.474  0.0275  1.8714  0.1591
   38MOL   H29923313   0.150   7.351   3.449  2.1422  0.4606 -2.1469
   38MOL   H30023314   0.275   7.445   3.515 -0.7547 -1.1356 -0.0792
   38MOL   H30123315   0.105   7.490   3.711 -2.6228  0.6111 -0.3303
   38MOL   H30223316   0.023   7.362   3.648 -1.2042  1.3902  2.3660
   38MOL   H30323317   0.322   7.363   3.738 -0.4528  0.7665  0.2681
   38MOL   H30423318   0.262   7.230   3.651  0.5017 -0.2342  0.8912
   38MOL   H30523319   0.072   7.194   3.816 -1.4800  3.9679  0.1443
   38MOL   H30623320   0.233   7.158   3.878  0.3522  0.0381  0.0169
   38MOL   H30723321   0.120   7.260   4.041 -1.5396 -0.2671 -1.4840
   38MOL   H30823322   0.054   7.392   3.951 -0.4197 -0.4090  0.8363
   38MOL   H30923323   0.237   7.377   3.978 -0.2133  1.4347  0.0736
   38MOL   H31023324   7.434   0.022   3.204  0.6733  1.6626  1.7938
   38MOL   H31123325   7.503   7.638   3.236 -2.1695 -0.3097 -2.0728
   38MOL   C31223326   7.520   0.010   3.400 -0.3214  0.1155  0.2957
   38MOL   O31323327   7.393   7.741   3.453 -0.2754  0.0021  0.6259
   38MOL   C31423328   7.383   7.619   3.522  0.7815 -0.3645 -0.0607
   38MOL   C31523329   7.236   7.581   3.539  1.2013 -0.3297 -0.4935
   38MOL   C31623330   7.164   7.533   3.409  0.6670  0.0652 -0.0156
   38MOL   C31723331   7.015   7.508   3.436  0.0899 -0.5138 -0.0926
   38MOL   C31823332   6.983   7.387   3.522 -0.5764  0.6526 -0.3192
   38MOL   C31923333   6.823   7.380   3.538 -0.6169 -0.4001 -0.3615
   38MOL   C32023334   6.773   7.241   3.582  0.3068 -0.2164 -0.3951
   38MOL   C32123335   6.616   7.236   3.602  0.3937 -0.4808 -0.3020
   38MOL   C32223336   7.533   0.157   3.432 -0.0999 -0.5390 -0.4009
   38MOL   H32323337   7.592   7.727   3.459  1.9252 -1.4532 -3.7758
   38MOL   H32423338   7.429   7.636   3.620  0.6134 -1.0457  0.1410
   38MOL   H32523339   7.437   7.536   3.477 -0.1827 -0.0564 -1.8193
   38MOL   H32623340   7.190   7.669   3.584  1.0856  0.2673 -1.7598
   38MOL   H32723341   7.225   7.502   3.614  0.1445  1.8370  1.6989
   38MOL   H32823342   7.176   7.610   3.333 -1.5678  0.3349 -0.1280
   38MOL   H32923343   7.208   7.445   3.363 -0.4547 -0.4462 -0.1196
   38MOL   H33023344   6.973   7.597   3.483 -0.3397 -0.1572 -1.1566
   38MOL   H33123345   6.962   7.519   3.342 -0.8711 -0.6710  0.4206
   38MOL   H33223346   7.014   7.296   3.472 -1.0624  1.1017 -1.4591
   38MOL   H33323347   7.023   7.398   3.623  0.4551 -2.2150 -0.3869
   38MOL   H33423348   6.789   7.387   3.434  2.0180  0.2055 -1.2298
   38MOL   H33523349   6.789   7.466   3.596 -0.0673 -1.5041  1.6277
   38MOL   H33623350   6.796   7.159   3.515 -0.2109 -0.2403 -0.5408
   38MOL   H33723351   6.811   7.221   3.683  0.2023  1.7397  0.0642
   38MOL   H33823352   6.571   7.263   3.507 -0.8401 -0.1006  0.3854
   38MOL   H33923353   6.577   7.299   3.682 -0.6610  1.8244 -2.5494
   38MOL   H34023354   6.590   7.133   3.627 -1.0284 -0.3016 -1.0257
   38MOL   H34123355   7.632   0.195   3.406  0.6211 -0.2490  2.6655
   38MOL   H34223356   7.476   0.213   3.357  1.4899  0.9317 -0.5465
   38MOL   C34323357   7.507   0.186   3.577  0.0240 -0.7718  0.3957
   38MOL   O34423358   7.392   0.269   3.594  0.0550  0.4364 -0.1502
   38MOL   C34523359   7.261   0.212   3.614 -0.1841 -0.4024 -0.8000
   38MOL   C34623360   7.241   0.178   3.762 -0.0230 -0.4769 -0.3323
   38MOL   C34723361   7.268   0.303   3.853 -0.2611  0.6856 -0.1706
   38MOL   C34823362   7.219   0.273   3.998 -0.2268 -0.0537  0.6344
   38MOL   C34923363   7.266   0.368   4.103 -0.8697  0.8473  0.6989
   38MOL   C35023364   7.169   0.385   4.220 -0.1861 -0.0279  0.1088
   38MOL   C35123365   7.196   0.503   4.318 -0.0738 -0.5809 -0.7280
   38MOL   C35223366   7.335   0.475   4.375 -0.2914 -0.1025 -0.4212
   38MOL   C35323367   7.633   0.260   3.638  0.1119 -0.3963  0.4746
   38MOL   H35423368   7.503   0.091   3.629  0.2027 -1.0800 -0.1515
   38MOL   H35523369   7.241   0.130   3.546  0.4338 -0.4768 -0.9027
   38MOL   H35623370   7.194   0.295   3.593 -0.6837  0.2097  2.9556
   38MOL   H35723371   7.312   0.098   3.786 -0.2284  0.0092  2.0168
   38MOL   H35823372   7.141   0.137   3.770 -0.1842  0.0035  0.1284
   38MOL   H35923373   7.374   0.327   3.847  0.1788 -1.2272 -0.2467
   38MOL   H36023374   7.217   0.393   3.819  3.1785  2.2672 -1.3957
   38MOL   H36123375   7.112   0.264   4.013  0.0363 -2.1716  1.5021
   38MOL   H36223376   7.261   0.176   4.025 -1.9749 -0.4013  2.1378
   38MOL   H36323377   7.365   0.339   4.139 -0.9838 -1.5563 -0.8418
   38MOL   H36423378   7.293   0.463   4.057  3.8099  0.7511  2.8910
   38MOL   H36523379   7.157   0.294   4.279  1.3262 -0.7257 -0.6220
   38MOL   H36623380   7.075   0.402   4.168  0.0255 -0.4025 -0.4071
   38MOL   H36723381   7.175   0.592   4.259 -2.9260 -1.6565 -1.4142
   38MOL   H36823382   7.131   0.503   4.405  0.6248  0.4462 -0.1982
   38MOL   H36923383   7.370   0.558   4.436 -1.6603  0.4156 -0.3314
   38MOL   H37023384   7.420   0.464   4.307 -1.1472 -1.2802 -1.3066
   38MOL   H37123385   7.336   0.384   4.434  1.0907  0.4984  0.4969
   38MOL   H37223386   7.655   0.349   3.579 -0.9668 -0.1680  0.3933
   38MOL   H37323387   7.604   0.301   3.735 -2.0621  0.2460 -0.4107
   38MOL   C37423388   7.763   0.180   3.664  0.3610 -0.3559  0.2288
   38MOL   O37523389   0.061   0.155   3.540 -1.0461  0.9255 -0.4153
   38MOL   C37623390   0.191   0.215   3.541 -0.1462 -0.2783 -0.2382
   38MOL   C37723391   0.274   0.183   3.422  0.2014  0.2440 -0.4574
   38MOL   C37823392   0.405   0.264   3.428 -0.1962  0.4999 -0.6968
   38MOL   C37923393   0.495   0.247   3.306  0.1699 -0.9510  0.1707
   38MOL   C38023394   0.642   0.290   3.330  0.1130  0.2334  0.0168
   38MOL   C38123395   0.656   0.441   3.372  0.1565 -0.2925  0.1445
   38MOL   C38223396   0.791   0.478   3.434  0.3291  0.2496  0.1159
   38MOL   C38323397   0.800   0.629   3.466  0.1925  0.2995 -0.3082
   38MOL   C38423398   7.746   0.038   3.732  0.9213 -0.5343 -0.2145
   38MOL   H38523399   0.053   0.234   3.734 -1.2301 -0.1307  1.5355
   38MOL   H38623400   0.244   0.180   3.629 -2.7997 -0.8306  1.1921
   38MOL   H38723401   0.171   0.322   3.552  1.3818  0.0927 -0.8478
   38MOL   H38823402   0.213   0.206   3.335 -0.0231  1.2473 -0.0439
   38MOL   H38923403   0.291   0.075   3.415  2.1061  0.5178 -0.2380
   38MOL   H39023404   0.395   0.373   3.422  2.2412  1.0973  3.5668
   38MOL   H39123405   0.458   0.241   3.521 -0.9156 -2.1100 -0.9046
   38MOL   H39223406   0.495   0.150   3.256 -0.2941 -0.8170 -0.0941
   38MOL   H39323407   0.467   0.314   3.225  0.8354 -0.1920  0.5621
   38MOL   H39423408   0.678   0.230   3.413  1.5600  1.4099  0.2770
   38MOL   H39523409   0.712   0.252   3.255  1.9815 -0.9992  2.3239
   38MOL   H39623410   0.574   0.471   3.438  0.2407 -2.4759  1.2724
   38MOL   H39723411   0.643   0.501   3.283  1.8157  0.4506  0.3810
   38MOL   H39823412   0.804   0.416   3.524  0.7349  1.3268  0.8067
   38MOL   H39923413   0.867   0.436   3.369  0.1224 -0.0270  0.0510
   38MOL   H40023414   0.893   0.657   3.515  0.0908  1.3425 -0.6965
   38MOL   H40123415   0.719   0.658   3.532  0.1984  2.1365 -1.0786
   38MOL   H40223416   0.796   0.687   3.374  0.5831  1.4872  0.4115
   38MOL   H40323417   7.699   7.733   3.673 -0.6159 -1.4784  2.1666
   38MOL   H40423418   0.074   0.007   3.754  0.4678  0.0113  2.9792
   38MOL   C40523419   7.670   0.036   3.874 -0.3324 -1.0053  0.4257
   38MOL   O40623420   7.740   0.116   3.970  0.0358  0.6832  0.3672
   38MOL   C40723421   7.670   0.222   4.035 -0.1307 -0.0672 -0.2980
   38MOL   C40823422   7.754   0.287   4.146  0.3301  1.2112 -0.1565
   38MOL   C40923423   7.773   0.195   4.268  0.3520  0.2123  0.3435
   38MOL   C41023424   7.652   0.172   4.351  0.1553  0.5339 -0.5035
   38MOL   C41123425   7.678   0.124   4.493  0.2396  0.0236  0.9181
   38MOL   C41223426   7.548   0.135   4.574 -0.2057  0.0228  0.1612
   38MOL   C41323427   7.577   0.065   4.708  0.2222  0.7048 -0.6658
   38MOL   C41423428   7.450   0.075   4.796 -0.5514  1.1744  1.0084
   38MOL   C41523429   7.663   7.668   3.921 -0.2798  0.1156 -0.6779
   38MOL   H41623430   7.571   0.076   3.850 -0.2195 -1.3111 -0.5403
   38MOL   H41723431   7.570   0.197   4.069  0.3408 -1.7852 -0.1261
   38MOL   H41823432   7.649   0.296   3.958 -1.2127 -0.3050 -0.2456
   38MOL   H41923433   7.704   0.380   4.171 -1.8787  0.5685 -2.0056
   38MOL   H42023434   0.077   0.299   4.098 -0.5650  0.3731 -2.2303
   38MOL   H42123435   0.041   0.098   4.241 -1.3619 -0.7991  1.1608
   38MOL   H42223436   0.080   0.232   4.331  1.0308 -0.2642 -0.2444
   38MOL   H42323437   7.596   0.266   4.357 -2.5000 -0.9587 -1.0991
   38MOL   H42423438   7.568   0.116   4.309  0.1173 -0.7643  1.2670
   38MOL   H42523439   7.719   0.025   4.477 -1.8932 -0.7799  0.2635
   38MOL   H42623440   7.758   0.172   4.550  1.4225 -0.9959  0.1254
   38MOL   H42723441   7.474   0.081   4.515  1.9713 -4.0277  0.9361
   38MOL   H42823442   7.522   0.241   4.569  1.1552  0.2510 -4.1267
   38MOL   H42923443   7.609   7.737   4.691  0.3960  0.6357  0.0984
   38MOL   H43023444   7.659   0.107   4.765 -0.9515 -0.1752  1.7129
   38MOL   H43123445   7.425   0.178   4.818  0.1050  1.4133  0.6560
   38MOL   H43223446   7.465   0.032   4.895 -2.0064 -1.3887  0.1746
   38MOL   H43323447   7.358   0.033   4.755  0.9307  0.1031 -1.3503
   38MOL   H43423448   7.651   7.595   3.841 -0.4217  1.7359 -2.1768
   38MOL   H43523449   7.766   7.659   3.957  0.2159  0.1824 -2.0411
   38MOL   C43623450   7.564   7.652   4.045  0.1491  0.3765 -0.3350
   38MOL   O43723451   7.583   7.521   4.088  0.0030  0.1997 -0.4981
   38MOL   C43823452   7.675   7.505   4.198 -0.3063 -0.5109  0.5544
   38MOL   C43923453   7.693   7.363   4.246  0.9989  0.6482  0.0326
   38MOL   C44023454   7.552   7.315   4.296 -0.0145 -1.0614 -0.3072
   38MOL   C44123455   7.556   7.173   4.345  0.2701  0.0370 -0.9551
   38MOL   C44223456   7.434   7.131   4.425 -0.0392 -0.9516 -0.6251
   38MOL   C44323457   7.444   6.985   4.460 -0.3344 -0.0841  0.3737
   38MOL   C44423458   7.325   6.940   4.552 -0.2791 -0.9579 -0.0028
   38MOL   C44523459   7.299   6.792   4.556  0.2472  0.6619 -0.3870
   38MOL   C44623460   7.418   7.673   4.008 -0.4032  0.2220  1.2184
   38MOL   H44723461   7.583   7.717   4.130  0.5817 -0.6017  0.3222
   38MOL   H44823462   7.771   7.552   4.175 -0.6249  0.0548  0.3478
   38MOL   H44923463   7.641   7.561   4.285  0.7186  2.1548 -0.6996
   38MOL   H45023464   7.768   7.361   4.325 -1.0927  3.3564  2.2071
   38MOL   H45123465   7.724   7.303   4.160  1.2746  1.4736 -0.4525
   38MOL   H45223466   7.546   7.380   4.383  0.6959  0.3330 -1.2796
   38MOL   H45323467   7.468   7.320   4.227 -1.2821 -2.4051  1.1020
   38MOL   H45423468   7.550   7.105   4.260  0.6119 -0.3551 -0.6724
   38MOL   H45523469   7.647   7.165   4.405  0.4013  0.0354 -1.1558
   38MOL   H45623470   7.411   7.188   4.515  1.8452 -0.7852 -0.2307
   38MOL   H45723471   7.355   7.149   4.352  1.2657  0.1760 -1.7869
   38MOL   H45823472   7.543   6.975   4.504 -0.4602 -0.6858  0.5348
   38MOL   H45923473   7.456   6.931   4.366 -2.0994 -0.2174  0.1950
   38MOL   H46023474   7.348   6.982   4.650 -0.0269  0.6453 -0.7291
   38MOL   H46123475   7.239   6.983   4.502  2.6050  2.1409 -2.5044
   38MOL   H46223476   7.252   6.753   4.466 -0.0252  0.0070  0.0305
   38MOL   H46323477   7.226   6.774   4.636  1.1497  0.1859  0.3390
   38MOL   H46423478   7.388   6.737   4.586  0.4774  0.2835 -1.7336
   38MOL   H46523479   7.399   0.003   3.983 -1.6622 -0.3023 -0.1586
   38MOL   H46623480   7.415   7.624   3.910  0.3179 -0.2954  1.4500
   38MOL   C46723481   7.317   7.634   4.110  0.1348 -0.0757  0.7775
   38MOL   O46823482   7.197   7.655   4.046  0.0870  0.2724 -0.0167
   38MOL   C46923483   7.158   7.555   3.946 -1.0073  0.4039  0.5514
   38MOL   C47023484   7.001   7.540   3.933 -0.7457 -0.1981  0.3901
   38MOL   C47123485   6.929   7.472   4.051  0.5109  0.4971 -0.0519
   38MOL   C47223486   6.776   7.471   4.046 -0.5273  0.0135  0.1133
   38MOL   C47323487   6.704   7.378   4.155  0.0673  0.5092  0.8185
   38MOL   C47423488   6.651   7.455   4.273  0.7735 -0.2555 -0.3718
   38MOL   C47523489   6.751   7.525   4.371 -0.0655 -0.4566  0.6745
   38MOL   C47623490   6.692   7.576   4.496 -0.8157 -0.1755 -0.2025
   38MOL   C47723491   7.329   7.711   4.241 -0.6625 -0.1959  0.1290
   38MOL   H47823492   7.340   7.528   4.125  1.2519  0.3203  1.9152
   38MOL   H47923493   7.195   7.456   3.975 -1.8033  0.4019  1.5537
   38MOL   H48023494   7.204   7.582   3.850  1.7408 -1.5973  1.2293
   38MOL   H48123495   6.976   7.492   3.838 -0.4642  0.1917  0.1182
   38MOL   H48223496   6.953   7.637   3.924 -2.7775 -1.3140 -1.5219
   38MOL   H48323497   6.971   7.371   4.059  1.0099  0.7334  0.3811
   38MOL   H48423498   6.946   7.519   4.148 -1.1383  2.4481 -0.6905
   38MOL   H48523499   6.736   7.573   4.044 -0.6031 -0.0053  0.6400
   38MOL   H48623500   6.742   7.437   3.948 -0.5376  0.4461 -0.0344
   38MOL   H48723501   6.629   7.315   4.107  2.0621  0.3509 -2.2032
   38MOL   H48823502   6.779   7.308   4.191 -1.5732 -2.0860 -0.6488
   38MOL   H48923503   6.606   7.378   4.336 -0.3721  0.8857  0.2444
   38MOL   H49023504   6.577   7.534   4.259  0.0441 -0.5813  1.4447
   38MOL   H49123505   6.843   7.471   4.396  0.2427  0.7793  2.2834
   38MOL   H49223506   6.790   7.609   4.313 -3.0837 -0.2930 -1.1799
   38MOL   H49323507   6.616   7.651   4.472  0.3152  1.5182  1.3229
   38MOL   H49423508   6.762   7.621   4.567 -1.7362 -0.1471  0.6977
   38MOL   H49523509   6.651   7.493   4.554  0.2028 -0.1791  0.5342
   38MOL   H49623510   7.432   7.714   4.276 -0.6638 -1.3725  0.2773
   38MOL   H49723511   7.294   0.038   4.222  2.0313  0.9375  0.9500
   38MOL   C49823512   7.249   7.655   4.359  0.5490  0.2718  0.3169
   38MOL   O49923513   7.200   7.753   4.440  0.2524 -0.6091  0.3438
   38MOL   C50023514   7.071   0.031   4.419  0.1988  0.0980  0.0619
   38MOL   C50123515   7.028   0.138   4.514  0.8104  0.5520  0.4187
   38MOL   C50223516   7.034   0.082   4.657 -0.9087 -0.3922 -0.0565
   38MOL   C50323517   7.013   0.185   4.769  0.1455  0.6637  0.2416
   38MOL   C50423518   7.046   0.135   4.916 -0.2175  0.2303 -0.4633
   38MOL   C50523519   7.009   0.234   5.026 -0.2152  0.4519 -0.5084
   38MOL   C50623520   7.010   0.162   5.163 -0.1192  0.2068  0.3529
   38MOL   C50723521   7.022   0.257   5.284  0.1706  0.3104 -0.1823
   38MOL   C50823522   7.327   7.550   4.435  1.0782  0.5902 -0.6012
   38MOL   H50923523   7.166   7.601   4.314  0.1545  1.4137 -0.3662
   38MOL   H51023524   6.996   7.726   4.423 -2.6716  2.7502  0.6215
   38MOL   H51123525   7.066   0.074   4.319  0.4479  1.9258  0.8061
   38MOL   H51223526   6.923   0.165   4.499  0.3415 -0.8143  1.1343
   38MOL   H51323527   7.095   0.224   4.509  2.6876 -0.7548  2.4990
   38MOL   H51423528   6.967   7.771   4.671 -2.2484  0.8685  1.4295
   38MOL   H51523529   7.135   0.043   4.666 -1.1893 -0.8981  1.0245
   38MOL   H51623530   7.072   0.271   4.736 -0.2043  1.2862  1.2151
   38MOL   H51723531   6.906   0.204   4.761  0.1022  0.4689  0.3661
   38MOL   H51823532   6.992   0.044   4.940  0.8874 -0.4998 -0.6921
   38MOL   H51923533   7.150   0.104   4.926  0.1053  1.5341  0.3784
   38MOL   H52023534   6.913   0.275   4.997  0.0392  0.1264 -1.8468
   38MOL   H52123535   7.069   0.324   5.034 -0.0616  0.2474  0.8079
   38MOL   H52223536   6.910   0.123   5.179  0.4452 -1.4221  0.0114
   38MOL   H52323537   7.084   0.082   5.151 -1.2051 -0.6041 -1.2148
   38MOL   H52423538   7.035   0.199   5.376 -0.9066  1.0236  0.4323
   38MOL   H52523539   6.928   0.312   5.281 -0.2489 -0.4209 -0.6418
   38MOL   H52623540   7.111   0.320   5.292 -0.1258  0.9446 -1.8184
   38MOL   H52723541   7.340   7.465   4.367 -2.1105 -0.3151 -0.1335
   38MOL   H52823542   7.425   7.586   4.467  1.5231 -1.6943  0.7186
   38MOL   C52923543   7.255   7.494   4.558  0.4239 -0.2574 -0.1316
   38MOL   O53023544   7.338   7.410   4.644 -0.1523  0.7396  0.7827
   38MOL   C53123545   7.442   7.468   4.713 -0.5855 -0.3079 -0.1498
   38MOL   C53223546   7.564   7.374   4.737  0.5499 -0.3166  0.0526
   38MOL   C53323547   7.606   7.357   4.880  0.0335  0.1469  0.1217
   38MOL   C53423548   7.664   7.488   4.939 -0.1731 -0.4810 -0.3916
   38MOL   C53523549   7.682   7.488   5.089 -0.0785  0.6359  0.0985
   38MOL   C53623550   0.010   7.384   5.139 -0.2809 -0.3570  0.0196
   38MOL   C53723551   0.004   7.369   5.290 -0.4279 -0.9515  0.1814
   38MOL   C53823552   0.143   7.326   5.363  0.2545  0.2391  0.9528
   38MOL   C53923553   7.124   7.414   4.523 -0.1956  0.0777  0.1647
   38MOL   H54023554   7.214   7.576   4.618 -3.5366 -0.9917 -1.7500
   38MOL   H54123555   7.464   7.565   4.667 -0.1177 -0.9436 -1.2731
   38MOL   H54223556   7.393   7.487   4.809 -0.6663 -0.2305 -0.2063
   38MOL   H54323557   7.640   7.380   4.659 -0.8849 -1.2938 -1.4449
   38MOL   H54423558   7.526   7.277   4.705 -0.5561 -0.2483  1.1219
   38MOL   H54523559   7.523   7.328   4.945 -0.6513  0.4565 -0.6041
   38MOL   H54623560   7.677   7.275   4.886 -1.8293 -1.6019 -0.8118
   38MOL   H54723561   7.764   7.483   4.896 -0.2067  0.3316 -0.5727
   38MOL   H54823562   7.603   7.570   4.900  0.2646 -0.8834 -1.9543
   38MOL   H54923563   7.724   7.581   5.125  0.9733 -0.6568  2.3203
   38MOL   H55023564   7.588   7.480   5.144 -0.2826 -2.1974 -0.5794
   38MOL   H55123565   0.106   7.434   5.125 -0.0513  0.0415  2.7453
   38MOL   H55223566   0.011   7.286   5.092 -0.8847  0.4197 -1.6291
   38MOL   H55323567   7.750   7.470   5.320 -0.6607 -0.6420 -1.0679
   38MOL   H55423568   7.693   7.312   5.325 -0.2716 -1.6239 -0.5090
   38MOL   H55523569   0.223   7.384   5.317  0.4574 -1.8524 -1.4207
   38MOL   H55623570   0.164   7.222   5.339 -0.0684  0.6276 -1.0639
   38MOL   H55723571   0.150   7.326   5.472  0.0193  1.4111  0.9786
   38MOL   H55823572   7.060   7.476   4.460  2.6575  1.6987 -1.2545
   38MOL   H55923573   7.150   7.325   4.464  0.7320  1.8202 -2.1379
   38MOL   C56023574   7.052   7.361   4.646  0.3630  0.0070 -0.3396
   38MOL   O56123575   6.938   7.284   4.598  0.2333  0.1333 -0.0585
   38MOL   C56223576   6.938   7.141   4.615  0.4831  0.1647 -0.0822
   38MOL   C56323577   6.980   7.072   4.481  0.1985  0.5540  0.1909
   38MOL   C56423578   6.867   7.087   4.381  0.2010 -0.0360  0.0788
   38MOL   C56523579   6.906   7.043   4.237 -0.2130  0.6930  0.0441
   38MOL   C56623580   6.784   7.033   4.148  0.4455 -0.1021  0.3729
   38MOL   C56723581   6.810   7.076   4.002  0.6622 -0.2182  0.8528
   38MOL   C56823582   6.893   6.955   3.935  0.2894 -0.4730  0.2122
   38MOL   C56923583   6.852   6.901   3.799 -0.6966 -0.2793 -0.1728
   38MOL   C57023584   7.011   7.466   4.753 -0.0523 -0.0467  0.1481
   38MOL   H57123585   7.127   7.297   4.692  1.5278  1.9411  0.5368
   38MOL   H57223586   6.844   7.112   4.660 -0.3410  0.0384 -1.8250
   38MOL   H57323587   7.021   7.100   4.672 -1.8646 -3.2543  0.9987
   38MOL   H57423588   7.011   6.968   4.489 -1.4121 -0.0524 -1.1220
   38MOL   H57523589   7.075   7.123   4.462  1.5043 -1.5274  1.0922
   38MOL   H57623590   6.778   7.032   4.413 -2.7165  3.3638 -1.8777
   38MOL   H57723591   6.844   7.193   4.379  1.4387  0.2669  1.3336
   38MOL   H57823592   6.977   7.120   4.206  0.3309  0.2957  0.2892
   38MOL   H57923593   6.936   6.938   4.243  0.0678  0.6684 -1.5555
   38MOL   H58023594   6.722   6.943   4.143 -0.3639  0.5346 -1.8521
   38MOL   H58123595   6.705   7.096   4.187 -0.9783 -0.3920 -1.9526
   38MOL   H58223596   6.867   7.168   4.003  0.4723 -0.0643 -1.2333
   38MOL   H58323597   6.715   7.105   3.955  0.0970  1.1722  2.7747
   38MOL   H58423598   6.996   6.991   3.941 -0.4094  1.6496 -0.1708
   38MOL   H58523599   6.881   6.867   3.998 -0.7100 -1.7787 -1.7586
   38MOL   H58623600   6.933   6.833   3.773 -1.6463 -2.2722  1.9800
   38MOL   H58723601   6.825   6.978   3.727 -2.2919 -1.0439 -0.3923
   38MOL   H58823602   6.762   6.849   3.829  0.1499 -3.2669 -2.6151
   38MOL   H58923603   7.110   7.504   4.780  1.0170  0.2757 -3.9420
   38MOL   H59023604   6.960   7.555   4.718  0.5273  0.4131  0.4544
   38MOL   C59123605   6.929   7.408   4.869  1.1872 -0.2125 -0.1406
   38MOL   O59223606   6.866   7.516   4.942 -0.2701  0.2973  0.3156
   38MOL   C59323607   6.765   7.470   5.032 -0.0360  0.5434 -0.3002
   38MOL   C59423608   6.709   7.588   5.109  0.0202 -0.2785  0.0747
   38MOL   C59523609   6.661   7.709   5.038  0.5985 -0.6327  0.8579
   38MOL   C59623610   6.618   0.043   5.129 -0.3866 -0.2637  0.1839
   38MOL   C59723611   6.615   0.186   5.068  0.4207  0.3106 -0.1233
   38MOL   C59823612   6.600   0.298   5.170 -0.7300 -0.0871 -0.1442
   38MOL   C59923613   6.587   0.435   5.106  0.6843  0.2909 -0.5666
   38MOL   C60023614   6.546   0.540   5.216 -0.1489 -1.1090  0.2348
   38MOL   C60123615   7.021   7.333   4.972 -0.2879  0.3945  0.4088
   38MOL   H60223616   6.854   7.335   4.839  1.5873 -0.2268 -1.1382
   38MOL   H60323617   6.817   7.405   5.103 -0.8413  0.0279 -0.1772
   38MOL   H60423618   6.689   7.414   4.979 -0.1750  1.9883 -1.6760
   38MOL   H60523619   6.787   7.616   5.180 -0.9635  3.2064 -0.1302
   38MOL   H60623620   6.622   7.550   5.162 -1.0514  2.3098  0.2570
   38MOL   H60723621   6.750   7.741   4.984 -0.4709  0.0342 -0.5300
   38MOL   H60823622   6.589   7.674   4.964  1.2448  0.8437 -0.4793
   38MOL   H60923623   6.515   0.013   5.152  0.1663 -2.5415 -0.1669
   38MOL   H61023624   6.676   0.034   5.221 -0.8689 -0.8370  0.4361
   38MOL   H61123625   6.706   0.208   5.012  1.5464 -0.9581  1.1794
   38MOL   H61223626   6.542   0.186   4.987  0.1404  0.4738  0.1256
   38MOL   H61323627   6.679   0.293   5.244  0.1438  1.7353 -0.9261
   38MOL   H61423628   6.505   0.267   5.214 -1.6328  3.7399  0.8344
   38MOL   H61523629   6.674   0.463   5.047  0.8818 -0.0171 -0.4216
   38MOL   H61623630   6.504   0.420   5.037 -0.0430  0.5040  0.2486
   38MOL   H61723631   6.542   0.644   5.186 -0.5993 -0.7923  1.3500
   38MOL   H61823632   6.620   0.530   5.296  0.5493 -0.9331 -0.3787
   38MOL   H61923633   6.445   0.518   5.251  0.1454 -0.6425  1.4247
   38MOL   H62023634   7.082   7.255   4.926  0.0395  1.5668 -1.1628
   38MOL   H62123635   7.069   7.407   5.037 -2.6080  1.0967  1.3805
   38MOL   H62223636   6.958   7.273   5.038 -0.0410 -2.7857 -2.1035
   39MOL     C123637   7.510   1.172   5.707 -0.6291 -0.2380  0.3122
   39MOL     O223638   7.466   1.236   5.588  0.1178  0.4100 -0.0461
   39MOL     C323639   7.444   1.371   5.610 -0.1526 -0.6510  0.4003
   39MOL     C423640   7.374   1.427   5.484  0.1763 -0.6424  0.6796
   39MOL     C523641   7.361   1.582   5.489 -0.3188  0.1638 -0.3166
   39MOL     C623642   7.260   1.637   5.380  0.2124  0.0163  0.4332
   39MOL     C723643   7.236   1.791   5.396  0.4108  0.4085  0.2094
   39MOL     C823644   7.156   1.857   5.286  0.3542 -0.3936  0.3607
   39MOL     C923645   7.149   2.007   5.316 -0.2023  0.6169 -0.4031
   39MOL    C1023646   7.066   2.048   5.443  0.0352  0.2085 -0.2349
   39MOL    C1123647   7.562   1.028   5.672 -1.2095 -0.0078  0.2700
   39MOL    H1223648   7.592   1.225   5.756 -0.5197 -1.5515  1.5679
   39MOL    H1323649   7.536   1.426   5.630 -0.6096  0.1595  0.2856
   39MOL    H1423650   7.382   1.390   5.698  0.9410 -0.4465  1.1333
   39MOL    H1523651   7.273   1.389   5.471 -0.6364  1.4673  0.5283
   39MOL    H1623652   7.434   1.400   5.397 -0.2280 -0.0530  0.2150
   39MOL    H1723653   7.331   1.608   5.590 -0.9269 -0.3520 -0.3572
   39MOL    H1823654   7.467   1.607   5.484  0.1018 -1.1392  1.7135
   39MOL    H1923655   7.286   1.616   5.276  0.4206  1.7454  0.1205
   39MOL    H2023656   7.168   1.584   5.407 -1.4579  1.7825 -1.6703
   39MOL    H2123657   7.187   1.820   5.488  1.1872  0.0116  0.7607
   39MOL    H2223658   7.335   1.837   5.401  1.4765 -1.2555 -3.5055
   39MOL    H2323659   7.056   1.817   5.269  0.9156 -0.8736 -1.9648
   39MOL    H2423660   7.209   1.848   5.191 -3.8571  1.5854 -2.3139
   39MOL    H2523661   7.248   2.043   5.341 -1.5138  2.7801  2.0186
   39MOL    H2623662   7.116   2.063   5.229 -0.9051  1.4065  0.3493
   39MOL    H2723663   6.962   2.023   5.423  0.2555 -0.5491 -0.4508
   39MOL    H2823664   7.060   2.157   5.435  0.2403  0.1721 -0.9881
   39MOL    H2923665   7.097   2.008   5.539  2.4341  2.4823  0.0141
   39MOL    H3023666   7.495   0.969   5.610  0.5664  0.7016 -2.4189
   39MOL    H3123667   7.650   1.040   5.608 -3.1609 -1.6788 -2.8578
   39MOL    H3223668   7.426   1.151   5.772  1.5289 -0.0663  3.2524
   39MOL    C3323669   7.610   0.945   5.793 -0.6605 -1.6380  0.9215
   39MOL    O3423670   7.660   0.824   5.745 -0.1501 -0.0022  0.3598
   39MOL    C3523671   0.025   0.830   5.709 -0.2466 -0.1285 -0.1409
   39MOL    C3623672   0.053   0.690   5.657  0.2597 -0.1914  0.3882
   39MOL    C3723673   7.757   0.654   5.521 -0.2636 -0.0615 -0.2886
   39MOL    C3823674   7.768   0.504   5.486  0.6843  0.4241 -0.4244
   39MOL    C3923675   7.696   0.477   5.355 -0.3535  0.0802  0.0025
   39MOL    C4023676   7.707   0.344   5.293 -0.2147 -0.1036  0.0526
   39MOL    C4123677   7.635   0.343   5.155 -0.1937 -0.7193 -0.3919
   39MOL    C4223678   7.660   0.217   5.070  0.0535  0.1215 -0.5369
   39MOL    C4323679   7.486   0.914   5.875 -0.1716  0.1021 -0.3604
   39MOL    H4423680   7.690   0.987   5.854 -0.6240 -1.9260  1.0759
   39MOL    H4523681   0.091   0.848   5.794 -0.5189  0.8019 -0.1240
   39MOL    H4623682   0.060   0.889   5.624 -1.1793  0.3817 -0.1792
   39MOL    H4723683   0.033   0.603   5.718 -2.3234 -0.4401 -0.7547
   39MOL    H4823684   0.160   0.690   5.635  0.1055 -0.3918 -0.3869
   39MOL    H4923685   7.658   0.694   5.542 -0.7435 -2.3630  2.1001
   39MOL    H5023686   0.030   0.718   5.447  1.8667  1.1074  2.0005
   39MOL    H5123687   0.098   0.473   5.484 -0.1849 -2.6836 -1.5234
   39MOL    H5223688   7.724   0.442   5.564  0.5991  2.1866  0.9461
   39MOL    H5323689   7.589   0.490   5.367 -0.4924 -1.8198  0.9758
   39MOL    H5423690   7.733   0.547   5.279  1.4277 -0.6509  0.1680
   39MOL    H5523691   7.668   0.264   5.356  1.9091 -0.5428  0.8725
   39MOL    H5623692   0.039   0.319   5.284 -0.5807 -1.9160  0.5811
   39MOL    H5723693   7.533   0.376   5.171 -0.6640 -2.1520 -0.3690
   39MOL    H5823694   7.683   0.425   5.102  0.2502  0.0952  1.2464
   39MOL    H5923695   7.566   0.171   5.040  0.2882 -0.2996 -0.6367
   39MOL    H6023696   7.716   0.134   5.112  0.7709 -0.2604 -2.1883
   39MOL    H6123697   7.709   0.237   4.974 -0.6961 -1.3335 -1.2497
   39MOL    H6223698   7.435   1.004   5.910  1.1698  1.3299 -1.4547
   39MOL    H6323699   7.417   0.860   5.810  0.4156  0.1332 -1.0185
   39MOL    C6423700   7.506   0.828   5.996  0.4476  0.2306  0.1857
   39MOL    O6523701   7.553   0.695   5.966  0.1230 -0.2042 -0.2773
   39MOL    C6623702   7.637   0.633   6.061 -0.5345 -0.1880 -0.1190
   39MOL    C6723703   0.010   0.687   6.045  0.2577  0.0827 -0.3334
   39MOL    C6823704   0.122   0.618   6.132 -0.3213  0.0982  0.1132
   39MOL    C6923705   0.238   0.708   6.164 -0.5995 -0.3276  0.7811
   39MOL    C7023706   0.322   0.779   6.048  0.0708 -0.6694 -0.8348
   39MOL    C7123707   0.392   0.687   5.952 -0.4282  0.4836  0.4464
   39MOL    C7223708   0.444   0.748   5.825  0.0278  0.6572 -0.3206
   39MOL    C7323709   0.532   0.663   5.732 -1.0508  0.2297 -0.1443
   39MOL    C7423710   7.381   0.801   6.078 -0.4323 -0.6062 -0.5335
   39MOL    H7523711   7.558   0.887   6.071  1.5173  1.1162 -1.2097
   39MOL    H7623712   7.625   0.526   6.045  0.5018 -0.1866 -0.9435
   39MOL    H7723713   7.603   0.653   6.162  1.3976  1.7817  0.1551
   39MOL    H7823714   0.010   0.796   6.051 -1.2425 -0.0129  1.8305
   39MOL    H7923715   0.043   0.673   5.942  1.6046  1.5491 -0.1314
   39MOL    H8023716   0.077   0.588   6.226 -0.4040  0.1404  0.0868
   39MOL    H8123717   0.153   0.527   6.080 -2.2898  0.7171 -2.2857
   39MOL    H8223718   0.198   0.785   6.229 -0.5411 -0.5333  1.0602
   39MOL    H8323719   0.314   0.651   6.217  1.1707 -0.1960 -1.5108
   39MOL    H8423720   0.246   0.841   6.000 -0.8100  0.9655  2.5087
   39MOL    H8523721   0.403   0.842   6.084  0.1467 -0.4717 -1.3459
   39MOL    H8623722   0.327   0.604   5.926 -2.5556  1.8213  1.3717
   39MOL    H8723723   0.479   0.642   6.001  0.0040  2.5196  1.6142
   39MOL    H8823724   0.364   0.802   5.776  1.5233  2.8175 -0.4584
   39MOL    H8923725   0.517   0.819   5.863  0.2422  0.1279  0.2586
   39MOL    H9023726   0.482   0.576   5.690  1.3945 -0.3242 -1.9992
   39MOL    H9123727   0.632   0.647   5.772 -2.6230  0.3753  4.0360
   39MOL    H9223728   0.553   0.717   5.639  1.9132  0.0332  0.3788
   39MOL    H9323729   7.404   0.727   6.154  0.3310 -0.1054 -0.2709
   39MOL    H9423730   7.359   0.896   6.126 -0.9665 -1.6249  1.2578
   39MOL    C9523731   7.257   0.754   6.001 -0.1812 -1.0445 -0.3565
   39MOL    O9623732   7.146   0.777   6.091 -0.3017 -0.2615  0.0049
   39MOL    C9723733   7.026   0.805   6.026 -0.2226 -0.2890 -0.1561
   39MOL    C9823734   6.921   0.862   6.116 -0.3672 -0.5312  0.7807
   39MOL    C9923735   6.884   0.754   6.215  0.0169 -0.5400  0.0393
   39MOL   C10023736   6.781   0.797   6.318  0.6912  0.9791  0.1286
   39MOL   C10123737   6.836   0.889   6.422 -0.8707  0.4351  0.1970
   39MOL   C10223738   6.744   0.899   6.542 -1.0587 -0.6199 -0.1697
   39MOL   C10323739   6.797   0.980   6.660  0.0347 -0.1242  0.5696
   39MOL   C10423740   6.843   1.115   6.619 -0.0541  0.1088 -0.3463
   39MOL   C10523741   7.253   0.608   5.948  0.0990 -0.1576 -0.2557
   39MOL   H10623742   7.242   0.827   5.921 -0.6685 -0.4644  0.2628
   39MOL   H10723743   6.989   0.708   5.993  1.4627 -1.0075 -0.0140
   39MOL   H10823744   7.045   0.865   5.937 -0.3582 -0.2726 -0.1727
   39MOL   H10923745   6.851   0.886   6.036  2.1980 -0.8296 -1.6307
   39MOL   H11023746   6.952   0.958   6.158  0.4392 -0.1800 -0.5914
   39MOL   H11123747   6.852   0.663   6.164  2.0804 -2.1734  1.5820
   39MOL   H11223748   6.973   0.718   6.266  0.5447  0.1188 -0.4173
   39MOL   H11323749   6.701   0.855   6.271  1.4780  2.8912  1.1170
   39MOL   H11423750   6.735   0.712   6.368  0.6870 -0.6392 -2.5416
   39MOL   H11523751   6.936   0.860   6.454 -1.3948 -2.0521 -0.2695
   39MOL   H11623752   6.839   0.982   6.366 -1.5082 -0.7737 -1.8870
   39MOL   H11723753   6.715   0.801   6.581 -4.4217  0.3988  0.0557
   39MOL   H11823754   6.657   0.956   6.508 -1.7611 -0.2769  2.1402
   39MOL   H11923755   6.710   1.000   6.722 -1.1354 -0.0478 -1.0518
   39MOL   H12023756   6.878   0.924   6.706  1.3213  0.1959 -1.2505
   39MOL   H12123757   6.926   1.103   6.550  0.1894  0.2235 -0.0757
   39MOL   H12223758   6.876   1.177   6.703 -0.2539  0.6686 -0.6752
   39MOL   H12323759   6.771   1.169   6.558 -2.0474 -0.0109  1.8457
   39MOL   H12423760   7.317   0.547   6.011  0.6836  0.4893 -0.2137
   39MOL   H12523761   7.154   0.567   5.967 -0.3890  1.4632  0.8480
   39MOL   C12623762   7.290   0.594   5.797  0.5728 -0.1253 -0.1680
   39MOL   O12723763   7.194   0.660   5.716  0.3155  0.1907  0.6790
   39MOL   C12823764   7.237   0.749   5.616 -0.8113  0.1391  0.0760
   39MOL   C12923765   7.126   0.764   5.507  0.3865  0.0656  0.1453
   39MOL   C13023766   7.103   0.632   5.434 -0.1046  0.7674 -0.2432
   39MOL   C13123767   6.975   0.633   5.347 -0.8378  0.2983 -0.0409
   39MOL   C13223768   6.998   0.734   5.240  0.3206 -0.0587  0.5627
   39MOL   C13323769   6.868   0.784   5.178  0.8208  0.6635 -0.0299
   39MOL   C13423770   6.791   0.889   5.259  0.5927 -0.3091 -0.4717
   39MOL   C13523771   6.676   0.944   5.175  0.0250 -0.3697  0.1735
   39MOL   C13623772   7.273   0.449   5.748  0.5079  0.2906 -0.0583
   39MOL   H13723773   7.394   0.623   5.782 -0.0265  1.2534 -1.7794
   39MOL   H13823774   7.338   0.728   5.581 -0.9971 -0.9500  0.1804
   39MOL   H13923775   7.242   0.842   5.672  1.7024 -0.2871  0.6324
   39MOL   H14023776   7.162   0.837   5.435  1.4590 -0.5473  0.0387
   39MOL   H14123777   7.036   0.797   5.558  0.4852  1.2739 -0.4489
   39MOL   H14223778   7.191   0.594   5.382 -0.3268 -2.9222  1.8631
   39MOL   H14323779   7.080   0.564   5.517 -2.8766  1.1952 -0.6294
   39MOL   H14423780   6.958   0.534   5.305  0.3621  0.7367 -1.5839
   39MOL   H14523781   6.887   0.652   5.409 -1.8691 -0.0820 -1.3520
   39MOL   H14623782   7.041   0.829   5.271 -2.0629  2.2982 -2.9341
   39MOL   H14723783   7.051   0.692   5.154 -0.4101  0.8490 -0.3505
   39MOL   H14823784   6.794   0.707   5.157  1.7322 -0.2199  0.0258
   39MOL   H14923785   6.903   0.833   5.087  2.9430 -0.4096  0.1790
   39MOL   H15023786   6.755   0.841   5.350 -2.1431  1.4923 -0.5573
   39MOL   H15123787   6.859   0.968   5.291 -1.0498  1.3943 -1.1001
   39MOL   H15223788   6.631   1.037   5.211 -0.7622  0.1534 -2.0829
   39MOL   H15323789   6.597   0.869   5.175 -0.1747 -0.2048 -1.8800
   39MOL   H15423790   6.713   0.950   5.073  1.6781  1.5692  0.8598
   39MOL   H15523791   7.210   0.388   5.813 -0.6612  1.0633 -0.4605
   39MOL   H15623792   7.210   0.441   5.659 -2.9601 -0.5048  2.3627
   39MOL   C15723793   7.407   0.380   5.726  0.0644  0.2850  0.2351
   39MOL   O15823794   7.383   0.261   5.645 -0.0946  0.9188 -0.1747
   39MOL   C15923795   7.423   0.280   5.508  0.0461 -0.6405  0.1948
   39MOL   C16023796   7.395   0.161   5.421  0.2042 -0.1556 -0.5501
   39MOL   C16123797   7.457   0.026   5.451 -0.8015  0.0074  0.2024
   39MOL   C16223798   7.428   7.675   5.362  0.0470 -0.1387  0.6197
   39MOL   C16323799   7.505   7.557   5.424  0.1911 -0.2269 -1.2566
   39MOL   C16423800   7.449   7.504   5.555 -0.0472 -0.2350 -1.0359
   39MOL   C16523801   7.532   7.383   5.607 -0.4053 -0.2369  0.9455
   39MOL   C16623802   7.459   7.321   5.724  0.2264  0.4201  0.3253
   39MOL   C16723803   7.459   0.335   5.864  0.2388 -0.1392 -0.4206
   39MOL   H16823804   7.492   0.436   5.686 -0.6051  1.4166  0.3801
   39MOL   H16923805   7.527   0.311   5.505  0.0379 -0.6497 -0.2992
   39MOL   H17023806   7.362   0.359   5.465  0.2900 -0.7073 -0.2792
   39MOL   H17123807   7.434   0.186   5.322  0.5752  1.5505  0.0048
   39MOL   H17223808   7.286   0.157   5.412  0.2013  1.4042 -1.4760
   39MOL   H17323809   7.564   0.045   5.454 -0.6923 -0.0978 -2.2173
   39MOL   H17423810   7.436   0.015   5.557  0.9118  0.6782  0.6317
   39MOL   H17523811   7.323   7.647   5.355  0.1716 -1.0527  2.1948
   39MOL   H17623812   7.453   7.702   5.260 -1.7180 -1.5759 -0.2084
   39MOL   H17723813   7.508   7.473   5.355 -1.0392 -1.3839  0.0767
   39MOL   H17823814   7.607   7.586   5.449  0.4169 -1.9844 -0.0273
   39MOL   H17923815   7.346   7.472   5.536 -0.5847 -0.5368  2.0792
   39MOL   H18023816   7.438   7.591   5.620 -0.9998 -1.5581  0.6044
   39MOL   H18123817   7.535   7.310   5.526 -0.2291 -0.4131  1.1133
   39MOL   H18223818   7.634   7.417   5.625  0.4393 -1.9168 -0.5970
   39MOL   H18323819   7.367   7.281   5.683  0.1657 -0.5961  1.4441
   39MOL   H18423820   7.434   7.391   5.804  1.4867  1.8697 -0.5085
   39MOL   H18523821   7.509   7.231   5.761  0.7591  0.0971 -1.1359
   39MOL   H18623822   7.503   0.417   5.921  1.3524 -1.6789  0.9794
   39MOL   H18723823   7.374   0.300   5.922 -1.0854  3.6801  0.0857
   39MOL   C18823824   7.570   0.223   5.861  0.2458  0.0439 -0.0148
   39MOL   O18923825   7.574   0.137   5.978 -0.0835 -0.5277 -0.3051
   39MOL   C19023826   7.477   0.036   5.990  0.1594  0.1361  0.0853
   39MOL   C19123827   7.495   7.704   6.103 -0.0695  0.4241  0.8970
   39MOL   C19223828   7.380   7.600   6.099 -0.5259 -0.6412 -0.1440
   39MOL   C19323829   7.417   7.486   6.189  0.9395  0.9668 -0.0915
   39MOL   C19423830   7.311   7.371   6.193 -1.1394 -0.5190  0.2827
   39MOL   C19523831   7.288   7.298   6.060  0.1208  0.2572  0.1303
   39MOL   C19623832   7.184   7.190   6.062  0.3393  0.1380 -0.5477
   39MOL   C19723833   7.178   7.117   5.924 -0.3147  0.0286  0.8191
   39MOL   C19823834   7.715   0.274   5.835  0.6315 -0.0825 -0.1253
   39MOL   H19923835   7.547   0.153   5.780 -0.5127  0.6352 -0.3153
   39MOL   H20023836   7.375   0.073   6.006  0.5024  0.1428  2.4637
   39MOL   H20123837   7.476   7.753   5.897  0.5647  0.2182  0.0307
   39MOL   H20223838   7.497   7.768   6.191 -1.7322  4.5497 -1.9409
   39MOL   H20323839   7.583   7.641   6.089 -0.7054 -0.4696  0.8353
   39MOL   H20423840   7.290   7.654   6.130 -0.3472 -0.2550 -0.3045
   39MOL   H20523841   7.369   7.556   6.000 -0.4817 -0.6512 -0.1440
   39MOL   H20623842   7.513   7.450   6.152 -0.3219 -0.9995 -1.5302
   39MOL   H20723843   7.429   7.521   6.292 -1.8235 -0.0903  0.6347
   39MOL   H20823844   7.360   7.300   6.259 -0.1456 -0.2081 -0.1136
   39MOL   H20923845   7.216   7.401   6.237 -1.5475  1.7579 -2.0121
   39MOL   H21023846   7.383   7.258   6.024  0.5329 -0.7298  2.2802
   39MOL   H21123847   7.260   7.376   5.989  1.2102  0.3658 -0.1862
   39MOL   H21223848   7.218   7.115   6.133 -0.7658  0.1901  0.0371
   39MOL   H21323849   7.085   7.228   6.088  0.3307 -0.9357  1.0315
   39MOL   H21423850   7.191   7.189   5.844 -1.0608 -0.2105  0.4733
   39MOL   H21523851   7.076   7.079   5.921  0.0922 -1.0307 -0.0445
   39MOL   H21623852   7.241   7.028   5.921 -0.6738 -0.1571 -2.4926
   39MOL   H21723853   7.701   0.321   5.738 -0.5455  0.4770  0.3063
   39MOL   H21823854   7.767   0.344   5.901  2.7943 -0.8241 -0.9912
   39MOL   C21923855   0.039   0.163   5.816  0.4732 -0.4348  0.7703
   39MOL   O22023856   0.165   0.228   5.787  0.8297 -0.1690  0.1345
   39MOL   C22123857   0.233   0.252   5.905 -0.0545  0.0673 -0.0969
   39MOL   C22223858   0.372   0.293   5.861  0.0399 -0.4644  0.0049
   39MOL   C22323859   0.458   0.172   5.805 -0.4819 -0.4810  0.5802
   39MOL   C22423860   0.608   0.196   5.805  0.1750 -0.3933 -0.0585
   39MOL   C22523861   0.659   0.310   5.712 -0.0149  0.1470 -0.2421
   39MOL   C22623862   0.811   0.291   5.692  0.8355 -0.8059 -0.3151
   39MOL   C22723863   0.875   0.392   5.597  0.7462  0.8209 -0.4003
   39MOL   C22823864   1.025   0.364   5.586 -0.4998 -0.1787 -0.1054
   39MOL   C22923865   0.018   0.070   5.698 -0.9687 -0.8099 -0.5638
   39MOL   H23023866   0.031   0.104   5.907 -2.1494  0.5396  1.2159
   39MOL   H23123867   0.230   0.167   5.973 -1.8297 -0.6775 -1.0831
   39MOL   H23223868   0.194   0.335   5.965  1.3925 -0.3016  1.3946
   39MOL   H23323869   0.417   0.336   5.950 -0.3547 -0.8795  0.4064
   39MOL   H23423870   0.355   0.376   5.791  1.9293  0.9890  1.2301
   39MOL   H23523871   0.428   0.091   5.872 -1.3916 -1.0267 -0.4710
   39MOL   H23623872   0.430   0.136   5.706  0.5512  0.7666 -0.1783
   39MOL   H23723873   0.642   0.220   5.906  1.4570  0.0373 -0.5936
   39MOL   H23823874   0.666   0.108   5.775 -0.0247 -0.3484 -0.5824
   39MOL   H23923875   0.604   0.311   5.618  0.2798  0.7703 -0.4120
   39MOL   H24023876   0.642   0.405   5.764  0.1567  0.0945 -0.0895
   39MOL   H24123877   0.818   0.193   5.644  1.1489 -1.3869  0.8856
   39MOL   H24223878   0.865   0.299   5.786  1.3552 -0.3927 -0.6485
   39MOL   H24323879   0.830   0.394   5.498 -1.9741  1.1645  0.8042
   39MOL   H24423880   0.866   0.493   5.638 -0.0603  0.1675  1.0615
   39MOL   H24523881   1.072   0.379   5.683 -1.3117 -0.2018  0.2983
   39MOL   H24623882   1.063   0.433   5.510 -0.2192 -2.1755 -1.8312
   39MOL   H24723883   1.036   0.261   5.554 -1.1251 -0.1494 -0.4324
   39MOL   H24823884   7.695   0.020   5.706  0.5987 -3.8552  0.1814
   39MOL   H24923885   0.012   0.128   5.606 -0.0447 -1.1237 -0.8236
   39MOL   C25023886   0.119   7.725   5.684 -0.1359 -0.6547  0.6578
   39MOL   O25123887   0.121   7.681   5.552  0.0875 -1.1464 -0.1518
   39MOL   C25223888   0.212   7.754   5.465  0.3999 -0.8215 -0.7571
   39MOL   C25323889   0.192   7.702   5.320  0.0075  0.4572  0.8978
   39MOL   C25423890   0.223   0.035   5.220 -0.2558 -0.1877 -0.1742
   39MOL   C25523891   0.242   7.753   5.080  0.2117  0.2284 -0.2173
   39MOL   C25623892   0.292   0.081   4.982 -0.4772  0.2758 -0.4812
   39MOL   C25723893   0.235   0.059   4.843  0.7749 -0.1258 -0.8484
   39MOL   C25823894   0.274   0.166   4.749  0.0267 -0.1088  0.6944
   39MOL   C25923895   0.211   0.299   4.785 -0.0680 -0.5565 -0.5277
   39MOL   C26023896   0.090   7.616   5.783  0.7735  0.1807  0.7164
   39MOL   H26123897   0.220   7.756   5.710  0.2948 -1.6936  0.2439
   39MOL   H26223898   0.314   7.753   5.503 -1.0360 -0.7604  3.2496
   39MOL   H26323899   0.187   0.085   5.461 -0.4389 -0.9615  0.5502
   39MOL   H26423900   0.087   7.676   5.304  0.4559 -0.3485 -0.8921
   39MOL   H26523901   0.262   7.620   5.310 -0.7821  0.0535 -1.8375
   39MOL   H26623902   0.162   0.126   5.222  2.2629  1.5545  0.0005
   39MOL   H26723903   0.318   0.079   5.252 -0.4962  0.2518 -0.0557
   39MOL   H26823904   0.306   7.665   5.069  0.2804 -0.0063  1.9466
   39MOL   H26923905   0.141   7.723   5.054  0.5756 -0.6388 -0.6514
   39MOL   H27023906   0.272   0.181   5.022  3.0493  1.4761 -1.5134
   39MOL   H27123907   0.401   0.076   4.977 -0.3926 -0.8647  1.8291
   39MOL   H27223908   0.126   0.052   4.851  0.8889  0.2013  1.3652
   39MOL   H27323909   0.268   7.735   4.810  0.4764 -0.0233 -1.4703
   39MOL   H27423910   0.383   0.173   4.754 -0.1509  2.3474  2.1607
   39MOL   H27523911   0.247   0.129   4.650 -1.1944 -0.5181  1.1670
   39MOL   H27623912   0.244   0.381   4.722 -1.0574 -1.1149 -1.8136
   39MOL   H27723913   0.214   0.330   4.889 -0.5699 -1.7035 -0.1592
   39MOL   H27823914   0.104   0.291   4.764 -0.3924  0.1846  0.8192
   39MOL   H27923915   0.084   7.658   5.883  3.0398 -3.4420  2.4722
   39MOL   H28023916   7.766   7.573   5.763  1.4465 -2.0576  2.0978
   39MOL   C28123917   0.201   7.506   5.792 -0.6371 -0.0509  0.3847
   39MOL   O28223918   0.150   7.403   5.866 -0.0891 -0.5838 -0.2726
   39MOL   C28323919   0.125   7.280   5.796  0.2250  0.4768  0.4481
   39MOL   C28423920   0.051   7.168   5.882 -0.6268 -0.2882  0.6292
   39MOL   C28523921   7.743   7.223   5.993  0.6478  0.4536  0.4018
   39MOL   C28623922   7.703   7.110   6.091 -0.7694 -0.2146  0.9849
   39MOL   C28723923   7.617   6.995   6.044  0.0511  0.3279  0.5588
   39MOL   C28823924   7.560   6.904   6.150  0.2518  0.1331  0.2903
   39MOL   C28923925   7.648   6.798   6.211  0.4700  0.2058  0.3481
   39MOL   C29023926   7.712   6.701   6.114 -0.3808 -0.4840  0.1397
   39MOL   C29123927   0.314   7.562   5.879 -0.2715 -0.1553  0.1830
   39MOL   H29223928   0.223   7.466   5.693 -0.1769  0.6461  0.1979
   39MOL   H29323929   0.211   7.237   5.745 -0.5534 -0.7634  0.1765
   39MOL   H29423930   0.050   7.305   5.721  0.2488  0.6372  0.4773
   39MOL   H29523931   0.119   7.094   5.923  0.8459  0.2345 -0.8217
   39MOL   H29623932   7.764   7.105   5.816 -0.4818 -0.3207  0.5256
   39MOL   H29723933   0.019   7.300   6.052 -2.0331  1.7792  1.0411
   39MOL   H29823934   7.651   7.268   5.954 -0.4793 -2.4797 -0.4405
   39MOL   H29923935   0.020   7.055   6.113 -1.2152 -1.8416 -1.0111
   39MOL   H30023936   7.672   7.160   6.183 -0.6064  2.6186 -0.4588
   39MOL   H30123937   7.536   7.041   5.988 -0.3719  1.2326  1.8777
   39MOL   H30223938   7.671   6.931   5.974 -2.0097 -0.2257 -0.5355
   39MOL   H30323939   7.477   6.850   6.103  0.6416 -0.7708  0.6153
   39MOL   H30423940   7.506   6.963   6.224 -0.5145 -0.4709  0.2303
   39MOL   H30523941   7.725   6.838   6.276 -0.8178  0.5762  1.6704
   39MOL   H30623942   7.593   6.740   6.285 -0.3426  0.5836  0.0497
   39MOL   H30723943   0.006   6.634   6.165  2.6108  0.7840 -2.0846
   39MOL   H30823944   7.772   6.761   6.045 -1.8750 -0.7172 -1.4071
   39MOL   H30923945   7.632   6.637   6.075 -1.5241  1.4410 -0.7554
   39MOL   H31023946   0.344   7.661   5.846  1.2321  0.3406  2.8452
   39MOL   H31123947   0.275   7.582   5.979 -0.2511 -2.6536  0.7350
   39MOL   C31223948   0.438   7.466   5.878 -0.3334 -0.1395 -0.5697
   39MOL   O31323949   0.499   7.465   6.005 -0.5872  0.0229  0.1584
   39MOL   C31423950   0.441   7.385   6.113 -0.3919  0.0971  0.4629
   39MOL   C31523951   0.463   7.446   6.257 -0.1452  0.5539  0.1008
   39MOL   C31623952   0.388   7.580   6.287 -0.9207 -0.2953  1.0949
   39MOL   C31723953   0.455   7.706   6.223  0.0834  0.8975  0.3989
   39MOL   C31823954   0.404   0.067   6.277 -0.3148  0.3775  0.1760
   39MOL   C31923955   0.460   0.194   6.197 -1.0600  0.7099  0.2800
   39MOL   C32023956   0.417   0.337   6.238 -0.1634  0.1859  0.4121
   39MOL   C32123957   0.455   0.377   6.373 -0.1209 -0.4605  0.1541
   39MOL   C32223958   0.547   7.520   5.782  0.4287  0.4290  0.0734
   39MOL   H32323959   0.409   7.364   5.855 -1.7589  0.2663 -0.6572
   39MOL   H32423960   0.488   7.287   6.103 -0.4963 -0.1495  2.3086
   39MOL   H32523961   0.334   7.363   6.105 -0.1453 -0.7851 -0.6125
   39MOL   H32623962   0.569   7.456   6.279 -0.0521 -2.7166  1.3409
   39MOL   H32723963   0.435   7.366   6.325  0.6688 -1.1154 -1.5048
   39MOL   H32823964   0.293   7.571   6.235 -1.1195 -0.3647  1.4646
   39MOL   H32923965   0.372   7.595   6.394 -1.7676 -0.8411  1.0522
   39MOL   H33023966   0.564   7.704   6.235  0.2273 -1.6191 -0.8812
   39MOL   H33123967   0.425   7.702   6.119  2.5993 -1.3337 -0.3004
   39MOL   H33223968   0.295   0.066   6.268 -0.3268 -0.7401  0.4341
   39MOL   H33323969   0.421   0.079   6.384 -0.5245 -0.6941  0.3353
   39MOL   H33423970   0.430   0.178   6.094  1.5785 -0.9332 -0.2886
   39MOL   H33523971   0.564   0.164   6.213 -1.7543 -0.8378  2.2504
   39MOL   H33623972   0.486   0.396   6.178 -0.1359  1.5043  1.7029
   39MOL   H33723973   0.316   0.357   6.203 -1.3059  1.7128  4.3187
   39MOL   H33823974   0.563   0.367   6.368  0.0471  0.9914  0.6402
   39MOL   H33923975   0.407   0.319   6.452 -0.6209  3.0769  2.5472
   39MOL   H34023976   0.430   0.481   6.395  0.4496 -0.4696  0.8726
   39MOL   H34123977   0.489   7.540   5.692  2.2322 -1.1344 -1.4780
   39MOL   H34223978   0.583   7.618   5.814 -1.1822  1.1657 -0.2764
   39MOL   C34323979   0.662   7.423   5.735  0.4572 -0.2757 -0.0148
   39MOL   O34423980   0.606   7.294   5.707 -0.1176  0.5643  0.0695
   39MOL   C34523981   0.681   7.218   5.619 -0.2209  0.0560  0.3397
   39MOL   C34623982   0.587   7.121   5.552 -0.6079 -0.1782  0.0365
   39MOL   C34723983   0.527   7.014   5.640 -0.2125 -0.1603  0.0233
   39MOL   C34823984   0.415   6.932   5.576 -0.4252  0.1215  0.6251
   39MOL   C34923985   0.324   6.853   5.675  0.2908  0.1252 -0.6913
   39MOL   C35023986   0.259   6.720   5.619 -0.4938 -0.7846 -0.8663
   39MOL   C35123987   0.162   6.647   5.712 -0.6632  0.2772 -0.5188
   39MOL   C35223988   0.048   6.734   5.770  0.0460 -0.5518  0.5341
   39MOL   C35323989   0.774   7.407   5.841 -0.0357 -0.1297 -0.0676
   39MOL   H35423990   0.703   7.463   5.642 -1.5399 -3.7817 -2.5414
   39MOL   H35523991   0.751   7.165   5.684  0.6290  0.3607 -0.3174
   39MOL   H35623992   0.730   7.280   5.543  0.7388 -1.3643 -0.2194
   39MOL   H35723993   0.651   7.069   5.481 -3.5351 -3.9272  0.0021
   39MOL   H35823994   0.517   7.179   5.492 -0.6850  0.4873  0.7690
   39MOL   H35923995   0.600   6.944   5.681 -2.0819 -0.7556  2.4278
   39MOL   H36023996   0.481   7.063   5.726 -1.5406 -1.6024  0.1490
   39MOL   H36123997   0.347   6.989   5.513  1.1435 -0.1640 -1.4125
   39MOL   H36223998   0.468   6.867   5.505  0.9818  1.6201  0.2768
   39MOL   H36323999   0.380   6.825   5.764  0.2376  1.3185 -0.2665
   39MOL   H36424000   0.249   6.929   5.696  0.8795 -0.0694  2.3407
   39MOL   H36524001   0.338   6.650   5.592  1.0024 -0.3793  2.3009
   39MOL   H36624002   0.193   6.752   5.538  1.3653  1.8362 -1.4078
   39MOL   H36724003   0.127   6.558   5.659  1.8621  0.3807 -2.5077
   39MOL   H36824004   0.227   6.611   5.792  0.0351  2.4671 -0.0587
   39MOL   H36924005   0.090   6.810   5.836  0.1598  0.6402 -0.8748
   39MOL   H37024006   7.758   6.661   5.820 -2.5598  0.4176 -1.3159
   39MOL   H37124007   7.763   6.791   5.699  0.7625  0.0210  0.3899
   39MOL   H37224008   0.736   7.393   5.942 -0.8242 -0.4445 -0.4039
   39MOL   H37324009   0.833   7.318   5.818  0.3756 -0.2052  1.2056
   39MOL   C37424010   0.859   7.530   5.871 -0.1363 -0.5588 -0.0864
   39MOL   O37524011   0.924   7.573   5.753  0.4304 -0.3690 -0.5805
   39MOL   C37624012   0.914   7.710   5.712 -0.6727  0.0366  0.0360
   39MOL   C37724013   1.026   7.725   5.604  0.6903 -0.3332  0.6010
   39MOL   C37824014   1.168   7.759   5.646  0.2679 -0.1372 -0.2818
   39MOL   C37924015   1.262   0.014   5.524 -0.0786 -0.0227 -0.2261
   39MOL   C38024016   1.407   0.036   5.577  0.0880 -0.2105  0.1920
   39MOL   C38124017   1.501   0.085   5.467  0.0443  0.2695 -0.1452
   39MOL   C38224018   1.638   0.109   5.528  0.1455  0.7601  0.5180
   39MOL   C38324019   1.745   0.134   5.423 -0.2598  0.5052  0.5314
   39MOL   C38424020   0.969   7.503   5.977  0.2149 -0.0305 -0.3724
   39MOL   H38524021   0.788   7.605   5.904  0.4874  0.0540 -0.1369
   39MOL   H38624022   0.911   0.010   5.792 -3.7657  0.2010 -0.1492
   39MOL   H38724023   0.812   7.704   5.673 -1.2241 -4.1708  1.8569
   39MOL   H38824024   0.996   0.031   5.536  1.8900 -0.2243  0.1711
   39MOL   H38924025   1.038   7.629   5.554 -1.2727 -0.6778  0.7811
   39MOL   H39024026   1.166   0.075   5.708  2.3099 -0.2151 -0.0528
   39MOL   H39124027   1.205   7.682   5.714 -0.4716 -1.1178 -0.9754
   39MOL   H39224028   1.260   7.708   5.449  2.8122 -0.3578 -0.0113
   39MOL   H39324029   1.226   0.101   5.469 -0.9588  1.0660  2.0395
   39MOL   H39424030   1.410   0.108   5.659  1.6609  0.1795 -0.1874
   39MOL   H39524031   1.451   7.716   5.609  2.2284  1.8511  3.6339
   39MOL   H39624032   1.459   0.178   5.430 -1.2117  1.5388  4.1111
   39MOL   H39724033   1.509   0.012   5.387  1.7371 -0.8481  1.0038
   39MOL   H39824034   1.641   0.191   5.600  1.2334  0.7386  0.5062
   39MOL   H39924035   1.676   0.021   5.582  0.1809  0.7762  0.5200
   39MOL   H40024036   1.746   0.216   5.352  2.2527  0.1128  0.0637
   39MOL   H40124037   1.737   0.045   5.361  0.0063  0.6532  0.2867
   39MOL   H40224038   1.844   0.133   5.469  0.0037  0.0578 -0.0414
   39MOL   H40324039   0.950   7.416   6.040 -1.8901  2.2208  2.2678
   39MOL   H40424040   1.054   7.471   5.917 -0.2521 -3.8050  0.8399
   39MOL   C40524041   1.016   7.634   6.052  0.9711 -0.6083  0.2967
   39MOL   O40624042   1.122   7.592   6.137 -0.0276  0.1117 -0.3631
   39MOL   C40724043   1.251   7.581   6.082 -0.5721 -0.1191 -0.4688
   39MOL   C40824044   1.343   7.555   6.197 -0.0101 -0.1380  0.0032
   39MOL   C40924045   1.378   7.681   6.278 -0.2866  0.1775 -0.1750
   39MOL   C41024046   1.426   7.643   6.416 -0.0470 -0.0115  0.1899
   39MOL   C41124047   1.490   7.754   6.497 -0.1562 -0.1062  0.0040
   39MOL   C41224048   1.510   7.711   6.643  0.3802 -0.4290  0.2293
   39MOL   C41324049   1.581   0.046   6.731 -0.7646 -0.2983  0.0635
   39MOL   C41424050   1.503   0.183   6.739 -0.8675  0.5826 -0.5078
   39MOL   C41524051   0.899   7.689   6.131 -0.3266  0.3576 -0.3788
   39MOL   H41624052   1.060   7.709   5.987  1.5258  0.3101  1.6896
   39MOL   H41724053   1.289   7.676   6.046 -1.0600  0.1873 -0.1763
   39MOL   H41824054   1.272   7.508   6.003  0.1585 -0.2250 -0.1838
   39MOL   H41924055   1.442   7.519   6.168 -1.3854 -0.3691 -4.7847
   39MOL   H42024056   1.307   7.483   6.271  2.0005 -0.7456  0.4112
   39MOL   H42124057   1.460   7.732   6.226 -1.7209  1.7667 -0.9477
   39MOL   H42224058   1.301   7.758   6.281 -0.5112 -0.0203 -0.7366
   39MOL   H42324059   1.329   7.617   6.458 -0.9362  3.2496  0.2445
   39MOL   H42424060   1.495   7.558   6.410 -0.4659 -0.3593  0.2690
   39MOL   H42524061   1.587   7.771   6.450  0.1106  2.5405  1.4301
   39MOL   H42624062   1.421   0.064   6.489 -1.1033 -0.5760  2.6505
   39MOL   H42724063   1.566   7.621   6.667 -0.2046 -0.2836  2.2292
   39MOL   H42824064   1.412   7.687   6.683  1.0636  0.5912  2.5981
   39MOL   H42924065   1.620   7.774   6.822  0.2695 -2.3827 -1.4165
   39MOL   H43024066   1.673   0.056   6.675 -0.3541 -0.4075  0.7147
   39MOL   H43124067   1.436   0.198   6.654  1.4885  2.9898 -2.0063
   39MOL   H43224068   1.571   0.266   6.753 -1.1497  1.1486 -2.3203
   39MOL   H43324069   1.440   0.174   6.828  0.6119  2.0938  0.7105
   39MOL   H43424070   0.806   7.712   6.080  0.4824  1.6130 -1.2914
   39MOL   H43524071   0.874   7.608   6.200  0.9116 -0.3803 -0.7902
   39MOL   C43624072   0.951   0.041   6.212  0.4083 -0.0302 -0.1503
   39MOL   O43724073   0.852   0.086   6.300  0.2948  0.3386  0.1090
   39MOL   C43824074   0.856   0.025   6.424 -0.4428 -0.4102  0.3850
   39MOL   C43924075   0.731   0.079   6.490 -0.0025 -0.2115 -0.0595
   39MOL   C44024076   0.739   0.064   6.640 -0.2721  0.2623  0.0078
   39MOL   C44124077   0.610   0.090   6.703 -0.2002 -0.2286 -0.6649
   39MOL   C44224078   0.572   0.244   6.705 -0.1361 -0.1709 -0.1358
   39MOL   C44324079   0.449   0.281   6.783  0.1410 -0.4160 -0.2902
   39MOL   C44424080   0.426   0.438   6.791 -0.1696  0.5854  0.6855
   39MOL   C44524081   0.287   0.475   6.839  0.4018 -0.4782 -0.5491
   39MOL   C44624082   0.985   0.161   6.129 -0.0089 -0.1455 -0.3686
   39MOL   H44724083   1.041   0.010   6.265  0.2635 -0.0295  0.0979
   39MOL   H44824084   0.832   7.695   6.403 -0.4575 -0.5041  0.8489
   39MOL   H44924085   0.949   0.028   6.480  0.3529  0.7384 -0.9723
   39MOL   H45024086   0.651   0.014   6.456 -1.8110  1.6144  0.5770
   39MOL   H45124087   0.713   0.185   6.468 -3.2851 -0.3987  1.5399
   39MOL   H45224088   0.758   7.733   6.661  0.3666  0.4743  0.5041
   39MOL   H45324089   0.814   0.125   6.690  1.2726 -2.1887  0.7642
   39MOL   H45424090   0.533   0.036   6.649 -0.3313 -0.6506 -0.0652
   39MOL   H45524091   0.612   0.052   6.805 -0.9432 -0.7640 -0.8496
   39MOL   H45624092   0.652   0.301   6.753 -0.4119  1.3787 -1.4598
   39MOL   H45724093   0.562   0.284   6.604 -0.2746 -0.3216 -0.1820
   39MOL   H45824094   0.454   0.241   6.884  1.1408  2.2051  0.7408
   39MOL   H45924095   0.369   0.230   6.730 -0.6031 -1.2940  1.6201
   39MOL   H46024096   0.505   0.481   6.852  0.9401 -2.0352  1.1719
   39MOL   H46124097   0.438   0.482   6.692  1.7726 -0.0131  0.6390
   39MOL   H46224098   0.268   0.439   6.940 -0.8014 -0.6960 -0.8495
   39MOL   H46324099   0.207   0.439   6.775 -0.1483  0.2917 -0.3079
   39MOL   H46424100   0.279   0.584   6.838 -1.5138 -0.6040 -0.4050
   39MOL   H46524101   1.057   0.135   6.051  0.4848 -0.3002  0.1344
   39MOL   H46624102   0.902   0.196   6.068 -0.2948 -0.9020 -0.4222
   39MOL   C46724103   1.041   0.288   6.193  0.1134 -0.6290 -0.1654
   39MOL   O46824104   1.034   0.381   6.090  0.1029 -0.0390  0.2321
   39MOL   C46924105   0.938   0.487   6.099  0.1388  0.2342  0.0237
   39MOL   C47024106   0.956   0.585   5.983  0.3495  0.2728  0.2266
   39MOL   C47124107   0.844   0.684   5.977 -0.8236  0.0881 -0.1351
   39MOL   C47224108   0.827   0.783   6.095  0.0548  0.7758  0.0845
   39MOL   C47324109   0.722   0.884   6.065 -0.0607 -0.5593  0.1924
   39MOL   C47424110   0.698   0.975   6.188  0.0717 -0.8157  0.2679
   39MOL   C47524111   0.594   1.078   6.155 -0.3124 -0.0695  0.5545
   39MOL   C47624112   0.558   1.162   6.284 -0.3350  0.6450 -0.0350
   39MOL   C47724113   1.179   0.281   6.242  0.3410 -0.1560 -0.1089
   39MOL   H47824114   0.969   0.322   6.268 -0.0112  1.0341 -1.0115
   39MOL   H47924115   0.945   0.538   6.195  2.7559  2.3636 -1.2333
   39MOL   H48024116   0.844   0.432   6.094  0.1782  0.3193 -2.8425
   39MOL   H48124117   0.974   0.533   5.889 -0.2001  2.5160 -1.1631
   39MOL   H48224118   1.042   0.649   6.000  1.6368 -1.1692 -0.7459
   39MOL   H48324119   0.853   0.743   5.886  2.9033 -0.2304 -0.0260
   39MOL   H48424120   0.753   0.623   5.980 -1.2957  0.8649  2.5438
   39MOL   H48524121   0.805   0.726   6.186 -1.2492  0.0341 -0.6857
   39MOL   H48624122   0.926   0.825   6.113 -0.5386  1.8851  0.8329
   39MOL   H48724123   0.749   0.951   5.984  0.5860 -0.3379  0.5892
   39MOL   H48824124   0.625   0.839   6.043 -1.1821  0.5434  2.6420
   39MOL   H48924125   0.793   1.025   6.206 -0.7613  0.5325  0.9899
   39MOL   H49024126   0.684   0.909   6.273 -0.6049 -0.5637  0.3582
   39MOL   H49124127   0.618   1.147   6.074  0.3902 -1.7399 -0.6936
   39MOL   H49224128   0.508   1.021   6.121 -0.6277  1.7895 -1.8606
   39MOL   H49324129   0.468   1.221   6.273  0.8639  3.2379  3.1407
   39MOL   H49424130   0.631   1.241   6.304 -1.0940  1.0864  1.0247
   39MOL   H49524131   0.555   1.097   6.371  0.7499  1.6328  0.7583
   39MOL   H49624132   1.191   0.190   6.301  2.6132 -0.1649 -0.5360
   39MOL   H49724133   1.248   0.271   6.159  0.6576  0.0996  0.1230
   39MOL   C49824134   1.234   0.404   6.326 -0.5548 -0.4655  0.4879
   39MOL   O49924135   1.372   0.371   6.334  0.1531  0.1419  0.3159
   39MOL   C50024136   1.455   0.458   6.257 -0.4972  0.1647 -0.7141
   39MOL   C50124137   1.589   0.451   6.329 -0.2659 -0.4770 -0.3101
   39MOL   C50224138   1.691   0.553   6.263 -0.0791 -0.2040 -0.5708
   39MOL   C50324139   1.842   0.512   6.283 -0.1253  0.2424  0.1288
   39MOL   C50424140   1.948   0.616   6.229 -0.1796  0.1909  0.1725
   39MOL   C50524141   1.990   0.599   6.085  0.2667 -0.1895  0.3906
   39MOL   C50624142   2.112   0.693   6.057  0.1609 -0.0587 -0.2041
   39MOL   C50724143   2.182   0.654   5.921 -0.5180 -0.1092 -0.0858
   39MOL   C50824144   1.162   0.419   6.457  0.0191  0.7879 -0.0366
   39MOL   H50924145   1.224   0.494   6.266 -0.2461 -0.3065  0.6759
   39MOL   H51024146   1.422   0.561   6.266 -0.0617  0.1158  2.0659
   39MOL   H51124147   1.457   0.436   6.150  2.5487 -0.2942 -0.6035
   39MOL   H51224148   1.615   0.345   6.329 -0.7427 -0.5937  0.7699
   39MOL   H51324149   1.590   0.475   6.435  3.4254  1.8968 -0.7634
   39MOL   H51424150   1.664   0.571   6.159  0.0318  3.3047 -0.0476
   39MOL   H51524151   1.681   0.649   6.313 -2.0323 -0.3095 -0.7258
   39MOL   H51624152   1.848   0.500   6.391 -1.6964 -0.3860  0.1580
   39MOL   H51724153   1.860   0.414   6.237 -0.9587  1.0800 -2.0791
   39MOL   H51824154   1.917   0.720   6.241  0.5043  0.3369  0.6818
   39MOL   H51924155   2.029   0.595   6.299 -1.1173 -0.7141  1.0093
   39MOL   H52024156   1.913   0.604   6.007 -1.6431  1.0827  2.2813
   39MOL   H52124157   2.026   0.497   6.081  1.2651  0.1968 -0.9246
   39MOL   H52224158   2.083   0.797   6.074  2.4102  0.6748 -0.7381
   39MOL   H52324159   2.180   0.678   6.140 -0.8302 -0.8845  0.4668
   39MOL   H52424160   2.116   0.646   5.835 -3.3483 -2.4566  2.2447
   39MOL   H52524161   2.242   0.563   5.928  0.0227  0.3348  1.2005
   39MOL   H52624162   2.255   0.732   5.896 -2.3281  1.2562 -1.3010
   39MOL   H52724163   1.057   0.441   6.437 -0.7609 -0.6631  2.2200
   39MOL   H52824164   1.177   0.322   6.505 -1.2611  0.2419 -0.7026
   39MOL   C52924165   1.214   0.529   6.537 -0.6760 -0.4147  0.8074
   39MOL   O53024166   1.244   0.649   6.461 -0.6738 -0.6434  0.0999
   39MOL   C53124167   1.143   0.741   6.438  0.9689 -1.0194 -0.0240
   39MOL   C53224168   1.178   0.834   6.323  0.1351 -0.0414 -1.1165
   39MOL   C53324169   1.248   0.965   6.365 -0.2711 -0.6971  1.0301
   39MOL   C53424170   1.390   0.935   6.419  0.1893  0.4863 -0.0552
   39MOL   C53524171   1.464   1.058   6.472 -0.1994  0.1849 -0.4056
   39MOL   C53624172   1.615   1.022   6.512 -0.3798 -0.0521 -0.0930
   39MOL   C53724173   1.701   1.001   6.379  0.4640  0.5799 -0.3681
   39MOL   C53824174   1.846   0.959   6.407  0.1540 -0.1085  0.2381
   39MOL   C53924175   1.332   0.493   6.632  1.1149  0.5300 -0.4703
   39MOL   H54024176   1.134   0.553   6.607  2.4202  1.9672  3.7662
   39MOL   H54124177   1.043   0.705   6.412  0.6495 -0.8400  0.9197
   39MOL   H54224178   1.125   0.801   6.527 -0.4506 -1.3882 -0.0453
   39MOL   H54324179   1.091   0.858   6.263 -0.3087  0.6891 -0.1967
   39MOL   H54424180   1.250   0.780   6.262  2.0676  1.5242 -0.2942
   39MOL   H54524181   1.253   1.027   6.275 -2.7990 -0.5957  0.9374
   39MOL   H54624182   1.191   1.019   6.440 -0.0883 -0.4447  0.9898
   39MOL   H54724183   1.377   0.860   6.497  1.0682  0.1328 -0.2463
   39MOL   H54824184   1.439   0.901   6.328  1.0317  1.7591 -0.0873
   39MOL   H54924185   1.473   1.138   6.398 -2.2578  1.1672  0.3523
   39MOL   H55024186   1.410   1.088   6.562  0.4165 -0.4747  0.1886
   39MOL   H55124187   1.607   0.929   6.568 -2.1963  0.5264  0.6164
   39MOL   H55224188   1.674   1.098   6.563  0.9181 -0.1469 -1.4203
   39MOL   H55324189   1.654   0.918   6.326 -0.4136 -0.0338  1.3347
   39MOL   H55424190   1.706   1.097   6.326  0.0336  0.2598 -0.9980
   39MOL   H55524191   1.851   0.855   6.442 -0.7338 -0.4476 -0.6221
   39MOL   H55624192   1.901   1.021   6.478 -1.3242  0.4183  0.9416
   39MOL   H55724193   1.899   0.951   6.312 -3.2205  1.0412 -1.8189
   39MOL   H55824194   1.310   0.407   6.695 -1.3941  1.3963 -0.0870
   39MOL   H55924195   1.428   0.486   6.581  2.5247  1.5286  1.9412
   39MOL   C56024196   1.349   0.608   6.732  0.3488  0.4177 -0.9362
   39MOL   O56124197   1.469   0.580   6.800  0.2160  0.2005  0.0068
   39MOL   C56224198   1.578   0.663   6.774  0.0769 -0.0520  0.2364
   39MOL   C56324199   1.702   0.651   6.867  0.2609 -0.8155 -0.0825
   39MOL   C56424200   1.766   0.506   6.862  0.7735 -0.7109 -0.8245
   39MOL   C56524201   1.793   0.452   6.721  1.2747  0.3030  0.0126
   39MOL   C56624202   1.846   0.307   6.713 -0.3082  0.1885 -0.4930
   39MOL   C56724203   1.998   0.297   6.746 -0.2404 -0.4727 -0.1477
   39MOL   C56824204   2.047   0.155   6.754  0.0664  0.2002 -0.5966
   39MOL   C56924205   2.192   0.125   6.712  0.7841 -0.1413 -0.2581
   39MOL   C57024206   1.241   0.615   6.841  0.4297  0.3715  0.0911
   39MOL   H57124207   1.361   0.699   6.673  0.7898  1.0878  0.1596
   39MOL   H57224208   1.548   0.768   6.784 -2.9321 -0.9740  1.5035
   39MOL   H57324209   1.604   0.652   6.668  3.0166 -0.2733  0.9375
   39MOL   H57424210   1.682   0.672   6.972 -0.2740 -0.1496 -0.3123
   39MOL   H57524211   1.772   0.730   6.838 -0.3293 -0.2467  0.0420
   39MOL   H57624212   1.862   0.522   6.910 -0.5604  1.2097  1.3365
   39MOL   H57724213   1.708   0.431   6.917 -0.3418  0.3406 -0.5291
   39MOL   H57824214   1.703   0.443   6.661  0.9981 -2.7255  0.7983
   39MOL   H57924215   1.857   0.513   6.657 -0.7340 -0.0261 -2.3725
   39MOL   H58024216   1.783   0.238   6.769 -3.2630  2.1901 -1.2154
   39MOL   H58124217   1.834   0.271   6.611 -0.2258  0.3497 -0.5586
   39MOL   H58224218   2.016   0.349   6.840 -0.3576  1.4332 -1.1625
   39MOL   H58324219   2.060   0.341   6.668  2.3886 -0.0597  2.0798
   39MOL   H58424220   2.023   0.113   6.852  1.7378 -0.6745 -0.5439
   39MOL   H58524221   1.982   0.101   6.685 -1.2959  0.2621  0.6144
   39MOL   H58624222   2.198   0.154   6.607 -0.8005 -0.0490 -0.3366
   39MOL   H58724223   2.206   0.017   6.708 -1.2248 -0.4885  1.0115
   39MOL   H58824224   2.255   0.179   6.783  0.5713  0.7158 -0.7124
   39MOL   H58924225   1.153   0.655   6.790 -1.2412 -0.9226  1.8975
   39MOL   H59024226   1.220   0.514   6.874  0.2563  0.3079 -0.2172
   39MOL   C59124227   1.271   0.718   6.953 -0.1422  0.0958  0.3439
   39MOL   O59224228   1.163   0.724   7.042 -0.2117  0.6846 -0.5127
   39MOL   C59324229   1.147   0.618   7.138  0.6870 -0.0552 -0.2726
   39MOL   C59424230   1.011   0.597   7.206 -0.1663  0.1013  0.3498
   39MOL   C59524231   0.918   0.545   7.103 -0.5148 -0.8424 -0.8339
   39MOL   C59624232   0.781   0.518   7.162 -0.4488 -0.2524  0.3540
   39MOL   C59724233   0.676   0.480   7.056  0.8271 -0.1650  0.4084
   39MOL   C59824234   0.543   0.441   7.126 -0.4441  0.6253  0.2696
   39MOL   C59924235   0.441   0.557   7.137  0.6810 -0.3938 -0.1218
   39MOL   C60024236   0.310   0.515   7.212  0.1923 -0.9086  0.4588
   39MOL   C60124237   1.287   0.861   6.895 -0.6526 -0.3632  1.1806
   39MOL   H60224238   1.361   0.698   7.012 -1.1210 -1.2758  1.4135
   39MOL   H60324239   1.228   0.642   7.206  1.3229  2.2995 -1.8004
   39MOL   H60424240   1.176   0.518   7.106  0.0960 -0.2978 -0.0559
   39MOL   H60524241   0.965   0.681   7.258  0.0780  0.0605  0.6313
   39MOL   H60624242   1.024   0.513   7.274  0.1800  0.6918  1.0189
   39MOL   H60724243   0.911   0.613   7.018 -0.5895 -1.9058 -1.6937
   39MOL   H60824244   0.952   0.457   7.049  2.2140 -0.5632  0.3446
   39MOL   H60924245   0.782   0.453   7.250 -2.7325  0.1679  0.7297
   39MOL   H61024246   0.756   0.606   7.222  1.0786  0.7224 -0.4095
   39MOL   H61124247   0.673   0.570   6.995 -0.4996 -0.9479 -0.6966
   39MOL   H61224248   0.697   0.396   6.989 -0.2427  1.0434 -1.4812
   39MOL   H61324249   0.562   0.379   7.214  1.0299  0.4834 -0.1403
   39MOL   H61424250   0.490   0.373   7.060 -0.8093  0.5131  0.6751
   39MOL   H61524251   0.487   0.639   7.192 -0.9395 -0.9079  2.0501
   39MOL   H61624252   0.408   0.602   7.043 -3.1692 -0.8108  0.9269
   39MOL   H61724253   0.336   0.492   7.316  3.1639  2.6667  0.6171
   39MOL   H61824254   0.267   0.426   7.168 -1.5249  0.0883  0.0688
   39MOL   H61924255   0.239   0.598   7.217 -1.0399 -1.9414  0.0815
   39MOL   H62024256   1.195   0.893   6.847 -0.4873 -0.5622  0.7253
   39MOL   H62124257   1.308   0.929   6.978 -2.2266  1.7306 -0.0921
   39MOL   H62224258   1.367   0.874   6.822 -0.0730 -1.2976  1.6316
   40MOL     C124259   6.119   5.896   6.998  0.2989 -0.1193  0.1733
   40MOL     O224260   6.158   5.833   6.881 -0.2132 -0.4070  0.0531
   40MOL     C324261   6.137   5.915   6.765 -0.5364  0.0425  0.3390
   40MOL     C424262   6.182   5.840   6.641 -0.4045 -0.3791 -0.6237
   40MOL     C524263   6.106   5.713   6.623  0.2589 -0.3018  0.0708
   40MOL     C624264   6.121   5.651   6.485  0.3269 -0.6699 -0.2334
   40MOL     C724265   6.256   5.582   6.481  0.2279  0.8275 -0.3476
   40MOL     C824266   6.301   5.547   6.336  0.1594 -1.0147 -0.0255
   40MOL     C924267   6.434   5.472   6.349 -0.7686  0.7880  0.2422
   40MOL    C1024268   6.502   5.452   6.211  0.1111  0.2189  0.5654
   40MOL    C1124269   6.186   5.823   7.112 -0.3746  0.2845  0.1064
   40MOL    H1224270   6.136   6.004   7.003 -1.1594  0.1568 -0.4846
   40MOL    H1324271   6.196   6.006   6.759  0.7667 -0.6320  2.5278
   40MOL    H1424272   6.038   5.957   6.750  0.3983  1.4670 -2.1677
   40MOL    H1524273   6.288   5.826   6.663  0.0592  1.3310 -1.6604
   40MOL    H1624274   6.159   5.903   6.555 -0.2816  1.8983  0.9531
   40MOL    H1724275   6.138   5.634   6.691 -0.5653 -0.2281  0.5633
   40MOL    H1824276   5.999   5.727   6.644  0.4902  0.4436  0.8041
   40MOL    H1924277   6.049   5.571   6.470 -1.2640  0.8676 -1.0550
   40MOL    H2024278   6.114   5.713   6.395 -2.1181 -0.5948 -0.0150
   40MOL    H2124279   6.334   5.647   6.519 -1.8737  1.5508  2.9771
   40MOL    H2224280   6.255   5.494   6.545 -0.7949  0.0027 -1.4614
   40MOL    H2324281   6.310   5.632   6.269 -1.4386 -0.2875  0.6707
   40MOL    H2424282   6.232   5.477   6.288  0.0777 -1.7348  1.1053
   40MOL    H2524283   6.506   5.537   6.398  1.7211 -0.4954 -1.5785
   40MOL    H2624284   6.425   5.385   6.414  1.0265 -1.3446 -2.2658
   40MOL    H2724285   6.594   5.394   6.211  0.3033  0.5195  0.9859
   40MOL    H2824286   6.532   5.542   6.155 -0.0081 -0.8128 -1.1989
   40MOL    H2924287   6.434   5.401   6.144 -0.1684  1.7937 -0.3878
   40MOL    H3024288   6.162   5.718   7.096  1.3761 -0.1977  0.5540
   40MOL    H3124289   6.294   5.832   7.107 -0.4337  0.9864 -0.0199
   40MOL    H3224290   6.013   5.876   6.984  0.3897 -0.0550 -0.6552
   40MOL    C3324291   6.122   5.862   7.246  0.0746  0.4931  0.6129
   40MOL    O3424292   6.123   5.999   7.251 -0.1145 -0.0547 -0.0120
   40MOL    C3524293   6.072   6.064   7.370 -0.1389  0.0732  0.0987
   40MOL    C3624294   6.022   6.199   7.328  0.2297 -1.0953  0.3103
   40MOL    C3724295   6.130   6.299   7.297  0.2625  0.2330 -0.1177
   40MOL    C3824296   6.077   6.444   7.295  0.4439 -0.4855  0.0775
   40MOL    C3924297   6.191   6.546   7.282 -0.2807 -0.6644 -0.5393
   40MOL    C4024298   6.127   6.685   7.244 -0.0992  0.3337  0.2863
   40MOL    C4124299   6.216   6.805   7.289  0.0380 -0.1602  0.2858
   40MOL    C4224300   6.356   6.787   7.236  0.2448 -0.5229  1.1334
   40MOL    C4324301   6.189   5.797   7.366 -0.1411 -0.2369  0.4610
   40MOL    H4424302   6.014   5.843   7.244  0.1577  0.1153 -0.8953
   40MOL    H4524303   6.159   6.071   7.435  0.3832 -0.7808 -0.5013
   40MOL    H4624304   5.994   6.004   7.417 -0.1027  1.0621  1.4565
   40MOL    H4724305   5.975   6.246   7.414 -0.0963  0.6089 -0.7654
   40MOL    H4824306   5.940   6.201   7.256 -2.5155 -1.6682  3.3112
   40MOL    H4924307   6.206   6.292   7.374  1.2160  0.7245 -0.9972
   40MOL    H5024308   6.177   6.280   7.200 -0.7899 -0.9612 -0.4085
   40MOL    H5124309   5.997   6.451   7.221 -1.8716 -1.7989  2.3662
   40MOL    H5224310   6.025   6.474   7.386 -0.2804  2.3582 -1.2179
   40MOL    H5324311   6.246   6.564   7.375 -1.2226  0.4039 -0.1639
   40MOL    H5424312   6.270   6.527   7.210 -0.0042 -0.1529 -0.3761
   40MOL    H5524313   6.025   6.708   7.273 -0.3313 -0.6904  0.2834
   40MOL    H5624314   6.117   6.679   7.136 -1.8499  0.0867  0.4491
   40MOL    H5724315   6.166   6.894   7.251 -0.6542 -0.8345 -0.4030
   40MOL    H5824316   6.242   6.799   7.394  0.4533  0.8776  0.2504
   40MOL    H5924317   6.347   6.762   7.130  0.1670  1.1342  0.7282
   40MOL    H6024318   6.411   6.704   7.280  1.3763 -1.2032 -1.4440
   40MOL    H6124319   6.418   6.876   7.248 -1.2106  1.0042 -2.0531
   40MOL    H6224320   6.290   5.840   7.369 -0.2327  0.0414 -0.4406
   40MOL    H6324321   6.145   5.834   7.459  0.2645 -1.6586  1.2368
   40MOL    C6424322   6.196   5.649   7.380  0.7068 -0.0861 -0.0627
   40MOL    O6524323   6.064   5.601   7.359  0.2912  0.3081  0.7893
   40MOL    C6624324   6.055   5.477   7.296  0.8765  0.1763 -0.0027
   40MOL    C6724325   5.907   5.450   7.317  0.0004  0.1654 -0.1151
   40MOL    C6824326   5.873   5.406   7.463 -0.0624 -0.3274 -0.8561
   40MOL    C6924327   5.920   5.266   7.495 -0.1364  0.5216  0.2948
   40MOL    C7024328   5.932   5.243   7.643  0.0125  0.2213  0.3337
   40MOL    C7124329   5.796   5.237   7.714  0.7283 -0.0788 -0.4780
   40MOL    C7224330   5.731   5.097   7.699 -0.3414  0.1708 -0.1716
   40MOL    C7324331   5.611   5.078   0.014 -0.2733 -0.3519 -0.1637
   40MOL    C7424332   6.240   5.605   7.524  0.0575 -0.5277 -0.1372
   40MOL    H7524333   6.262   5.600   7.309 -1.3275 -2.6509 -0.2837
   40MOL    H7624334   6.113   5.396   7.340 -0.7082 -0.2952  1.2801
   40MOL    H7724335   6.073   5.478   7.189 -1.5069 -1.3881 -0.4417
   40MOL    H7824336   5.865   5.382   7.244 -1.1060  1.7147 -0.9694
   40MOL    H7924337   5.849   5.541   7.300 -0.4155  0.2267  1.5059
   40MOL    H8024338   5.926   5.473   7.530 -1.1530 -0.6078  0.2881
   40MOL    H8124339   5.769   5.419   7.490  0.1617  0.4403 -0.3634
   40MOL    H8224340   5.867   5.184   7.448  0.4692  0.1669  0.2309
   40MOL    H8324341   6.023   5.243   7.467 -0.5079 -2.5974  1.2744
   40MOL    H8424342   5.982   5.148   7.660  1.8011  0.9764 -0.6583
   40MOL    H8524343   5.993   5.321   7.689 -1.8631  0.6388  2.1905
   40MOL    H8624344   5.729   5.322   7.697 -1.4444 -1.4748  0.8269
   40MOL    H8724345   5.817   5.229   0.046 -1.2083 -0.0099 -0.0635
   40MOL    H8824346   5.709   5.076   7.594  0.1385  1.8750 -0.6218
   40MOL    H8924347   5.795   5.020   7.741  1.4619  1.6475 -0.1593
   40MOL    H9024348   5.640   5.085   0.118  0.2157 -1.4355 -0.2190
   40MOL    H9124349   5.569   4.980   7.767 -1.8328 -0.1827  1.9705
   40MOL    H9224350   5.540   5.158   7.767 -0.1497  0.5082  2.5050
   40MOL    H9324351   6.160   5.631   7.594  0.4142 -0.4133  0.2293
   40MOL    H9424352   6.232   5.496   7.524 -0.3816 -0.4984  0.1075
   40MOL    C9524353   6.375   5.653   7.584  0.3101 -0.2969  0.4959
   40MOL    O9624354   6.484   5.598   7.507  0.0939  0.5124 -0.1923
   40MOL    C9724355   6.576   5.691   7.451 -0.0996 -0.5199  0.9173
   40MOL    C9824356   6.659   5.608   7.359  0.1004  0.0937  0.2908
   40MOL    C9924357   6.594   5.570   7.226 -0.3157 -0.0665 -1.1538
   40MOL   C10024358   6.567   5.685   7.125  0.0538  0.8070  0.0365
   40MOL   C10124359   6.478   5.641   7.012 -0.2397 -0.0062  0.3602
   40MOL   C10224360   6.507   5.502   6.951  0.1017 -0.3015 -0.4126
   40MOL   C10324361   6.433   5.462   6.820 -0.1316  0.0598 -0.4055
   40MOL   C10424362   6.477   5.318   6.781 -0.6120  0.7609  0.6911
   40MOL   C10524363   6.388   5.611   7.723 -0.5395  0.0687  0.1518
   40MOL   H10624364   6.374   5.762   7.576  2.6860 -0.3467 -1.0195
   40MOL   H10724365   6.633   5.732   7.535 -1.3419  1.2244  0.9486
   40MOL   H10824366   6.537   5.781   7.404  1.8246  0.7010  1.5840
   40MOL   H10924367   6.697   5.534   7.430  0.6355  1.7014  1.7335
   40MOL   H11024368   6.751   5.660   7.333 -1.3834  2.6101 -0.1354
   40MOL   H11124369   6.660   5.496   7.181  0.5235 -0.4595  0.6739
   40MOL   H11224370   6.496   5.525   7.238 -0.3627  0.5632  1.2310
   40MOL   H11324371   6.526   5.775   7.170 -1.8113  0.0241 -0.0513
   40MOL   H11424372   6.658   5.720   7.076 -0.2593  2.1196  0.3758
   40MOL   H11524373   6.375   5.644   7.048  0.3123  2.7251  1.8743
   40MOL   H11624374   6.488   5.724   6.942  2.8465 -0.9421 -0.3734
   40MOL   H11724375   6.479   5.432   7.030 -0.9228 -0.0120 -0.5138
   40MOL   H11824376   6.610   5.479   6.924  0.2033 -0.5454  0.1685
   40MOL   H11924377   6.324   5.461   6.828 -0.1941  0.1365 -1.2049
   40MOL   H12024378   6.460   5.531   6.741  1.4518  0.3266  0.3538
   40MOL   H12124379   6.455   5.256   6.868 -0.2439  0.2658  0.4344
   40MOL   H12224380   6.585   5.314   6.767 -0.4734  3.5524  0.5744
   40MOL   H12324381   6.438   5.280   6.687 -0.0694  2.3523 -0.2118
   40MOL   H12424382   6.298   5.642   0.003 -1.4264  0.4326 -1.4970
   40MOL   H12524383   6.385   5.502   7.732 -0.0228  0.0620  0.2655
   40MOL   C12624384   6.506   5.670   0.021  0.2898 -0.0935 -0.0872
   40MOL   O12724385   6.511   5.595   0.140 -0.4712 -0.4083 -0.0786
   40MOL   C12824386   6.632   5.532   0.162  0.6903  0.7469  0.4853
   40MOL   C12924387   6.630   5.457   0.294 -0.0691 -0.0314  0.0630
   40MOL   C13024388   6.748   5.363   0.307 -0.1517  0.1405 -0.4630
   40MOL   C13124389   6.739   5.296   0.441 -0.1235 -0.4222  1.0022
   40MOL   C13224390   6.834   5.171   0.456 -0.2290 -0.2422  0.1114
   40MOL   C13324391   6.830   5.101   0.596 -0.6564 -0.0013 -0.3908
   40MOL   C13424392   6.710   4.999   0.616  0.5245 -0.6885  0.4175
   40MOL   C13524393   6.716   4.933   0.759  0.0855  0.2468 -0.9679
   40MOL   C13624394   6.484   5.819   0.067 -0.2230  0.2858  0.1752
   40MOL   H13724395   6.595   5.672   7.734  0.3669 -0.3496  0.0149
   40MOL   H13824396   6.717   5.599   0.145 -0.0988  1.8910  0.9967
   40MOL   H13924397   6.635   5.454   0.086 -2.9494  1.2100 -0.2175
   40MOL   H14024398   6.543   5.392   0.298  0.2645 -0.5482 -0.8252
   40MOL   H14124399   6.632   5.527   0.377  0.7926 -1.6197  1.4141
   40MOL   H14224400   6.750   5.291   0.225  2.7021  1.0920 -1.2934
   40MOL   H14324401   6.845   5.412   0.303 -0.3653  0.9466  2.6007
   40MOL   H14424402   6.756   5.370   0.519  6.5614  2.0195 -2.4044
   40MOL   H14524403   6.637   5.258   0.451 -0.4761  0.7490  1.9108
   40MOL   H14624404   6.826   5.093   0.380  1.5739 -1.7903  1.4579
   40MOL   H14724405   6.937   5.205   0.443 -0.2311 -0.4275 -0.4143
   40MOL   H14824406   6.812   5.174   0.675  3.2920  0.0921  0.5645
   40MOL   H14924407   6.926   5.056   0.622  0.3300  3.0023  1.4981
   40MOL   H15024408   6.618   5.054   0.597  1.6005  0.5771 -1.3006
   40MOL   H15124409   6.732   4.923   0.542  0.5776  0.1283 -0.4055
   40MOL   H15224410   6.664   4.838   0.767  1.5329 -0.3118  2.2332
   40MOL   H15324411   6.688   5.000   0.840  0.3449  0.6196 -1.1796
   40MOL   H15424412   6.814   4.895   0.787 -1.3717 -2.8072  0.2183
   40MOL   H15524413   6.483   5.867   7.743  0.5943 -2.2844 -1.1416
   40MOL   H15624414   6.382   5.829   0.105 -0.8520  1.4340 -1.7282
   40MOL   C15724415   6.575   5.891   0.171  0.0154  0.0441 -0.2043
   40MOL   O15824416   6.528   6.028   0.162 -0.1967  0.0373 -0.1122
   40MOL   C15924417   6.438   6.069   0.265  0.4679  0.4321 -0.2383
   40MOL   C16024418   6.358   6.175   0.192  0.5572 -0.0861  0.2855
   40MOL   C16124419   6.268   6.123   0.076 -0.5408 -0.1464  0.0276
   40MOL   C16224420   6.212   6.228   7.751 -0.5305 -0.0020 -0.0082
   40MOL   C16324421   6.309   6.313   7.673  0.1601 -0.2323  0.7633
   40MOL   C16424422   6.391   6.230   7.576  0.3079  0.0609 -0.1551
   40MOL   C16524423   6.528   6.197   7.633 -0.3865 -0.1430  0.7637
   40MOL   C16624424   6.609   6.104   7.546  0.2959  0.4652  0.2958
   40MOL   C16724425   6.712   5.892   0.108  0.0257  0.1988 -0.0378
   40MOL   H16824426   6.571   5.842   0.268  3.2475  0.6448  0.2837
   40MOL   H16924427   6.478   6.095   0.363 -2.3273 -0.0418  1.0763
   40MOL   H17024428   6.359   5.999   0.292 -0.9211  1.9881 -0.2010
   40MOL   H17124429   6.432   6.245   0.150 -0.0003 -0.4453 -1.3382
   40MOL   H17224430   6.301   6.224   0.270  0.0747 -0.6291  0.2760
   40MOL   H17324431   6.318   6.049   0.013 -0.6023 -1.3940  1.4114
   40MOL   H17424432   6.186   6.067   0.122 -0.0198 -0.9479  0.0008
   40MOL   H17524433   6.150   6.185   7.672 -2.7234 -0.2836  1.8070
   40MOL   H17624434   6.159   6.301   0.039  1.6112  0.6669  1.0708
   40MOL   H17724435   6.247   6.384   7.619  1.6223 -0.5087 -1.3238
   40MOL   H17824436   6.377   6.374   7.734  0.4789 -1.9782  2.1884
   40MOL   H17924437   6.412   6.289   7.486  0.5059  0.6511  0.2705
   40MOL   H18024438   6.345   6.138   7.540  2.8846 -1.0419 -0.7529
   40MOL   H18124439   6.576   6.295   7.638 -1.6619  0.4728  1.2168
   40MOL   H18224440   6.527   6.150   7.732  0.0914 -0.1080  0.7876
   40MOL   H18324441   6.617   6.132   7.440 -1.3266 -1.3886 -0.3528
   40MOL   H18424442   6.561   6.007   7.550  0.7355  0.1013 -2.3772
   40MOL   H18524443   6.709   6.094   7.587  0.6133  1.2134 -0.2761
   40MOL   H18624444   6.743   5.789   0.087 -0.2177  0.4360 -1.6442
   40MOL   H18724445   6.712   5.947   0.014  1.5076  0.4688  0.1073
   40MOL   C18824446   6.828   5.942   0.189  0.0838 -0.5031 -0.7334
   40MOL   O18924447   6.951   5.948   0.116  0.2288 -0.6406  0.0138
   40MOL   C19024448   6.978   6.080   0.058  0.7034 -0.0340  0.1752
   40MOL   C19124449   7.093   6.058   7.730 -0.5627 -0.3597  0.5777
   40MOL   C19224450   7.068   6.001   7.591 -0.0070  0.3380 -0.1466
   40MOL   C19324451   6.985   5.871   7.574  0.1494  0.0109 -0.3940
   40MOL   C19424452   7.060   5.744   7.637 -0.1751 -0.2643  0.7104
   40MOL   C19524453   6.976   5.619   7.652 -0.2144  0.3167 -0.1196
   40MOL   C19624454   7.029   5.515   7.755  0.0304 -0.5988 -0.0924
   40MOL   C19724455   6.936   5.396   7.741  0.7839  0.3228  0.8308
   40MOL   C19824456   6.855   5.840   0.302  0.6346  0.3592 -0.3561
   40MOL   H19924457   6.809   6.039   0.236  0.2704 -0.9921  0.3831
   40MOL   H20024458   6.893   6.133   0.015  0.6822  1.0760  1.5669
   40MOL   H20124459   7.019   6.144   0.136  0.0783  0.1616  0.3464
   40MOL   H20224460   7.163   5.998   0.014 -0.2500  0.4366  1.0401
   40MOL   H20324461   7.163   6.141   7.721  0.9759 -1.7498 -0.4805
   40MOL   H20424462   7.006   6.075   7.539 -2.2744 -2.1215 -1.0935
   40MOL   H20524463   7.156   5.997   7.527  0.1989  0.5018  0.1245
   40MOL   H20624464   6.891   5.891   7.627 -0.3041  0.1754 -1.2500
   40MOL   H20724465   6.947   5.870   7.472 -1.2004  0.2728  0.0879
   40MOL   H20824466   7.149   5.723   7.579  0.1808  1.7002  0.5105
   40MOL   H20924467   7.088   5.779   7.737  1.6940 -0.5229  0.2813
   40MOL   H21024468   6.959   5.579   7.552 -1.5881 -1.2548  0.7064
   40MOL   H21124469   6.882   5.649   7.698 -0.8290 -1.8395  0.0906
   40MOL   H21224470   7.134   5.495   7.734  0.0693 -1.3300  0.7478
   40MOL   H21324471   7.032   5.563   0.079  3.7601  1.3397 -1.0828
   40MOL   H21424472   6.970   5.322   0.039 -1.0247  1.0892  2.5295
   40MOL   H21524473   6.946   5.352   7.642  2.5444  3.0232 -0.2520
   40MOL   H21624474   6.834   5.422   7.768  0.3234 -0.9947  0.4127
   40MOL   H21724475   6.771   5.852   0.371  0.8743 -0.6283  0.1086
   40MOL   H21824476   6.832   5.739   0.266 -1.6390  0.0373  1.8293
   40MOL   C21924477   6.981   5.843   0.385 -0.3459  0.1120 -0.1123
   40MOL   O22024478   6.995   5.718   0.455  0.3124  0.1495  0.1315
   40MOL   C22124479   7.060   5.613   0.386  0.0179 -0.0475  0.4376
   40MOL   C22224480   7.087   5.494   0.489 -0.5697 -0.0736 -0.2463
   40MOL   C22324481   7.188   5.521   0.602  0.3756  0.4081 -0.2109
   40MOL   C22424482   7.231   5.389   0.666  0.4780  0.2345 -0.1783
   40MOL   C22524483   7.319   5.431   0.786 -0.3142  0.8717 -0.7641
   40MOL   C22624484   7.401   5.314   0.835 -0.5154 -0.6304 -0.1546
   40MOL   C22724485   7.514   5.365   0.935 -0.2281  0.0097  0.4444
   40MOL   C22824486   7.608   5.253   0.952  0.3846  0.3652  0.0196
   40MOL   C22924487   6.991   5.948   0.496  0.0117  0.1348 -0.1622
   40MOL   H23024488   7.068   5.847   0.319  0.5115 -2.4555  0.7962
   40MOL   H23124489   7.158   5.638   0.346 -0.0554  0.2639  0.4521
   40MOL   H23224490   7.002   5.596   0.295 -0.8093 -0.7306  1.0752
   40MOL   H23324491   7.105   5.404   0.430  0.3037  0.5229 -0.9047
   40MOL   H23424492   6.992   5.472   0.537  0.1021 -2.5697  0.0454
   40MOL   H23524493   7.274   5.586   0.580  0.2400  0.7427  0.2199
   40MOL   H23624494   7.132   5.571   0.681  1.6832  0.9253  0.4242
   40MOL   H23724495   7.151   5.322   0.697 -0.4491  1.7457  0.7625
   40MOL   H23824496   7.287   5.331   0.593  0.4718 -1.2051  0.9373
   40MOL   H23924497   7.386   5.513   0.763 -0.2967  1.0742 -0.0175
   40MOL   H24024498   7.256   5.459   0.871 -1.4726  0.3668 -1.4460
   40MOL   H24124499   7.447   5.264   0.749  1.0282 -1.0617  0.9051
   40MOL   H24224500   7.332   5.247   0.885 -1.9392  0.5395 -0.5057
   40MOL   H24324501   7.566   5.450   0.891  0.7886 -1.0401 -0.4156
   40MOL   H24424502   7.470   5.393   1.030 -1.0296 -1.6295  0.5739
   40MOL   H24524503   7.704   5.293   0.983 -1.1365  2.5152  2.1308
   40MOL   H24624504   7.627   5.191   0.864  0.9743 -1.8640  1.6599
   40MOL   H24724505   7.580   5.183   1.031 -1.0348  0.7071 -0.1637
   40MOL   H24824506   6.962   6.051   0.474 -1.2628 -0.1078  0.3034
   40MOL   H24924507   6.940   5.913   0.586 -1.3892  2.3464 -0.0604
   40MOL   C25024508   7.142   5.949   0.519 -0.0018 -0.2242 -0.1360
   40MOL   O25124509   7.174   5.982   0.658 -0.4294  0.1791 -0.1116
   40MOL   C25224510   7.185   5.869   0.742  0.3440  0.0251 -0.1252
   40MOL   C25324511   7.144   5.909   0.887  0.1606 -0.3237 -0.1911
   40MOL   C25424512   7.160   5.785   0.981  0.0841 -0.6479  0.4110
   40MOL   C25524513   7.138   5.808   1.130  0.4347  0.3132  0.4624
   40MOL   C25624514   7.005   5.863   1.164 -0.0756  0.5486  0.2632
   40MOL   C25724515   6.971   5.848   1.315  0.1516  0.2328  0.0441
   40MOL   C25824516   7.083   5.895   1.408  0.5982 -0.1501 -0.6675
   40MOL   C25924517   7.038   5.908   1.552  0.4460 -0.2176 -1.2465
   40MOL   C26024518   7.216   6.048   0.425 -0.2465 -0.5896 -0.1010
   40MOL   H26124519   7.202   5.859   0.506  1.9865  1.0419  0.0634
   40MOL   H26224520   7.280   5.816   0.740 -0.2539 -1.0650 -0.0721
   40MOL   H26324521   7.114   5.795   0.705 -1.4035  1.5801  0.0634
   40MOL   H26424522   7.042   5.946   0.880 -0.1083 -1.3383 -2.0397
   40MOL   H26524523   7.209   5.988   0.923  2.7417 -1.8351 -1.3597
   40MOL   H26624524   7.102   5.703   0.939 -0.3213 -1.1935  1.9835
   40MOL   H26724525   7.263   5.749   0.973  0.0408 -0.6771  0.0109
   40MOL   H26824526   7.141   5.708   1.175 -3.1448 -1.5976 -3.2157
   40MOL   H26924527   7.218   5.872   1.168  0.9282 -0.5737  0.9441
   40MOL   H27024528   7.009   5.968   1.136  0.0597  0.7658  1.0926
   40MOL   H27124529   6.935   5.815   1.094  1.2849 -0.2036 -0.5979
   40MOL   H27224530   6.947   5.743   1.332 -1.4524  0.8131  1.4203
   40MOL   H27324531   6.881   5.903   1.341 -0.2419  0.0950 -1.0113
   40MOL   H27424532   7.172   5.834   1.419  0.9486  0.8045  2.1290
   40MOL   H27524533   7.119   5.993   1.374 -0.5402  1.1895  1.8824
   40MOL   H27624534   6.995   6.007   1.562 -0.1630 -0.6209  0.1821
   40MOL   H27724535   7.126   5.909   1.616 -0.1881 -4.6194 -0.1324
   40MOL   H27824536   6.962   5.833   1.575  1.2349 -1.1240 -1.5098
   40MOL   H27924537   7.156   6.069   0.336  0.7582 -0.2145 -0.6840
   40MOL   H28024538   7.234   6.141   0.477 -0.0243  0.6561 -2.3682
   40MOL   C28124539   7.358   5.999   0.378  0.8915  0.0985  0.1407
   40MOL   O28224540   7.457   6.025   0.482  0.3560 -0.5536  0.0967
   40MOL   C28324541   7.508   5.905   0.534 -0.8122 -0.2676  0.0224
   40MOL   C28424542   7.611   5.928   0.638 -0.1879  0.1873 -0.7937
   40MOL   C28524543   7.738   6.004   0.587 -0.4909  0.1728  0.1474
   40MOL   C28624544   0.073   6.036   0.688  0.6947 -0.0723 -0.0615
   40MOL   C28724545   0.208   6.098   0.625  0.3100 -0.0003  0.0635
   40MOL   C28824546   0.317   6.139   0.725  0.7060 -0.1083  0.1041
   40MOL   C28924547   0.351   6.062   0.850 -0.2359 -0.1902  0.1575
   40MOL   C29024548   0.410   5.930   0.795  0.1087  0.4446 -0.1059
   40MOL   C29124549   7.425   6.069   0.251  0.1021 -0.0156  0.0065
   40MOL   H29224550   7.348   5.895   0.348  1.1415 -0.1594  0.9479
   40MOL   H29324551   7.552   5.849   0.452  0.6698 -1.4134  1.5671
   40MOL   H29424552   7.432   5.840   0.578 -0.4147 -0.1782  0.8601
   40MOL   H29524553   7.648   5.834   0.679 -0.9969  0.1552 -0.1023
   40MOL   H29624554   7.571   5.985   0.721  0.2549  1.8130 -1.6892
   40MOL   H29724555   0.024   5.947   0.516 -0.0177 -0.4967  1.0686
   40MOL   H29824556   7.714   6.090   0.525 -1.6456  0.2622  0.7146
   40MOL   H29924557   0.019   6.108   0.749 -0.3439 -0.0579 -0.9938
   40MOL   H30024558   0.098   5.946   0.744  0.2973  0.2745  0.6826
   40MOL   H30124559   0.242   6.015   0.563 -3.4126 -3.3782  2.2968
   40MOL   H30224560   0.175   6.174   0.554 -1.3507 -1.3512 -0.6339
   40MOL   H30324561   0.282   6.233   0.768  0.8287 -0.3965  0.8343
   40MOL   H30424562   0.406   6.170   0.669 -0.5083 -0.6461 -2.1842
   40MOL   H30524563   0.424   6.119   0.908 -0.2829  0.0658 -0.0343
   40MOL   H30624564   0.264   6.030   0.906  0.2657 -1.2176  0.3660
   40MOL   H30724565   0.453   5.871   0.875 -0.7054  0.8644  0.6564
   40MOL   H30824566   0.500   5.943   0.735 -0.8995  1.6515 -1.4042
   40MOL   H30924567   0.331   5.876   0.742  1.2996 -3.4022  1.8306
   40MOL   H31024568   7.519   6.019   0.229  0.9148  1.7446 -0.5486
   40MOL   H31124569   7.364   6.058   0.161 -0.0844  0.3700  0.0880
   40MOL   C31224570   7.445   6.218   0.263  0.5114 -0.0357  0.1848
   40MOL   O31324571   7.319   6.286   0.278 -0.2193  0.0208  0.2608
   40MOL   C31424572   7.339   6.401   0.353  0.7729  0.2839 -0.4425
   40MOL   C31524573   7.213   6.494   0.349 -0.3947  0.0769  0.0121
   40MOL   C31624574   7.184   6.546   0.203 -0.0365  0.0028 -0.0787
   40MOL   C31724575   7.038   6.608   0.200 -0.1182 -0.0252  0.1905
   40MOL   C31824576   6.910   6.524   0.224 -0.1299 -1.1099 -0.0936
   40MOL   C31924577   6.779   6.605   0.223  0.1531 -0.1565 -0.3969
   40MOL   C32024578   6.663   6.507   0.217  0.6733 -0.4540  0.0254
   40MOL   C32124579   6.521   6.575   0.186 -0.5982  0.4414  0.0017
   40MOL   C32224580   7.496   6.276   0.126 -0.0047  0.6958  0.1065
   40MOL   H32324581   7.518   6.239   0.341  0.7532  1.3430 -0.4105
   40MOL   H32424582   7.424   6.461   0.323  0.3766  0.5528 -1.0303
   40MOL   H32524583   7.348   6.364   0.456 -1.9757  1.0370  0.1148
   40MOL   H32624584   7.215   6.580   0.417  0.1231 -0.4729  0.7080
   40MOL   H32724585   7.123   6.447   0.389  0.1127  0.4060  1.5989
   40MOL   H32824586   7.257   6.620   0.170  1.7971 -0.7725  2.1170
   40MOL   H32924587   7.183   6.464   0.132  0.1454  0.2990 -0.4251
   40MOL   H33024588   7.026   6.685   0.276  1.0611  0.8553 -0.4943
   40MOL   H33124589   7.031   6.666   0.108  2.0042 -0.3554 -0.2233
   40MOL   H33224590   6.893   6.448   0.147 -2.1609 -0.7710 -0.0216
   40MOL   H33324591   6.919   6.488   0.327 -0.0589  0.3373  0.4136
   40MOL   H33424592   6.777   6.670   0.135 -2.6446  1.1545  0.5707
   40MOL   H33524593   6.783   6.666   0.313  0.6402 -1.9613  0.8478
   40MOL   H33624594   6.678   6.442   0.131 -2.0270  0.1817 -1.0001
   40MOL   H33724595   6.655   6.449   0.310 -1.7808 -1.0597 -0.5177
   40MOL   H33824596   6.449   6.493   0.182  0.4789 -0.5855  1.1585
   40MOL   H33924597   6.521   6.634   0.094 -0.5082  0.3937 -0.0294
   40MOL   H34024598   6.486   6.646   0.261  0.2509  0.5024  0.3426
   40MOL   H34124599   7.411   6.272   0.057  0.4989 -0.0841 -0.4855
   40MOL   H34224600   7.513   6.384   0.129  0.5010  0.7394 -2.5679
   40MOL   C34324601   7.617   6.209   0.063  0.4647  0.6158  1.0250
   40MOL   O34424602   7.731   6.215   0.152 -0.0023 -0.2508  0.1704
   40MOL   C34524603   0.019   6.089   0.181 -0.3673 -0.1656  0.3397
   40MOL   C34624604   0.152   6.105   0.244 -0.3566 -0.0845 -0.5502
   40MOL   C34724605   0.257   6.200   0.170 -0.0005  0.6736 -0.2012
   40MOL   C34824606   0.390   6.150   0.203  0.1995  0.5889  0.3318
   40MOL   C34924607   0.499   6.247   0.161 -0.4674 -0.2698 -0.5354
   40MOL   C35024608   0.632   6.211   0.226 -0.3789 -0.2537 -0.0917
   40MOL   C35124609   0.753   6.284   0.162 -0.1649 -0.0467 -0.6346
   40MOL   C35224610   0.890   6.225   0.196 -0.0397  0.3954 -0.3713
   40MOL   C35324611   7.657   6.278   7.706 -0.0684  0.2590 -0.5403
   40MOL   H35424612   7.591   6.106   0.042 -0.3502  1.3151 -1.5958
   40MOL   H35524613   0.037   6.036   0.087  1.3001  1.5156 -0.3301
   40MOL   H35624614   7.728   6.028   0.242 -0.5970 -1.5313 -1.2204
   40MOL   H35724615   0.193   6.004   0.240 -0.9270 -0.2563 -3.3769
   40MOL   H35824616   0.145   6.139   0.347  4.0267 -2.3662  0.6273
   40MOL   H35924617   0.237   6.205   0.063  2.0658  0.2475 -0.6182
   40MOL   H36024618   0.249   6.301   0.210  0.9642  0.7640 -0.2342
   40MOL   H36124619   0.398   6.132   0.310 -2.8543 -0.0559  0.4886
   40MOL   H36224620   0.414   6.056   0.152 -0.5525  0.8771 -0.5670
   40MOL   H36324621   0.500   6.258   0.053 -2.5810  1.4810 -0.4061
   40MOL   H36424622   0.472   6.343   0.206  0.8936  0.3563 -0.9996
   40MOL   H36524623   0.640   6.102   0.217  1.3504 -0.1839  0.3665
   40MOL   H36624624   0.631   6.236   0.332  1.3692  0.1377 -0.1477
   40MOL   H36724625   0.739   6.305   0.056 -0.3780  1.3893 -0.3357
   40MOL   H36824626   0.762   6.386   0.200  1.4607 -0.1200 -0.7712
   40MOL   H36924627   0.886   6.196   0.301  2.5085  1.1020 -0.0441
   40MOL   H37024628   0.969   6.300   0.197 -1.1221  1.5312 -0.3513
   40MOL   H37124629   0.914   6.151   0.119 -2.1970 -1.4372  0.6442
   40MOL   H37224630   7.665   6.387   7.710  2.7240  0.0327  1.2103
   40MOL   H37324631   7.759   6.240   7.699  0.5277  1.2720  2.1163
   40MOL   C37424632   7.577   6.236   7.584  0.2261  0.7883  0.3095
   40MOL   O37524633   7.582   6.089   7.572  0.2880 -0.2610  0.5592
   40MOL   C37624634   7.477   6.036   7.496 -0.5244  0.4382 -0.2203
   40MOL   C37724635   7.476   5.885   7.522  1.0035  0.7353 -0.4723
   40MOL   C37824636   7.467   5.851   7.673  0.3526 -0.6256  0.7702
   40MOL   C37924637   7.467   5.704   7.713 -0.8623 -0.4115 -0.2902
   40MOL   C38024638   7.457   5.687   0.096 -0.2904 -0.0161 -0.1532
   40MOL   C38124639   7.443   5.543   0.143 -0.2567 -0.3199 -0.1621
   40MOL   C38224640   7.471   5.517   0.290 -0.6289 -0.0852 -0.1420
   40MOL   C38324641   7.440   5.373   0.323 -0.5476  0.3724 -0.8337
   40MOL   C38424642   7.624   6.294   7.449  0.2263  0.2425  0.0563
   40MOL   H38524643   7.474   6.269   7.597  0.1971  1.4692 -1.3861
   40MOL   H38624644   7.486   6.049   7.389 -2.1705 -0.9320 -0.5586
   40MOL   H38724645   7.380   6.073   7.529  0.4725  1.7136  1.3809
   40MOL   H38824646   7.567   5.835   7.489  0.3567 -0.7387 -0.0652
   40MOL   H38924647   7.393   5.829   7.479 -0.5299  1.0146  1.9919
   40MOL   H39024648   7.549   5.889   7.734  2.7053 -0.8835 -2.0945
   40MOL   H39124649   7.369   5.884   7.706  0.5628  1.5839 -0.6706
   40MOL   H39224650   7.386   5.670   7.648 -1.0406  1.7333 -1.2407
   40MOL   H39324651   7.551   5.650   7.668 -1.1635 -0.5917 -0.6401
   40MOL   H39424652   7.542   5.740   0.140  1.6593 -2.7956 -0.4411
   40MOL   H39524653   7.373   5.744   0.136 -0.7391 -0.4241 -0.5085
   40MOL   H39624654   7.499   5.476   0.078  1.5959  1.0553 -0.0349
   40MOL   H39724655   7.338   5.520   0.125  1.0069 -3.4106 -3.9771
   40MOL   H39824656   7.575   5.530   0.317 -0.2745  3.4649 -2.8794
   40MOL   H39924657   7.419   5.583   0.359 -0.3498 -1.5812  1.5310
   40MOL   H40024658   7.507   5.325   0.395  0.2473  1.4001 -0.8728
   40MOL   H40124659   7.444   5.304   0.239 -0.5913 -0.9330  0.2182
   40MOL   H40224660   7.343   5.367   0.373 -0.2700 -1.4149 -0.4931
   40MOL   H40324661   7.726   6.261   7.427 -1.2241 -3.5162 -1.4918
   40MOL   H40424662   7.555   6.255   7.374 -0.2200  1.6226 -0.2645
   40MOL   C40524663   7.623   6.448   7.431  0.0723 -0.3975 -0.7299
   40MOL   O40624664   7.489   6.483   7.435  0.3233 -0.3221  0.0353
   40MOL   C40724665   7.455   6.570   7.546 -0.0134  0.6005  0.1169
   40MOL   C40824666   7.301   6.576   7.551 -0.3736 -0.3716 -0.1401
   40MOL   C40924667   7.231   6.446   7.596 -0.2094 -0.4626 -0.1883
   40MOL   C41024668   7.079   6.459   7.633  0.2039  0.5459  0.1816
   40MOL   C41124669   6.982   6.481   7.518  0.1100  0.0797  0.4183
   40MOL   C41224670   6.838   6.420   7.542  0.0811  0.0425 -0.0112
   40MOL   C41324671   6.737   6.457   7.440 -0.0864  0.6852  0.1084
   40MOL   C41424672   6.721   6.606   7.433 -0.5684  0.3129 -0.1928
   40MOL   C41524673   7.675   6.478   7.296  0.0897  0.2834  0.0208
   40MOL   H41624674   7.687   6.493   7.508  1.4453  1.5141 -2.9257
   40MOL   H41724675   7.503   6.667   7.534 -1.7436  1.4379 -0.2598
   40MOL   H41824676   7.487   6.529   7.642 -1.5928 -0.1265  0.3564
   40MOL   H41924677   7.253   6.616   7.462 -1.8220  0.7979  1.1465
   40MOL   H42024678   7.280   6.657   7.621  1.5439  1.6176 -1.8058
   40MOL   H42124679   7.235   6.368   7.519  0.6644  1.9482 -2.6721
   40MOL   H42224680   7.278   6.404   7.685  0.4054  1.7520  0.5541
   40MOL   H42324681   7.047   6.365   7.677  0.4806 -0.1631 -1.1284
   40MOL   H42424682   7.067   6.534   7.711 -1.6219  0.1619  0.2967
   40MOL   H42524683   6.984   6.582   7.478 -3.6925 -0.8848 -2.4373
   40MOL   H42624684   7.019   6.428   7.430 -3.6633 -1.4557 -0.3215
   40MOL   H42724685   6.805   6.447   7.642  0.4968 -1.1745  0.4640
   40MOL   H42824686   6.841   6.311   7.547 -3.8922 -0.2731 -2.4865
   40MOL   H42924687   6.762   6.405   7.347 -0.1762 -3.2093  2.1494
   40MOL   H43024688   6.641   6.418   7.475  0.5948 -0.4900  0.6960
   40MOL   H43124689   6.680   6.637   7.529 -0.9819  0.3421 -0.3747
   40MOL   H43224690   6.647   6.641   7.360 -0.9375 -0.1958 -0.0647
   40MOL   H43324691   6.814   6.654   7.403  0.1549 -0.1163  1.3382
   40MOL   H43424692   0.003   6.441   7.289 -0.0938 -0.1164 -0.6435
   40MOL   H43524693   7.625   6.408   7.229  1.9955 -2.8512  1.7260
   40MOL   C43624694   7.651   6.620   7.247 -0.2926  0.6764  0.4852
   40MOL   O43724695   7.677   6.616   7.106 -0.1483 -0.4221  0.0871
   40MOL   C43824696   7.605   6.711   7.025  0.1189 -0.1672  0.8088
   40MOL   C43924697   7.579   6.656   6.874  0.0497 -0.0767  1.0575
   40MOL   C44024698   7.705   6.645   6.781 -0.2043 -0.5419  0.2811
   40MOL   C44124699   7.689   6.597   6.643 -0.6626  0.1740  1.1342
   40MOL   C44224700   0.037   6.604   6.541  0.0675  0.7921  0.0621
   40MOL   C44324701   0.163   6.521   6.590 -0.4518 -0.9079  0.3789
   40MOL   C44424702   0.266   6.480   6.479 -0.0553  0.2214  0.0499
   40MOL   C44524703   0.403   6.445   6.540 -0.7827  0.0956  0.3027
   40MOL   C44624704   7.735   6.722   7.324 -0.2159  0.2817 -0.1074
   40MOL   H44724705   7.547   6.650   7.259 -0.3153  0.1456  1.7707
   40MOL   H44824706   7.510   6.726   7.077 -0.5739 -2.2282  0.2180
   40MOL   H44924707   7.645   6.812   7.023 -0.4196  0.0336 -0.8487
   40MOL   H45024708   7.508   6.727   6.831  0.0806 -0.1203  0.9331
   40MOL   H45124709   7.538   6.556   6.886 -1.3849 -0.1061 -3.1043
   40MOL   H45224710   7.746   6.746   6.782  1.7932 -1.3261  1.2471
   40MOL   H45324711   0.001   6.586   6.841  1.0207 -1.7896 -2.2811
   40MOL   H45424712   7.667   6.492   6.664 -0.2924 -0.2802 -0.6730
   40MOL   H45524713   7.602   6.648   6.603  1.5579  2.9198 -0.3075
   40MOL   H45624714   7.773   6.565   6.447  1.1400 -1.6152  0.5792
   40MOL   H45724715   0.060   6.708   6.518 -0.4294  0.5497 -1.5621
   40MOL   H45824716   0.126   6.432   6.641  1.4845 -1.9022  0.0659
   40MOL   H45924717   0.213   6.590   6.658 -0.0785 -0.2898 -0.5212
   40MOL   H46024718   0.232   6.392   6.422 -1.0518 -0.5517  1.7893
   40MOL   H46124719   0.291   6.556   6.406  0.3209  0.2279  0.1874
   40MOL   H46224720   0.464   6.529   6.572  2.7281 -2.3958  0.4681
   40MOL   H46324721   0.460   6.398   6.460 -1.3294  0.2863 -0.2024
   40MOL   H46424722   0.379   6.379   6.624 -0.3460 -0.5992 -0.1098
   40MOL   H46524723   7.710   6.824   7.295 -2.0818  0.4260  1.8697
   40MOL   H46624724   7.715   6.696   7.428 -0.4926 -0.0203 -0.2345
   40MOL   C46724725   0.111   6.715   7.297  0.5417 -0.0502  0.6285
   40MOL   O46824726   0.185   6.768   7.410  0.4622 -0.0210 -0.3287
   40MOL   C46924727   0.195   6.673   7.524  0.2899  0.0508 -0.0602
   40MOL   C47024728   0.277   6.749   7.618  0.0066  0.0806 -1.0380
   40MOL   C47124729   0.342   6.661   7.734  0.3485  0.1898 -0.4700
   40MOL   C47224730   0.429   6.733   0.057  0.4415  0.1161  0.3903
   40MOL   C47324731   0.510   6.631   0.144 -0.2637  0.0091  0.7281
   40MOL   C47424732   0.569   6.692   0.271 -0.1911  0.5056  0.3604
   40MOL   C47524733   0.481   6.711   0.389  0.1379  0.7397 -0.2711
   40MOL   C47624734   0.443   6.574   0.444  0.1020 -0.2800 -0.8094
   40MOL   C47724735   0.142   6.792   7.159  0.6204  0.1139 -0.8862
   40MOL   H47824736   0.146   6.611   7.294 -0.3697 -0.3392 -0.7820
   40MOL   H47924737   0.244   6.582   7.488  0.6536  0.9396 -1.9200
   40MOL   H48024738   0.098   6.658   7.569 -0.4065 -0.6095 -1.7461
   40MOL   H48124739   0.220   6.832   7.659  1.0481 -0.3554  1.4312
   40MOL   H48224740   0.353   6.801   7.559  0.0547  2.1285  0.7564
   40MOL   H48324741   0.264   6.615   0.019  1.7382 -0.8529  0.5898
   40MOL   H48424742   0.394   6.577   7.687  0.1152  1.3497 -2.8950
   40MOL   H48524743   0.499   6.790   7.771  0.3547  2.4824  2.4343
   40MOL   H48624744   0.381   6.811   0.116 -0.9957  0.4114 -1.1555
   40MOL   H48724745   0.442   6.548   0.166 -1.0555 -0.3930 -3.0210
   40MOL   H48824746   0.590   6.584   0.088 -0.8846  0.0067 -0.1635
   40MOL   H48924747   0.598   6.795   0.248  0.7659 -0.0201 -0.8477
   40MOL   H49024748   0.655   6.637   0.311 -1.3486 -1.4219  0.2653
   40MOL   H49124749   0.544   6.756   0.465  0.2887  0.4944 -0.2493
   40MOL   H49224750   0.395   6.776   0.373 -0.2331  0.3359  0.0523
   40MOL   H49324751   0.440   6.572   0.553 -2.4234  1.1891 -0.7977
   40MOL   H49424752   0.509   6.493   0.414  2.1493  1.8947 -2.3557
   40MOL   H49524753   0.347   6.534   0.409  1.0255 -2.5279 -0.8242
   40MOL   H49624754   0.116   6.730   7.073 -2.3826  1.0200 -0.6597
   40MOL   H49724755   0.089   6.886   7.162  1.0943  0.3839 -0.9003
   40MOL   C49824756   0.293   6.821   7.143 -0.6701  0.1837 -0.4639
   40MOL   O49924757   0.312   6.907   7.029 -0.2366 -0.1725 -0.4230
   40MOL   C50024758   0.298   7.045   7.063 -0.3674  0.4400  0.9766
   40MOL   C50124759   0.338   7.134   6.947 -0.6360 -0.5560 -0.8781
   40MOL   C50224760   0.317   7.285   6.975 -0.0509  0.4784 -0.5934
   40MOL   C50324761   0.364   7.376   6.862  0.3776  0.2959 -0.4325
   40MOL   C50424762   0.332   7.517   6.891 -0.8458  0.7201 -0.3193
   40MOL   C50524763   0.434   7.594   6.977  0.6083  0.0363  0.3640
   40MOL   C50624764   0.384   7.740   6.997  1.0539 -0.7552 -0.0986
   40MOL   C50724765   0.478   0.030   7.102  0.5403  0.0656  0.1173
   40MOL   C50824766   0.368   6.691   7.114  0.4849  0.1263 -0.3911
   40MOL   H50924767   0.334   6.870   7.231 -0.9383 -0.1833 -0.1331
   40MOL   H51024768   0.350   7.077   7.153  0.4552 -0.9842  1.0149
   40MOL   H51124769   0.193   7.061   7.087  0.1320 -0.4962  3.9937
   40MOL   H51224770   0.274   7.126   6.860  1.0757 -1.3692 -2.1051
   40MOL   H51324771   0.435   7.103   6.907  0.2358 -0.6856  1.2489
   40MOL   H51424772   0.214   7.296   7.009  0.2746 -1.3216  1.0993
   40MOL   H51524773   0.388   7.300   7.056  0.5753  0.5850 -1.1604
   40MOL   H51624774   0.465   7.365   6.821  1.8148  3.1420  2.0966
   40MOL   H51724775   0.313   7.343   6.772 -1.1052 -1.8914  1.1624
   40MOL   H51824776   0.336   7.572   6.797  0.4297  0.0972 -0.6370
   40MOL   H51924777   0.227   7.521   6.920 -1.0800  1.2108 -1.2000
   40MOL   H52024778   0.530   7.595   6.926  0.4398 -0.3295  0.0440
   40MOL   H52124779   0.460   7.545   7.071 -1.8266  0.5348  1.3272
   40MOL   H52224780   0.377   0.026   6.907  2.7362 -0.6023 -0.1383
   40MOL   H52324781   0.284   7.724   7.037  0.7788 -0.9668 -0.8783
   40MOL   H52424782   0.502   7.741   7.187  1.9999  1.2216  0.5989
   40MOL   H52524783   0.437   0.122   7.144 -1.6237 -1.0431  0.5265
   40MOL   H52624784   0.572   0.063   7.058  0.4465  2.3179  1.5089
   40MOL   H52724785   0.361   6.619   7.196  2.2656  0.5291  0.1385
   40MOL   H52824786   0.314   6.649   7.030 -0.4409 -0.1858  0.3519
   40MOL   C52924787   0.519   6.703   7.079 -0.3739 -0.3018 -0.2195
   40MOL   O53024788   0.535   6.678   6.936 -0.2596 -0.0653  0.1442
   40MOL   C53124789   0.645   6.735   6.867 -0.3615  0.1767 -0.2581
   40MOL   C53224790   0.641   6.718   6.715 -0.2521  0.4998 -0.2297
   40MOL   C53324791   0.759   6.784   6.638  1.1277  0.0108  0.0425
   40MOL   C53424792   0.773   6.743   6.495 -0.2162 -0.6474 -0.3764
   40MOL   C53524793   0.909   6.786   6.426 -0.0848 -0.7168  0.5066
   40MOL   C53624794   0.916   6.777   6.274 -0.6538  1.4080 -0.1343
   40MOL   C53724795   1.062   6.778   6.228  0.0646 -0.5910  0.8647
   40MOL   C53824796   1.126   6.643   6.186  0.1399 -0.4554 -0.2139
   40MOL   C53924797   0.612   6.633   7.189 -0.4092  0.0919 -0.3363
   40MOL   H54024798   0.546   6.806   7.101 -2.4841  0.4365 -0.9179
   40MOL   H54124799   0.648   6.842   6.886  1.1227 -0.1436  1.4364
   40MOL   H54224800   0.735   6.699   6.917  0.7879 -1.9392 -3.6847
   40MOL   H54324801   0.547   6.755   6.675  0.2200  0.3990 -1.4482
   40MOL   H54424802   0.645   6.611   6.691 -2.8163  0.9234 -2.8703
   40MOL   H54524803   0.747   6.892   6.647 -1.6043 -0.5121  3.9339
   40MOL   H54624804   0.848   6.768   6.698  1.6896  0.1650 -0.7422
   40MOL   H54724805   0.773   6.635   6.486  0.7473 -0.5237 -2.0971
   40MOL   H54824806   0.696   6.795   6.439  1.5225  2.0928 -0.3201
   40MOL   H54924807   0.929   6.889   6.455 -0.3736 -0.1606 -1.2236
   40MOL   H55024808   0.981   6.719   6.474  2.0927  0.5140 -0.9793
   40MOL   H55124809   0.855   6.858   6.233 -3.1834  0.2576  1.2275
   40MOL   H55224810   0.865   6.685   6.244 -2.0972  0.9441  3.4651
   40MOL   H55324811   1.069   6.842   6.139  0.3405  0.5879  1.7193
   40MOL   H55424812   1.109   6.830   6.311 -1.2522 -1.3660  2.1081
   40MOL   H55524813   1.234   6.657   6.198  0.1234 -0.8626  0.4299
   40MOL   H55624814   1.112   6.620   6.080  2.0789  0.8920 -0.8027
   40MOL   H55724815   1.090   6.564   6.251 -1.2985  0.9184  0.6989
   40MOL   H55824816   0.570   6.532   7.188 -1.0725  0.3656 -1.8127
   40MOL   H55924817   0.720   6.637   7.176 -0.3546  0.2540  0.1322
   40MOL   C56024818   0.598   6.685   7.341  0.5579 -0.0031 -0.4427
   40MOL   O56124819   0.658   6.818   7.347  0.0162 -0.5428  0.1058
   40MOL   C56224820   0.588   6.914   7.420  0.4146  1.0815  0.1414
   40MOL   C56324821   0.657   7.046   7.384 -0.7566 -0.1665  0.1167
   40MOL   C56424822   0.654   7.083   7.230 -0.7962  0.2337 -0.1943
   40MOL   C56524823   0.770   7.032   7.147  0.4689 -0.3846  0.1084
   40MOL   C56624824   0.793   7.085   7.003  0.1536  0.6915 -0.0885
   40MOL   C56724825   0.931   7.046   6.952  0.4941 -0.1714  0.1123
   40MOL   C56824826   0.951   7.074   6.804  0.1471 -0.1900 -0.1098
   40MOL   C56924827   1.064   6.995   6.748  0.7967 -0.4131  0.1131
   40MOL   C57024828   0.685   6.604   7.442 -0.0209 -0.4543  0.2763
   40MOL   H57124829   0.494   6.683   7.376 -0.0248  1.2381 -1.9987
   40MOL   H57224830   0.586   6.874   7.521  0.5793  1.7187  0.3979
   40MOL   H57324831   0.482   6.925   7.393  0.0204  1.8878  1.9799
   40MOL   H57424832   0.762   7.039   7.409 -0.7431  0.3050  0.1965
   40MOL   H57524833   0.629   7.140   7.431  1.8564  0.0033  1.4095
   40MOL   H57624834   0.559   7.058   7.184 -0.9398 -0.0217  0.2438
   40MOL   H57724835   0.654   7.192   7.228  0.7188  0.2611  0.3135
   40MOL   H57824836   0.857   7.054   7.209 -0.8816 -0.1416  1.9518
   40MOL   H57924837   0.757   6.923   7.149 -1.0475 -0.1852  1.7044
   40MOL   H58024838   0.711   7.064   6.934 -0.4608  1.2842  0.4450
   40MOL   H58124839   0.795   7.193   7.020 -1.0134  0.7092 -0.0189
   40MOL   H58224840   0.939   6.938   6.967  0.0438 -0.5283 -2.0963
   40MOL   H58324841   0.997   7.103   7.017 -1.4534  1.3223  0.8290
   40MOL   H58424842   0.858   7.042   6.757  0.6767  0.9337 -1.9529
   40MOL   H58524843   0.963   7.182   6.803  1.0775 -0.2842 -0.0535
   40MOL   H58624844   1.038   6.892   6.773 -0.4656 -0.2382 -0.4170
   40MOL   H58724845   1.159   7.039   6.779  0.8855 -0.0189 -0.6992
   40MOL   H58824846   1.070   6.991   6.640 -0.0570  2.0263 -0.0713
   40MOL   H58924847   0.790   6.620   7.419 -0.9513  0.8476 -3.4202
   40MOL   H59024848   0.667   6.656   7.536 -0.8103  0.5980 -0.4398
   40MOL   C59124849   0.653   6.456   7.449  0.3159  0.5420 -0.4269
   40MOL   O59224850   0.511   6.453   7.485 -0.4564  0.4790  0.3443
   40MOL   C59324851   0.438   6.341   7.443 -0.1644 -0.5398  0.5691
   40MOL   C59424852   0.352   6.291   7.557 -0.0706 -0.2649 -0.5660
   40MOL   C59524853   0.283   6.152   7.533 -0.5250 -0.1657  0.1334
   40MOL   C59624854   0.384   6.036   7.528  0.4561 -0.3994 -0.1850
   40MOL   C59724855   0.329   5.900   7.557 -0.6488  0.1501  0.8007
   40MOL   C59824856   0.235   5.875   7.675 -0.7836 -0.1515  0.5324
   40MOL   C59924857   0.207   5.728   7.701  0.1147 -0.2276  0.3320
   40MOL   C60024858   0.113   5.713   0.060  0.0445 -0.2356  0.7108
   40MOL   C60124859   0.731   6.364   7.545 -0.9466  0.3576 -0.4883
   40MOL   H60224860   0.644   6.420   7.347 -2.0714 -1.9786  0.6021
   40MOL   H60324861   0.502   6.268   7.393 -0.0558  0.1762 -0.3508
   40MOL   H60424862   0.371   6.373   7.364  0.3761 -3.0262 -0.9476
   40MOL   H60524863   0.271   6.361   7.574 -1.6564 -1.6178 -2.2485
   40MOL   H60624864   0.400   6.289   7.654  1.0354  0.3949 -1.0893
   40MOL   H60724865   0.208   6.138   7.610 -1.2106 -1.8429 -0.8132
   40MOL   H60824866   0.241   6.158   7.433 -0.9760  0.4129  0.3515
   40MOL   H60924867   0.435   6.041   7.432 -0.3042  0.8260 -0.5398
   40MOL   H61024868   0.460   6.049   7.605  2.5525  2.0503 -2.5648
   40MOL   H61124869   0.280   5.869   7.464  0.4859 -1.7201  0.7968
   40MOL   H61224870   0.418   5.839   7.569 -1.0528 -0.5750  0.1776
   40MOL   H61324871   0.133   5.914   7.669 -0.1195  1.9601  2.2573
   40MOL   H61424872   0.278   5.928   7.760 -2.1821  0.2565  1.0094
   40MOL   H61524873   0.158   5.693   7.610 -0.2126  1.7493 -0.2833
   40MOL   H61624874   0.300   5.672   7.719  0.6934  1.0253  1.3365
   40MOL   H61724875   0.010   5.735   0.031  0.6882  0.6292 -1.0328
   40MOL   H61824876   0.154   5.770   0.143 -0.2972  1.7205 -0.4284
   40MOL   H61924877   0.107   5.606   0.076  2.5515 -0.1806  2.4319
   40MOL   H62024878   0.707   6.258   7.540 -2.9366  0.5887  2.6484
   40MOL   H62124879   0.836   6.384   7.521 -1.7438  0.1841 -4.4029
   40MOL   H62224880   0.720   6.395   7.649 -1.1430 -0.8554 -0.1479
   41MOL     C124881   7.109   3.849   4.003 -0.3688  0.9127  0.9004
   41MOL     O224882   7.221   3.782   3.955 -0.3859 -0.3762  0.4665
   41MOL     C324883   7.284   3.702   4.046 -0.4270 -0.3769  0.0185
   41MOL     C424884   7.385   3.783   4.135  0.3130  0.5173 -0.0878
   41MOL     C524885   7.476   3.687   4.209 -0.4534  0.5086 -0.3365
   41MOL     C624886   7.572   3.747   4.307 -0.4527  0.2758 -0.4458
   41MOL     C724887   7.663   3.640   4.374  0.4179  0.4015 -0.6280
   41MOL     C824888   7.740   3.687   4.491 -0.2588  0.8633  0.1982
   41MOL     C924889   0.072   3.587   4.546 -0.0894 -0.0329  0.0122
   41MOL    C1024890   0.021   3.443   4.582  0.1666  0.3011  0.6781
   41MOL    C1124891   7.056   3.939   3.895  0.2046  0.4664  0.3430
   41MOL    H1224892   7.036   3.771   4.024  1.1059 -0.8243 -0.3404
   41MOL    H1324893   7.344   3.642   3.976  1.4680  2.0872 -0.5394
   41MOL    H1424894   7.221   3.635   4.105  1.3740 -1.2513  0.9818
   41MOL    H1524895   7.339   3.851   4.207  2.4083  2.7192 -0.8079
   41MOL    H1624896   7.440   3.842   4.062 -0.4067 -0.8793 -1.8060
   41MOL    H1724897   7.421   3.606   4.256 -0.1280 -0.3282 -1.3740
   41MOL    H1824898   7.536   3.642   4.130 -0.1271 -1.4563  0.9998
   41MOL    H1924899   7.625   3.834   4.268  0.7324  0.3721  1.2675
   41MOL    H2024900   7.510   3.797   4.382 -0.5888 -0.0113 -0.3644
   41MOL    H2124901   7.593   3.567   4.414  0.9755  0.8347  1.1644
   41MOL    H2224902   7.717   3.588   4.295  1.3321  1.9943 -1.0716
   41MOL    H2324903   7.675   3.704   4.578  2.6651  1.8693  2.2536
   41MOL    H2424904   0.014   3.783   4.471  2.2934 -0.4464 -0.0437
   41MOL    H2524905   0.151   3.594   4.472 -1.3920 -0.9002 -1.4679
   41MOL    H2624906   0.117   3.627   4.637 -1.0241 -0.9144  0.8795
   41MOL    H2724907   7.742   3.438   4.677 -1.1848 -0.1429 -0.0945
   41MOL    H2824908   0.103   3.370   4.580 -0.9906 -1.0685  1.7726
   41MOL    H2924909   7.721   3.425   4.504 -0.1343  2.5719  0.4159
   41MOL    H3024910   7.141   3.990   3.848  0.3802  0.6181  0.8255
   41MOL    H3124911   7.019   3.887   3.806  2.3363  0.7197 -0.7333
   41MOL    H3224912   7.123   3.911   4.092 -0.1121 -0.4588  1.8206
   41MOL    C3324913   6.951   4.040   3.950  0.1285  1.1274  0.2429
   41MOL    O3424914   6.856   3.973   4.019 -0.4532  0.3800  0.1442
   41MOL    C3524915   6.797   4.040   4.132 -0.9834 -0.6400  0.0529
   41MOL    C3624916   6.709   3.938   4.205 -0.1032  0.6179 -0.1865
   41MOL    C3724917   6.768   3.804   4.238  1.0329 -0.1580 -0.5203
   41MOL    C3824918   6.904   3.818   4.322  0.4639  0.8672 -1.2908
   41MOL    C3924919   6.971   3.687   4.372 -0.0424  0.0353  0.6356
   41MOL    C4024920   7.094   3.704   4.469 -0.4850 -0.1422  0.5321
   41MOL    C4124921   7.155   3.564   4.495  0.0207  0.0839  0.3445
   41MOL    C4224922   7.291   3.568   4.572  0.9679 -0.4627  0.6200
   41MOL    C4324923   6.892   4.121   3.833 -0.3359 -0.0549 -0.2516
   41MOL    H4424924   7.005   4.107   4.018  0.2783 -1.1858  2.4808
   41MOL    H4524925   6.734   4.124   4.104  0.1621  0.9958  2.1689
   41MOL    H4624926   6.868   4.076   4.207 -0.5586 -0.9063 -0.2177
   41MOL    H4724927   6.620   3.912   4.148  0.1814  0.0833 -0.3904
   41MOL    H4824928   6.678   3.987   4.297 -1.8520 -1.7542  0.5423
   41MOL    H4924929   6.684   3.746   4.276 -0.4833  0.5622 -2.6682
   41MOL    H5024930   6.796   3.746   4.149  0.2834  0.2150 -0.9979
   41MOL    H5124931   6.971   3.883   4.265 -0.4475  4.5841  1.6184
   41MOL    H5224932   6.865   3.869   4.411  0.3221 -1.0803 -0.2133
   41MOL    H5324933   6.894   3.626   4.420 -1.2538  0.3454 -0.8566
   41MOL    H5424934   7.008   3.647   4.277  1.1776  0.5718  0.8778
   41MOL    H5524935   7.066   3.756   4.561  1.5430  1.2059  0.3935
   41MOL    H5624936   7.177   3.758   4.426 -0.4095 -1.0207 -0.4573
   41MOL    H5724937   7.084   3.500   4.546 -0.0182  0.4392  0.7450
   41MOL    H5824938   7.168   3.513   4.400  0.7175  0.2581  0.3464
   41MOL    H5924939   7.378   3.620   4.533 -1.8177  1.8491 -2.9372
   41MOL    H6024940   7.333   3.467   4.578  0.3090 -0.8525 -0.9498
   41MOL    H6124941   7.254   3.602   4.669 -3.8171  0.1279 -1.2740
   41MOL    H6224942   6.961   4.148   3.753  0.1790  1.8834  0.8131
   41MOL    H6324943   6.812   4.053   3.802 -0.7407 -0.3397  1.3666
   41MOL    C6424944   6.824   4.257   3.862 -0.3469 -0.2697 -0.1719
   41MOL    O6524945   6.753   4.289   3.741 -0.1449  0.2632 -0.5216
   41MOL    C6624946   6.613   4.320   3.771  0.1996  0.0344  0.2421
   41MOL    C6724947   6.552   4.386   3.647 -0.4025  0.1405 -0.2757
   41MOL    C6824948   6.498   4.302   3.536  0.2570  0.2233  0.5396
   41MOL    C6924949   6.442   4.383   3.421  0.3584 -0.9342  0.0713
   41MOL    C7024950   6.313   4.459   3.441 -0.6779 -0.2070  0.1845
   41MOL    C7124951   6.211   4.449   3.332  0.2323  0.1821 -0.5262
   41MOL    C7224952   6.074   4.513   3.374  0.1987 -0.1477  0.1855
   41MOL    C7324953   6.063   4.664   3.361 -0.3740 -0.0201 -0.1347
   41MOL    C7424954   6.928   4.361   3.904 -0.6809  0.2766  0.5736
   41MOL    H7524955   6.763   4.251   3.952 -1.3261  2.1012 -0.6228
   41MOL    H7624956   6.606   4.400   3.845 -0.2949 -1.1690  1.5130
   41MOL    H7724957   6.552   4.235   3.801 -1.1620  0.6964 -0.5768
   41MOL    H7824958   6.634   4.445   3.606 -2.0354  1.4017 -1.8021
   41MOL    H7924959   6.473   4.454   3.679  0.2657  0.3010  1.0815
   41MOL    H8024960   6.579   4.241   3.496  0.9634  1.2817  0.3422
   41MOL    H8124961   6.434   4.222   3.573 -0.9504  0.5749 -0.7208
   41MOL    H8224962   6.522   4.451   3.390  0.1710 -0.8342 -0.1933
   41MOL    H8324963   6.450   4.320   3.332 -0.1743 -2.4242  1.0647
   41MOL    H8424964   6.261   4.417   3.527 -0.4099 -0.8089  0.0516
   41MOL    H8524965   6.334   4.564   3.463  1.9508 -1.0460  1.9517
   41MOL    H8624966   6.178   4.346   3.317  1.5927 -0.2418 -0.7445
   41MOL    H8724967   6.249   4.486   3.236  2.7443 -0.5033  0.1473
   41MOL    H8824968   5.996   4.477   3.307 -0.6004  0.6902  0.6585
   41MOL    H8924969   6.042   4.483   3.473 -0.3157  1.3631  0.4860
   41MOL    H9024970   6.139   4.707   3.427 -1.2317  2.9173 -0.9696
   41MOL    H9124971   5.968   4.699   3.400  0.5847  0.0185  2.2564
   41MOL    H9224972   6.061   4.699   3.258 -2.3902  0.4549  0.0532
   41MOL    H9324973   7.026   4.359   3.856 -0.8549 -2.0819  0.2952
   41MOL    H9424974   6.899   4.460   3.868 -1.2297 -0.5875 -1.3716
   41MOL    C9524975   6.949   4.384   4.056  1.0242  0.0846  0.1648
   41MOL    O9624976   6.826   4.441   4.104 -0.3605  0.1683  0.0566
   41MOL    C9724977   6.812   4.439   4.243  0.2152  0.3687  0.1360
   41MOL    C9824978   6.660   4.452   4.257  0.0177  0.1838 -0.2026
   41MOL    C9924979   6.585   4.320   4.252  0.0649 -0.1263  0.1252
   41MOL   C10024980   6.443   4.347   4.291 -0.2538  0.0341  0.1022
   41MOL   C10124981   6.369   4.217   4.343 -0.3840  0.1746 -0.0131
   41MOL   C10224982   6.368   4.103   4.245  0.3127  0.2195  0.2095
   41MOL   C10324983   6.259   4.002   4.285 -0.1343 -0.1264  0.1770
   41MOL   C10424984   6.242   3.890   4.182  0.3175 -0.5962  0.2722
   41MOL   C10524985   7.064   4.482   4.081 -0.4187  0.3559  0.4885
   41MOL   H10624986   6.979   4.293   4.106  1.4806  0.8221  1.2504
   41MOL   H10724987   6.876   4.505   4.302  2.9101 -0.7721 -1.4404
   41MOL   H10824988   6.835   4.340   4.283  1.0705 -0.5130 -2.4908
   41MOL   H10924989   6.618   4.513   4.177 -0.3691  0.8721  0.5212
   41MOL   H11024990   6.637   4.509   4.347 -0.3681 -0.0862 -0.1284
   41MOL   H11124991   6.594   4.270   4.156  2.6100 -0.8842  0.7343
   41MOL   H11224992   6.629   4.249   4.322  1.1225  0.5232  0.1285
   41MOL   H11324993   6.443   4.408   4.381  1.6688  1.7830 -1.0565
   41MOL   H11424994   6.388   4.415   4.225  0.0367  1.8762  1.7227
   41MOL   H11524995   6.423   4.190   4.434 -0.1154  0.0443 -0.2101
   41MOL   H11624996   6.272   4.250   4.381 -0.7793  0.6993 -1.4493
   41MOL   H11724997   6.465   4.058   4.227  1.7332  2.8879  0.9589
   41MOL   H11824998   6.331   4.152   4.155 -1.6692 -4.0574 -1.4529
   41MOL   H11924999   6.274   3.947   4.378 -1.4732 -1.6940 -0.5116
   41MOL   H12025000   6.163   4.055   4.283 -0.3810 -0.4835  1.7913
   41MOL   H12125001   6.326   3.824   4.159  0.1059 -0.7033 -0.2079
   41MOL   H12225002   6.206   3.931   4.087  0.3173  0.1325  0.5897
   41MOL   H12325003   6.160   3.830   4.221  2.6466 -1.8655  3.3782
   41MOL   H12425004   7.048   4.577   4.029  0.0335  0.9319  1.3754
   41MOL   H12525005   7.061   4.504   4.188 -0.7128  1.5450  0.2441
   41MOL   C12625006   7.205   4.420   4.075  0.8689  0.1466  0.2314
   41MOL   O12725007   7.215   4.309   4.164 -0.0535 -0.0729 -0.0705
   41MOL   C12825008   7.311   4.210   4.138  0.8559 -0.1230  0.4704
   41MOL   C12925009   7.337   4.124   4.262 -0.3677 -0.1265  0.0773
   41MOL   C13025010   7.384   4.211   4.380 -0.0281  0.6686 -0.0798
   41MOL   C13125011   7.435   4.122   4.503  0.0065  0.3208  0.2815
   41MOL   C13225012   7.324   4.051   4.576  0.6968 -0.1251 -0.2752
   41MOL   C13325013   7.380   3.974   4.699 -0.2923 -0.0443 -0.5901
   41MOL   C13425014   7.272   3.914   4.792 -0.7124  0.1987 -0.5723
   41MOL   C13525015   7.330   3.814   4.886  0.0278 -0.1943 -0.3797
   41MOL   C13625016   7.317   4.518   4.121  0.1647 -0.6472 -0.2658
   41MOL   H13725017   7.227   4.380   3.976  2.2802 -0.7953  0.9129
   41MOL   H13825018   7.403   4.259   4.108  2.0581 -2.9684 -0.6936
   41MOL   H13925019   7.276   4.150   4.054  0.4722 -1.7278  1.7508
   41MOL   H14025020   7.413   4.053   4.228  0.1712  0.4340  0.1116
   41MOL   H14125021   7.249   4.064   4.283  0.1757 -0.1383  2.4342
   41MOL   H14225022   7.469   4.272   4.349 -0.4354  1.1363 -0.2880
   41MOL   H14325023   7.304   4.281   4.404 -0.6950  0.3049 -1.2300
   41MOL   H14425024   7.506   4.054   4.457 -1.7987 -0.4869 -1.3820
   41MOL   H14525025   7.490   4.197   4.559  0.1386  0.8860 -0.6085
   41MOL   H14625026   7.245   4.118   4.608 -1.0558 -2.9935  1.6733
   41MOL   H14725027   7.269   3.984   4.509 -1.0508 -0.2834  1.2577
   41MOL   H14825028   7.426   4.058   4.751 -1.7821  1.6948 -2.0231
   41MOL   H14925029   7.455   3.899   4.676  0.7166  0.9131 -0.4620
   41MOL   H15025030   7.235   3.987   4.864  1.7627  0.7966  0.1296
   41MOL   H15125031   7.180   3.877   4.745 -2.1292  1.5804  1.0652
   41MOL   H15225032   7.360   3.719   4.842 -0.7580 -0.1176 -1.0917
   41MOL   H15325033   7.260   3.792   4.966 -1.4619  3.3756 -0.6165
   41MOL   H15425034   7.409   3.857   4.948  0.3538 -1.8350  0.3825
   41MOL   H15525035   7.301   4.522   4.229  2.3583 -1.7601  0.1231
   41MOL   H15625036   7.418   4.477   4.114  1.1454  0.9280  3.4510
   41MOL   C15725037   7.322   4.658   4.055  0.0047  0.1588  0.2032
   41MOL   O15825038   7.326   4.625   3.918 -0.7365  0.0221  0.3879
   41MOL   C15925039   7.290   4.726   3.825 -0.5805  0.0725 -0.1554
   41MOL   C16025040   7.134   4.752   3.821  0.4855 -0.6856  0.1304
   41MOL   C16125041   7.090   4.871   3.733  0.7175  0.2437  0.0592
   41MOL   C16225042   6.961   4.847   3.652 -0.4404 -0.3561 -0.5844
   41MOL   C16325043   6.836   4.828   3.745  0.9381  0.3044  0.1092
   41MOL   C16425044   6.706   4.794   3.675 -0.6905  0.3753 -0.5907
   41MOL   C16525045   6.609   4.716   3.773  0.4230 -0.4105 -0.2869
   41MOL   C16625046   6.541   4.821   3.867  0.3013 -0.4426 -0.4980
   41MOL   C16725047   7.433   4.751   4.109 -0.0903  0.4573  0.1011
   41MOL   H16825048   7.224   4.698   4.080  1.1968  2.3251  1.4672
   41MOL   H16925049   7.325   4.685   3.731  0.1372  2.0251 -0.7544
   41MOL   H17025050   7.335   4.823   3.847  1.2286 -0.7949  0.1085
   41MOL   H17125051   7.086   4.754   3.919 -0.7012 -0.4788 -0.4495
   41MOL   H17225052   7.093   4.665   3.769 -1.0116 -1.1261  1.9856
   41MOL   H17325053   7.087   4.965   3.788  1.9543  0.1906  0.2177
   41MOL   H17425054   7.167   4.898   3.660 -1.8947 -0.4120 -3.0607
   41MOL   H17525055   6.941   4.925   3.579 -0.7891 -0.2992 -0.4290
   41MOL   H17625056   6.975   4.763   3.583  0.7721 -1.8956  1.4632
   41MOL   H17725057   6.864   4.750   3.815  0.1978  0.9143  1.0870
   41MOL   H17825058   6.822   4.918   3.805  1.0545  1.7836 -2.0001
   41MOL   H17925059   6.729   4.734   3.586  1.9827  0.9339 -0.3237
   41MOL   H18025060   6.662   4.885   3.635  0.9467  1.7340  0.6581
   41MOL   H18125061   6.532   4.673   3.710  1.2150  2.0120 -3.0302
   41MOL   H18225062   6.657   4.638   3.833 -1.0423  0.6550  2.3857
   41MOL   H18325063   6.505   4.772   3.957 -1.2722  1.8349  0.1499
   41MOL   H18425064   6.456   4.875   3.825 -0.3006 -3.1155 -2.9047
   41MOL   H18525065   6.609   4.890   3.916 -1.1420  0.2548  0.5117
   41MOL   H18625066   7.521   4.709   4.060 -0.9528 -1.1188 -0.1168
   41MOL   H18725067   7.416   4.854   4.077 -1.3917  1.0867  2.6448
   41MOL   C18825068   7.463   4.768   4.258 -0.2627 -0.1943 -0.3575
   41MOL   O18925069   7.355   4.843   4.305 -0.0646 -0.0520  0.2007
   41MOL   C19025070   7.333   4.826   4.449 -0.6533  0.3018  0.6199
   41MOL   C19125071   7.246   4.706   4.486 -0.2349 -0.1458 -0.2432
   41MOL   C19225072   7.203   4.699   4.640  0.1125  0.1411  0.1052
   41MOL   C19325073   7.297   4.613   4.734 -0.4508 -0.4249  0.2315
   41MOL   C19425074   7.257   4.646   4.881 -0.4014  0.0148 -0.0418
   41MOL   C19525075   7.345   4.582   4.989 -0.0274 -0.5626 -0.8740
   41MOL   C19625076   7.318   4.615   5.134  0.4750  0.3933 -0.3617
   41MOL   C19725077   7.431   4.561   5.226  0.0692  0.4727 -0.2710
   41MOL   C19825078   7.591   4.851   4.273 -0.1695 -0.4624 -0.1095
   41MOL   H19925079   7.461   4.669   4.305  0.8167  0.3346  0.8348
   41MOL   H20025080   7.424   4.825   4.508 -0.0795  0.7128 -0.2354
   41MOL   H20125081   7.279   4.915   4.482 -0.3089  1.0337 -0.7286
   41MOL   H20225082   7.281   4.611   4.445  0.7116  0.0812  0.0290
   41MOL   H20325083   7.150   4.726   4.439 -0.8528 -0.2325  0.9826
   41MOL   H20425084   7.184   4.800   4.679 -0.1240 -0.7269  2.3205
   41MOL   H20525085   7.105   4.652   4.649 -1.3108  2.7652 -0.9611
   41MOL   H20625086   7.296   4.504   4.727  1.8561 -0.5832  1.8776
   41MOL   H20725087   7.404   4.628   4.719 -0.2107 -2.2733 -0.1027
   41MOL   H20825088   7.255   4.754   4.896  2.0852 -0.1206  1.3286
   41MOL   H20925089   7.156   4.606   4.894 -0.6662  0.6148 -0.2142
   41MOL   H21025090   7.449   4.608   4.973 -0.6602  2.4906 -0.3534
   41MOL   H21125091   7.339   4.473   4.983  0.3247 -0.5725 -1.0418
   41MOL   H21225092   7.314   4.722   5.152 -0.3685  0.2134  0.5735
   41MOL   H21325093   7.218   4.582   5.163  0.1550 -0.0745 -1.9448
   41MOL   H21425094   7.532   4.578   5.191  0.3343  0.4832  0.4873
   41MOL   H21525095   7.414   4.453   5.227  0.4630  0.4141  0.6344
   41MOL   H21625096   7.420   4.592   5.330 -0.2368 -0.3962 -0.0320
   41MOL   H21725097   7.600   4.936   4.205 -3.1563  0.1400  0.1782
   41MOL   H21825098   7.581   4.904   4.368 -0.1534 -0.0397 -0.3434
   41MOL   C21925099   7.717   4.755   4.269  0.1724 -0.4223  0.2229
   41MOL   O22025100   7.697   4.660   4.368  0.4796  0.4171  0.0575
   41MOL   C22125101   7.740   4.530   4.327  0.1092 -0.2458 -0.7553
   41MOL   C22225102   7.772   4.440   4.447 -0.2050 -0.3111  0.1379
   41MOL   C22325103   7.662   4.441   4.558 -0.3652  0.5165  0.6090
   41MOL   C22425104   7.698   4.353   4.674  0.4662  0.4659 -0.3725
   41MOL   C22525105   7.594   4.358   4.792 -0.0211  0.0011 -0.3562
   41MOL   C22625106   7.637   4.266   4.908 -0.9929  0.3718  0.7015
   41MOL   C22725107   7.553   4.269   5.033  0.0758  0.7048 -0.5352
   41MOL   C22825108   7.615   4.157   5.124 -0.1123  0.9806  0.9173
   41MOL   C22925109   0.073   4.829   4.304  0.4629 -0.1304  0.3926
   41MOL   H23025110   7.723   4.708   4.170  1.6560  0.5464 -0.1719
   41MOL   H23125111   0.060   4.537   4.272  0.5863 -0.3639  0.0425
   41MOL   H23225112   7.669   4.471   4.268  0.4739  0.3304 -1.7932
   41MOL   H23325113   0.089   4.483   4.488  0.2558 -1.7389  0.6487
   41MOL   H23425114   0.025   4.341   4.410  1.2025 -1.2811  3.5781
   41MOL   H23525115   7.650   4.543   4.594 -2.2138  1.4576 -2.4663
   41MOL   H23625116   7.567   4.412   4.512 -0.8215 -0.8317  2.3578
   41MOL   H23725117   7.707   4.248   4.649 -0.7532 -0.3689  2.5933
   41MOL   H23825118   0.020   4.390   4.707  0.2093  0.1666  0.7138
   41MOL   H23925119   7.586   4.463   4.820  2.1117 -0.5158  2.3836
   41MOL   H24025120   7.504   4.312   4.751  0.6205  1.0842 -3.0610
   41MOL   H24125121   7.733   4.302   4.947 -0.0011 -0.2512 -1.0975
   41MOL   H24225122   7.647   4.163   4.874 -2.1069  1.0200 -1.6793
   41MOL   H24325123   7.575   4.362   5.086  0.2172  0.6992 -0.5835
   41MOL   H24425124   7.447   4.251   5.014 -0.0092  1.0482 -0.3938
   41MOL   H24525125   7.594   4.056   5.089 -1.9333  0.8050  2.4449
   41MOL   H24625126   7.562   4.155   5.219  0.5661 -2.1242  1.2889
   41MOL   H24725127   7.723   4.166   5.140  0.2490 -1.3425 -0.0721
   41MOL   H24825128   0.073   4.864   4.407 -0.4146  2.2343 -0.3631
   41MOL   H24925129   0.149   4.752   4.290  1.3483  0.4227  2.0517
   41MOL   C25025130   0.108   4.948   4.215  0.1023  0.5046  0.9830
   41MOL   O25125131   0.113   4.910   4.077  0.1217  0.3696  0.1198
   41MOL   C25225132   0.110   5.017   3.981 -0.1704 -0.1998 -0.2778
   41MOL   C25325133   7.731   5.031   3.939  0.0723  0.4427 -0.0742
   41MOL   C25425134   7.719   5.110   3.811 -0.0969 -0.0574  0.2498
   41MOL   C25525135   7.573   5.141   3.781  0.6376 -0.3764  0.6486
   41MOL   C25625136   7.551   5.227   3.650  0.3824 -0.2462  0.1528
   41MOL   C25725137   7.599   5.377   3.668  0.3364 -0.0572 -0.7402
   41MOL   C25825138   7.561   5.477   3.553 -0.3679  0.7132  0.1262
   41MOL   C25925139   7.614   5.624   3.572  0.2390 -0.1078  0.4247
   41MOL   C26025140   0.246   5.006   4.250  0.0269 -0.1830 -0.1781
   41MOL   H26125141   0.029   5.023   4.228  1.5255  1.8091  2.3030
   41MOL   H26225142   0.177   4.986   3.900 -0.9300  0.5439 -1.2054
   41MOL   H26325143   0.140   5.111   4.028 -0.3072  0.1084 -0.7965
   41MOL   H26425144   7.677   5.077   4.021 -2.1061  0.5987 -1.5484
   41MOL   H26525145   7.691   4.930   3.926  3.0152 -1.1705  2.7955
   41MOL   H26625146   0.013   5.195   3.815  1.5988 -1.3919  0.6490
   41MOL   H26725147   7.757   5.050   3.729 -1.9490  0.7334 -1.2050
   41MOL   H26825148   7.531   5.041   3.773 -2.3210  0.7033  1.6930
   41MOL   H26925149   7.529   5.195   3.865  2.0492  0.6794  0.7153
   41MOL   H27025150   7.606   5.180   3.568  0.9690  1.5156 -0.4918
   41MOL   H27125151   7.446   5.216   3.624  1.0910  1.7339 -3.9605
   41MOL   H27225152   7.703   5.379   3.702 -0.1421  3.4572  0.8104
   41MOL   H27325153   7.549   5.413   3.758  3.5444  1.2074  0.6252
   41MOL   H27425154   7.598   5.445   3.455 -0.8551  0.5373  0.0013
   41MOL   H27525155   7.453   5.479   3.541 -0.2691  0.0415 -0.9963
   41MOL   H27625156   7.537   5.667   3.636 -0.2931  0.2661 -0.4506
   41MOL   H27725157   7.618   5.684   3.481 -1.4874 -0.1978  0.2803
   41MOL   H27825158   7.717   5.624   3.609  0.1442  0.5248  0.6992
   41MOL   H27925159   0.307   4.916   4.244 -0.5701 -0.5553 -0.6522
   41MOL   H28025160   0.286   5.078   4.178 -0.8987  1.4269  0.8616
   41MOL   C28125161   0.262   5.078   4.388  0.2957 -0.6082  0.3830
   41MOL   O28225162   0.206   5.205   4.363  0.0354 -0.1046 -0.0177
   41MOL   C28325163   0.116   5.248   4.453  0.0249 -0.1724 -0.0105
   41MOL   C28425164   7.742   5.216   4.413  0.3195 -0.5365  0.2816
   41MOL   C28525165   7.631   5.299   4.482 -0.2443  0.7302  0.3603
   41MOL   C28625166   7.487   5.244   4.454 -0.1288  0.4446  0.6557
   41MOL   C28725167   7.381   5.329   4.518  0.0540  0.1790  0.2153
   41MOL   C28825168   7.238   5.263   4.495  0.5134  0.1250  0.3041
   41MOL   C28925169   7.122   5.321   4.575  0.2642  0.5816 -0.0178
   41MOL   C29025170   7.002   5.234   4.586  0.1533 -0.2104  0.6078
   41MOL   C29125171   0.415   5.095   4.423 -0.3633  0.0778  0.5445
   41MOL   H29225172   0.221   5.026   4.474  0.3756 -0.3747  0.5629
   41MOL   H29325173   0.129   5.355   4.437  0.0533 -0.2928 -0.7912
   41MOL   H29425174   0.149   5.231   4.556  1.2712  1.2086 -0.1635
   41MOL   H29525175   7.732   5.114   4.450 -2.3551 -1.3904 -2.5515
   41MOL   H29625176   7.716   5.228   4.307  1.2927 -0.6344  0.0325
   41MOL   H29725177   7.656   5.292   4.588 -1.1066 -2.1326  0.4265
   41MOL   H29825178   7.651   5.401   4.450 -1.0823  0.4031 -1.2883
   41MOL   H29925179   7.473   5.241   4.346 -1.2333  0.4980  0.7817
   41MOL   H30025180   7.491   5.145   4.501 -1.2410 -0.7239 -1.6131
   41MOL   H30125181   7.390   5.323   4.627 -1.9946 -1.6081  0.3377
   41MOL   H30225182   7.384   5.427   4.472  0.9252 -0.6735 -1.5739
   41MOL   H30325183   7.244   5.155   4.511  0.6340  0.4717  2.8083
   41MOL   H30425184   7.211   5.279   4.391 -2.8536 -1.9208  0.7929
   41MOL   H30525185   7.157   5.329   4.678 -0.8624  0.6245  0.3661
   41MOL   H30625186   7.101   5.417   4.527 -0.1005  1.5320  1.9650
   41MOL   H30725187   7.035   5.146   4.641  0.1368 -0.1961  0.6404
   41MOL   H30825188   6.962   5.204   4.489  1.2528  1.7069 -0.4775
   41MOL   H30925189   6.925   5.278   4.650 -0.2173  0.4669 -0.2978
   41MOL   H31025190   0.467   4.999   4.419 -0.4002 -0.0160  1.9008
   41MOL   H31125191   0.456   5.159   4.345 -1.8413 -0.7935 -0.9695
   41MOL   C31225192   0.449   5.157   4.556 -0.5163  0.2318  0.1876
   41MOL   O31325193   0.556   5.253   4.542 -0.0205 -0.4411  0.7379
   41MOL   C31425194   0.502   5.377   4.490 -0.3330  0.1304  0.3414
   41MOL   C31525195   0.617   5.476   4.484 -0.0900 -0.0521  0.6026
   41MOL   C31625196   0.749   5.435   4.417  1.0337  0.9046  0.0790
   41MOL   C31725197   0.857   5.541   4.418 -0.5462  0.1997 -0.0341
   41MOL   C31825198   0.977   5.507   4.323  0.3343 -0.1948 -0.3839
   41MOL   C31925199   1.090   5.608   4.325 -0.1947 -1.4576 -0.1599
   41MOL   C32025200   1.156   5.614   4.463 -0.0601  0.6163  0.1216
   41MOL   C32125201   1.283   5.701   4.461  0.0041  0.1224  0.0198
   41MOL   C32225202   0.495   5.047   4.658 -0.0181  0.4219 -0.0138
   41MOL   H32325203   0.364   5.202   4.607  1.2760  2.4213  1.3331
   41MOL   H32425204   0.424   5.422   4.551  0.3912  0.2451  1.1818
   41MOL   H32525205   0.446   5.375   4.396  0.2378  1.7091 -0.0480
   41MOL   H32625206   0.645   5.502   4.586  1.2424 -2.7298  0.9449
   41MOL   H32725207   0.579   5.564   4.432  0.2987 -0.7516 -0.8894
   41MOL   H32825208   0.781   5.336   4.450  1.8722  0.8956 -0.7479
   41MOL   H32925209   0.723   5.411   4.314 -0.6463  0.8035  0.5069
   41MOL   H33025210   0.812   5.636   4.389 -1.7634 -0.2787  0.2600
   41MOL   H33125211   0.900   5.534   4.518 -1.1670 -2.8595  0.0553
   41MOL   H33225212   1.020   5.413   4.357 -2.8657 -1.6680 -0.2231
   41MOL   H33325213   0.940   5.500   4.220 -1.2958 -1.7222  0.2783
   41MOL   H33425214   1.054   5.706   4.298 -1.2322 -1.7630  0.1039
   41MOL   H33525215   1.171   5.584   4.256 -0.1302 -2.6804  0.3277
   41MOL   H33625216   1.092   5.648   4.545  2.0343 -0.3042  2.1889
   41MOL   H33725217   1.181   5.512   4.491 -2.5598  0.0218  0.3407
   41MOL   H33825218   1.348   5.674   4.545 -0.0508 -0.0923 -0.0064
   41MOL   H33925219   1.267   5.808   4.455  0.5740  0.1075 -2.3350
   41MOL   H34025220   1.339   5.683   4.369  0.4384  1.8393 -0.0613
   41MOL   H34125221   0.577   4.985   4.622 -1.3461 -0.5865 -1.3643
   41MOL   H34225222   0.535   5.098   4.745  0.0568  1.0929 -0.4380
   41MOL   C34325223   0.380   4.954   4.701  0.4222  0.1434 -0.3384
   41MOL   O34425224   0.258   5.026   4.732  0.1059 -0.3155  0.3366
   41MOL   C34525225   0.228   5.042   4.863  0.3734  0.2787  0.5076
   41MOL   C34625226   0.136   5.166   4.874 -0.3689 -0.0245  1.4586
   41MOL   C34725227   0.076   5.174   5.022 -0.2620  0.0472 -0.5447
   41MOL   C34825228   7.768   5.304   5.049 -0.8291  0.2786 -0.0276
   41MOL   C34925229   7.746   5.326   5.199  0.8684 -0.2479 -0.0603
   41MOL   C35025230   7.715   5.472   5.239  1.0206  0.5701  0.6467
   41MOL   C35125231   7.558   5.500   5.227 -0.5274  0.3600  0.4562
   41MOL   C35225232   7.525   5.628   5.307  1.1781  0.2038  0.3177
   41MOL   C35325233   0.420   4.840   4.786  0.4522 -0.1802 -0.7489
   41MOL   H35425234   0.355   4.904   4.608  1.6935  1.3919 -1.3635
   41MOL   H35525235   0.319   5.065   4.918  1.7454  0.2713 -1.6945
   41MOL   H35625236   0.180   4.949   4.896 -0.1874 -0.1968 -1.5955
   41MOL   H35725237   0.055   5.157   4.802  0.3187  2.4392  0.2949
   41MOL   H35825238   0.200   5.249   4.845  0.1060 -0.5545  0.9905
   41MOL   H35925239   0.006   5.093   5.045 -1.8818  1.2326 -1.1980
   41MOL   H36025240   0.164   5.175   5.087  1.3026  3.3981 -2.6283
   41MOL   H36125241   0.053   5.391   5.022 -0.3884  0.0895  0.3233
   41MOL   H36225242   7.674   5.309   4.993  0.0390  1.0846 -1.4405
   41MOL   H36325243   7.660   5.267   5.233 -0.6778  1.3103 -1.1796
   41MOL   H36425244   0.065   5.302   5.249 -0.1793 -0.3705  1.8883
   41MOL   H36525245   7.769   5.543   5.178  2.0026  0.5870  1.5181
   41MOL   H36625246   7.755   5.482   5.340  1.6830 -0.1019  0.4584
   41MOL   H36725247   7.519   5.504   5.125  0.9354  0.3800 -0.1202
   41MOL   H36825248   7.508   5.424   5.286 -1.0637  2.1509  2.3506
   41MOL   H36925249   7.417   5.645   5.302  0.6251 -2.9686  0.4520
   41MOL   H37025250   7.571   5.723   5.279  0.1940  1.3399  2.4677
   41MOL   H37125251   7.551   5.604   5.410 -1.7132 -1.2021  0.7831
   41MOL   H37225252   0.524   4.811   4.768  0.4509 -0.8852  0.3502
   41MOL   H37325253   0.414   4.861   4.893  1.0668  0.3634 -0.8137
   41MOL   C37425254   0.329   4.713   4.774  0.5615 -0.1667 -0.1251
   41MOL   O37525255   0.389   4.616   4.852  0.0512  0.5834  0.8184
   41MOL   C37625256   0.295   4.535   4.930  0.4324  0.0454  0.7146
   41MOL   C37725257   0.371   4.419   5.004 -0.7563  0.5757 -0.5569
   41MOL   C37825258   0.285   4.326   5.096 -0.2501  0.7192  0.2822
   41MOL   C37925259   0.366   4.202   5.137  0.5272 -0.1919  0.3135
   41MOL   C38025260   0.284   4.122   5.237 -0.3634  0.2416  0.0732
   41MOL   C38125261   0.363   3.987   5.252  0.3126 -0.4466 -0.2813
   41MOL   C38225262   0.290   3.896   5.354  0.3246 -0.4998 -0.0329
   41MOL   C38325263   0.365   3.769   5.376 -0.3324 -0.3653 -0.0933
   41MOL   C38425264   0.304   4.652   4.638  0.2362  0.2823  0.7100
   41MOL   H38525265   0.234   4.748   4.813 -0.9520 -4.0993 -0.0663
   41MOL   H38625266   0.218   4.496   4.863 -1.3482  1.0937  2.1101
   41MOL   H38725267   0.249   4.598   5.006  0.0235 -0.1509  0.6347
   41MOL   H38825268   0.451   4.472   5.056 -2.5160  2.1108  0.6568
   41MOL   H38925269   0.423   4.354   4.934 -0.0116  0.2100  0.3286
   41MOL   H39025270   0.256   4.381   5.185  2.1926  2.2932  0.1689
   41MOL   H39125271   0.189   4.299   5.052  0.1395  0.5009 -0.4510
   41MOL   H39225272   0.390   4.146   5.047 -0.7014  0.3825 -0.3922
   41MOL   H39325273   0.456   4.233   5.190 -0.7279  0.2224  2.2942
   41MOL   H39425274   0.290   4.181   5.328  1.4263  1.3210 -0.7154
   41MOL   H39525275   0.181   4.103   5.206  0.0811 -1.2787 -0.5313
   41MOL   H39625276   0.460   4.019   5.289 -0.7073  3.6993 -0.8682
   41MOL   H39725277   0.376   3.930   5.160  0.3533  0.1279 -0.6384
   41MOL   H39825278   0.260   3.963   5.434 -1.9023  1.0670 -2.0900
   41MOL   H39925279   0.198   3.865   5.305  0.0898  0.7379 -0.3895
   41MOL   H40025280   0.310   3.700   5.440 -0.8188 -0.1639 -0.2921
   41MOL   H40125281   0.464   3.784   5.419 -0.5784  1.7123 -0.1699
   41MOL   H40225282   0.378   3.712   5.284 -0.8376 -0.8315  0.1203
   41MOL   H40325283   0.256   4.556   4.655 -1.2265  1.0068  0.7870
   41MOL   H40425284   0.242   4.714   4.574  2.2817  0.8862 -0.7584
   41MOL   C40525285   0.435   4.629   4.549 -0.0371 -0.3943 -0.0040
   41MOL   O40625286   0.400   4.531   4.455  0.0215  0.1353  0.5448
   41MOL   C40725287   0.422   4.574   4.316 -0.1052 -0.2284 -0.0563
   41MOL   C40825288   0.389   4.465   4.218 -0.1587 -0.0318 -0.2210
   41MOL   C40925289   0.475   4.335   4.243 -0.3436 -0.3652 -0.0500
   41MOL   C41025290   0.456   4.219   4.146  0.9920 -0.3365  0.1155
   41MOL   C41125291   0.543   4.095   4.177  0.5159 -0.2756  0.9277
   41MOL   C41225292   0.504   4.014   4.297 -0.2141  0.0766  0.1136
   41MOL   C41325293   0.370   3.940   4.264 -0.5832  0.4056  0.6615
   41MOL   C41425294   0.342   3.836   4.371  0.0241 -0.3345 -0.3000
   41MOL   C41525295   0.546   4.555   4.634  0.0987 -0.5692  0.0060
   41MOL   H41625296   0.474   4.724   4.511 -0.2836 -0.2946 -0.0090
   41MOL   H41725297   0.523   4.613   4.302  1.2280 -1.9901  3.9849
   41MOL   H41825298   0.358   4.660   4.294  1.1474  1.2739  1.9613
   41MOL   H41925299   0.390   4.501   4.115 -1.6167 -3.1485 -1.3810
   41MOL   H42025300   0.289   4.426   4.237 -0.4901  0.4184 -1.0287
   41MOL   H42125301   0.578   4.367   4.252 -0.5768  0.7272 -1.1703
   41MOL   H42225302   0.438   4.306   4.342 -1.2152 -1.1069 -0.5840
   41MOL   H42325303   0.349   4.202   4.130  0.8821 -0.7687  1.2448
   41MOL   H42425304   0.488   4.260   4.050  1.1245 -0.7445 -0.0187
   41MOL   H42525305   0.539   4.028   4.091 -2.4014 -0.2596  1.0166
   41MOL   H42625306   0.640   4.145   4.184  1.1904 -1.5163  0.5808
   41MOL   H42725307   0.504   4.087   4.378  2.9233  0.6773 -0.3654
   41MOL   H42825308   0.584   3.947   4.330  1.8235  1.3881 -2.0543
   41MOL   H42925309   0.298   4.021   4.271 -2.7557 -1.6346  2.8067
   41MOL   H43025310   0.370   3.892   4.166 -0.3246 -2.3978  1.9721
   41MOL   H43125311   0.422   3.762   4.368  2.3066  1.9046  2.4259
   41MOL   H43225312   0.243   3.792   4.365 -1.0509  2.2980 -3.4631
   41MOL   H43325313   0.359   3.883   4.468  0.5802  0.1962 -0.6462
   41MOL   H43425314   0.578   4.606   4.724 -1.1982  0.5820 -0.1709
   41MOL   H43525315   0.499   4.471   4.684  0.4111  0.1182  1.4619
   41MOL   C43625316   0.664   4.507   4.547 -0.6950 -0.2003 -0.0849
   41MOL   O43725317   0.737   4.419   4.625 -0.8998  0.1458 -0.0256
   41MOL   C43825318   0.691   4.282   4.620  0.1887  0.2243 -0.1798
   41MOL   C43925319   0.750   4.213   4.740  0.0378  0.3524 -0.3680
   41MOL   C44025320   0.665   4.231   4.866 -0.3706  0.2697  0.1044
   41MOL   C44125321   0.722   4.192   5.003 -0.3306 -0.1276 -0.2427
   41MOL   C44225322   0.730   4.036   5.011  0.4433 -0.5252  0.0758
   41MOL   C44325323   0.756   3.994   5.155 -0.1714  0.1890  0.0836
   41MOL   C44425324   0.718   3.850   5.188 -0.2895 -0.6617  0.5928
   41MOL   C44525325   0.747   3.797   5.329 -0.5876 -0.8116 -0.1537
   41MOL   C44625326   0.761   4.621   4.521  0.4449 -0.2404 -0.0332
   41MOL   H44725327   0.629   4.452   4.459 -0.5237  1.1479 -1.0081
   41MOL   H44825328   0.583   4.267   4.616  0.3813 -1.2218 -0.1111
   41MOL   H44925329   0.728   4.229   4.532 -0.5681  0.5476 -0.6931
   41MOL   H45025330   0.855   4.238   4.755  0.7826 -1.1277 -2.7975
   41MOL   H45125331   0.742   4.105   4.723  1.5977 -0.1005  1.5059
   41MOL   H45225332   0.641   4.337   4.872  1.0232  0.5513  0.9407
   41MOL   H45325333   0.570   4.178   4.862  0.3464 -0.9425 -1.1202
   41MOL   H45425334   0.825   4.226   5.015 -0.3063  0.1762 -1.2107
   41MOL   H45525335   0.657   4.241   5.075 -1.6509  0.1418 -1.5845
   41MOL   H45625336   0.638   4.004   4.963  0.5074 -1.3090  0.4770
   41MOL   H45725337   0.809   4.015   4.938 -0.4129 -0.8491 -0.7744
   41MOL   H45825338   0.698   4.056   5.223 -1.9359 -1.4891  0.1393
   41MOL   H45925339   0.857   4.016   5.191 -0.5039 -0.0186  1.1650
   41MOL   H46025340   0.611   3.835   5.174 -0.5115  1.9856 -1.0173
   41MOL   H46125341   0.781   3.801   5.114  2.1333  1.1586  1.3790
   41MOL   H46225342   0.686   3.837   5.410  1.7694 -0.0891  1.2788
   41MOL   H46325343   0.847   3.817   5.367 -1.2783  0.0046  1.2715
   41MOL   H46425344   0.725   3.690   5.331 -0.7495 -0.7869 -0.5222
   41MOL   H46525345   0.724   4.695   4.450  1.6721 -0.3721 -0.8220
   41MOL   H46625346   0.797   4.665   4.613  1.2665 -0.9956  0.0181
   41MOL   C46725347   0.878   4.571   4.441 -0.2831  0.8413  0.1345
   41MOL   O46825348   0.972   4.677   4.430  0.0618  0.3803  0.1355
   41MOL   C46925349   1.109   4.653   4.476  0.5048 -0.2431  0.0898
   41MOL   C47025350   1.185   4.788   4.470 -0.5091 -0.0049  0.0852
   41MOL   C47125351   1.223   4.827   4.327 -0.8427 -0.2828  0.0153
   41MOL   C47225352   1.290   4.957   4.301 -0.6798  0.2269 -0.0836
   41MOL   C47325353   1.341   4.960   4.161 -0.4038 -0.4676  0.2508
   41MOL   C47425354   1.403   5.090   4.119 -0.3335 -0.7288 -0.4560
   41MOL   C47525355   1.397   5.114   3.968  0.6771 -0.2339 -0.1270
   41MOL   C47625356   1.455   5.249   3.935  0.1923 -0.1749 -0.1492
   41MOL   C47725357   0.842   4.526   4.300 -0.0497  0.1774 -0.0722
   41MOL   H47825358   0.929   4.482   4.479 -0.2425 -0.1293 -2.0854
   41MOL   H47925359   1.155   4.569   4.424  0.4382 -1.3671  1.8055
   41MOL   H48025360   1.101   4.628   4.582  0.0712 -3.0392 -0.5640
   41MOL   H48125361   1.275   4.775   4.529 -0.9566 -1.7621  0.4125
   41MOL   H48225362   1.137   4.869   4.525 -0.2006 -0.3278  0.8286
   41MOL   H48325363   1.280   4.749   4.277 -0.2651  0.4638 -0.5085
   41MOL   H48425364   1.132   4.821   4.266  0.2772  0.8399 -1.8139
   41MOL   H48525365   1.211   5.032   4.308 -0.4505  0.6530 -1.8392
   41MOL   H48625366   1.365   4.985   4.375  0.5617 -1.6232 -0.6146
   41MOL   H48725367   1.426   4.892   4.154  0.1262  0.2492 -0.4244
   41MOL   H48825368   1.273   4.920   4.085 -1.0511  1.6953 -0.3314
   41MOL   H48925369   1.503   5.103   4.159 -1.0318  2.1447  0.4368
   41MOL   H49025370   1.351   5.170   4.172  2.3168  0.4833  0.3916
   41MOL   H49125371   1.457   5.037   3.920 -0.5799  0.7460 -3.3449
   41MOL   H49225372   1.300   5.081   3.930  0.9842 -0.0900 -1.0393
   41MOL   H49325373   1.556   5.272   3.967  0.7015 -0.6455 -1.3976
   41MOL   H49425374   1.391   5.334   3.958 -0.5633 -0.2450 -1.9314
   41MOL   H49525375   1.451   5.256   3.826 -1.3062 -1.9289 -0.2264
   41MOL   H49625376   0.768   4.446   4.309 -0.9998  0.6925 -2.9440
   41MOL   H49725377   0.781   4.603   4.254 -2.8670 -1.6047  0.5744
   41MOL   C49825378   0.955   4.484   4.199  0.9415  0.1341  0.2516
   41MOL   O49925379   0.896   4.452   4.074 -0.6402 -0.6588 -0.4706
   41MOL   C50025380   0.862   4.555   3.989  0.0644 -0.9308  0.5921
   41MOL   C50125381   0.817   4.507   3.854 -0.2508 -0.9861  0.4954
   41MOL   C50225382   0.671   4.453   3.865 -0.1378 -0.9901  0.2345
   41MOL   C50325383   0.606   4.435   3.720  0.1725 -0.4280 -0.0829
   41MOL   C50425384   0.462   4.389   3.710 -0.5836  0.1418  0.3545
   41MOL   C50525385   0.434   4.244   3.684 -0.5218  0.4295 -0.1575
   41MOL   C50625386   0.294   4.213   3.633 -0.0046 -0.4022 -0.1446
   41MOL   C50725387   0.287   4.233   3.481  0.9352 -0.6322 -0.6910
   41MOL   C50825388   1.026   4.356   4.251  0.1047  0.1874  0.1973
   41MOL   H50925389   1.020   4.569   4.178 -1.2130  2.2409  1.9395
   41MOL   H51025390   0.949   4.619   3.983 -0.8217  0.5135  2.4969
   41MOL   H51125391   0.786   4.614   4.042  1.0217  1.4575 -0.6166
   41MOL   H51225392   0.889   4.439   3.808  0.9924  1.4530 -1.2205
   41MOL   H51325393   0.817   4.594   3.788 -1.6970  0.4859  2.3661
   41MOL   H51425394   0.680   4.353   3.907  0.7073 -0.2726  1.8000
   41MOL   H51525395   0.605   4.518   3.922 -0.0495  0.0152 -0.7718
   41MOL   H51625396   0.622   4.531   3.669 -1.9722  0.0192  0.0535
   41MOL   H51725397   0.665   4.363   3.664  0.1302  1.1417 -2.2168
   41MOL   H51825398   0.427   4.419   3.809 -1.2033 -1.5699  0.6730
   41MOL   H51925399   0.412   4.436   3.625  1.1211 -0.7927 -1.1867
   41MOL   H52025400   0.462   4.182   3.769  0.1343  0.7009 -0.1699
   41MOL   H52125401   0.498   4.215   3.601  0.2980  2.1488 -0.1544
   41MOL   H52225402   0.275   4.106   3.648  1.4311 -0.7010 -0.3775
   41MOL   H52325403   0.212   4.264   3.683 -1.5574 -2.6684 -0.2764
   41MOL   H52425404   0.183   4.222   3.449  0.5267 -1.4180  0.8254
   41MOL   H52525405   0.341   4.155   3.427  1.1058 -0.2281 -1.1089
   41MOL   H52625406   0.316   4.325   3.430  0.3516 -1.2602 -2.1949
   41MOL   H52725407   1.063   4.377   4.351  1.3539 -1.8216  0.1839
   41MOL   H52825408   0.954   4.276   4.262  0.8920 -0.4331  0.8305
   41MOL   C52925409   1.143   4.306   4.165 -0.5095 -0.2034 -0.0438
   41MOL   O53025410   1.237   4.415   4.175  0.0800 -0.4936  0.0652
   41MOL   C53125411   1.370   4.386   4.194  0.5093  1.0582 -0.7702
   41MOL   C53225412   1.433   4.505   4.255  0.0311 -0.8017  0.1411
   41MOL   C53325413   1.583   4.487   4.298 -0.5931  0.4577  0.9845
   41MOL   C53425414   1.634   4.600   4.377  0.0592  0.0983  0.0981
   41MOL   C53525415   1.599   4.598   4.532  0.3808 -0.0766  0.0045
   41MOL   C53625416   1.625   4.732   4.605  0.0955  0.1512  0.4136
   41MOL   C53725417   1.584   4.730   4.751 -0.2715  0.1769 -0.2568
   41MOL   C53825418   1.639   4.848   4.828 -0.0028 -0.3757 -0.4160
   41MOL   C53925419   1.118   4.263   4.024 -0.2555 -0.2516  0.4475
   41MOL   H54025420   1.181   4.223   4.225 -1.5056  1.0852  2.4727
   41MOL   H54125421   1.373   4.305   4.267  1.5663  0.8754 -0.9989
   41MOL   H54225422   1.431   4.360   4.107 -0.1416 -1.2060 -0.5597
   41MOL   H54325423   1.372   4.538   4.340  3.7634  0.1936  2.5423
   41MOL   H54425424   1.431   4.579   4.174  1.3004 -0.2025  0.6548
   41MOL   H54525425   1.606   4.388   4.336 -0.0663 -0.2761 -1.1992
   41MOL   H54625426   1.641   4.499   4.207  1.6193  1.7433  2.5135
   41MOL   H54725427   1.739   4.580   4.358 -0.2578  0.5526 -2.3062
   41MOL   H54825428   1.613   4.697   4.332  0.5009  0.0988 -0.1039
   41MOL   H54925429   1.491   4.585   4.529  0.2772  0.1759  2.0391
   41MOL   H55025430   1.660   4.522   4.578  3.5187  1.5612 -1.3067
   41MOL   H55125431   1.581   4.818   4.554  0.1924  0.1458  0.3182
   41MOL   H55225432   1.730   4.760   4.598  0.3679 -0.6331  1.2986
   41MOL   H55325433   1.475   4.727   4.749 -0.2938 -1.6936  1.5197
   41MOL   H55425434   1.618   4.639   4.801 -1.4161  0.0277  0.2563
   41MOL   H55525435   1.748   4.842   4.819 -0.0077 -0.0302 -0.7169
   41MOL   H55625436   1.615   4.836   4.933  1.6699 -0.9922 -0.0816
   41MOL   H55725437   1.597   4.944   4.799  0.6498  0.4519  1.3418
   41MOL   H55825438   1.075   4.346   3.968 -0.4140 -1.6500 -1.5610
   41MOL   H55925439   1.206   4.223   3.972 -1.9313 -2.5108 -0.7558
   41MOL   C56025440   1.015   4.146   4.026 -0.3315  0.0157 -0.5852
   41MOL   O56125441   1.052   4.032   4.103  0.4483 -0.1329  0.1568
   41MOL   C56225442   0.945   3.980   4.180  0.3593 -0.4753 -0.0420
   41MOL   C56325443   0.997   3.861   4.269  0.3830 -0.4240 -0.4267
   41MOL   C56425444   1.095   3.908   4.385 -0.2178  0.5443 -0.0423
   41MOL   C56525445   1.046   3.989   4.507  0.9736  0.1794  1.2380
   41MOL   C56625446   1.156   4.034   4.603 -0.4365  0.2033 -0.1572
   41MOL   C56725447   1.231   4.159   4.553  0.6901 -0.6200  0.0947
   41MOL   C56825448   1.340   4.197   4.641 -0.4576  0.1770 -0.4332
   41MOL   C56925449   1.447   4.278   4.574 -0.1296  0.3491  0.3214
   41MOL   C57025450   1.000   4.108   3.874 -0.1540  0.4067 -0.3851
   41MOL   H57125451   0.922   4.193   4.061  0.3570  1.7184 -0.9767
   41MOL   H57225452   0.868   3.938   4.115 -3.4446  1.4677  2.9881
   41MOL   H57325453   0.892   4.050   4.245 -2.0787 -2.6227  0.3261
   41MOL   H57425454   1.036   3.791   4.196  0.2065  0.8277 -1.7510
   41MOL   H57525455   0.907   3.824   4.318 -0.5147  2.4548  0.2476
   41MOL   H57625456   1.151   3.820   4.417  1.7925  0.5076 -3.4033
   41MOL   H57725457   1.180   3.962   4.342  0.7459 -0.6308  0.3554
   41MOL   H57825458   0.998   4.075   4.460  1.2543  0.7889  2.0636
   41MOL   H57925459   0.966   3.931   4.554  1.0103 -0.8073  0.1146
   41MOL   H58025460   1.119   4.038   4.706  1.5922  2.4940  0.5340
   41MOL   H58125461   1.227   3.952   4.610  1.4216  1.7609 -0.1847
   41MOL   H58225462   1.163   4.244   4.538  1.4719  0.3670  1.9023
   41MOL   H58325463   1.269   4.134   4.455  1.2674 -1.9161  0.6397
   41MOL   H58425464   1.310   4.246   4.734 -1.2896 -0.1748 -0.5136
   41MOL   H58525465   1.380   4.105   4.683 -4.1368 -0.2974  2.2403
   41MOL   H58625466   1.494   4.225   4.491  0.9508  1.6126  0.1087
   41MOL   H58725467   1.525   4.313   4.642 -0.8600 -1.2250  1.9987
   41MOL   H58825468   1.410   4.371   4.530 -0.3658  0.0292 -0.1637
   41MOL   H58925469   0.978   4.198   3.816  1.0485  0.9601 -0.0093
   41MOL   H59025470   1.102   4.087   3.842  0.1303  1.4440 -0.1979
   41MOL   C59125471   0.897   4.001   3.836 -1.1294 -0.0496  0.3262
   41MOL   O59225472   0.918   3.951   3.707  0.5342  0.0365 -0.1066
   41MOL   C59325473   1.032   3.879   3.670  0.6340  0.7013 -0.1885
   41MOL   C59425474   1.017   3.728   3.638 -0.5431  0.4762  0.4124
   41MOL   C59525475   0.911   3.682   3.533 -0.8509 -0.1809  0.2228
   41MOL   C59625476   0.912   3.530   3.495 -0.1385  0.5929  0.3234
   41MOL   C59725477   0.803   3.488   3.393 -0.1013  0.5476 -0.4139
   41MOL   C59825478   0.851   3.355   3.341  0.0917 -0.3615  0.0849
   41MOL   C59925479   0.751   3.301   3.238 -0.4069 -1.1915  0.0114
   41MOL   C60025480   0.796   3.184   3.160 -0.0763  0.1481 -0.1499
   41MOL   C60125481   0.752   4.054   3.836 -0.5361  0.1768  0.3271
   41MOL   H60225482   0.901   3.918   3.907  0.7505  1.4831  2.1009
   41MOL   H60325483   1.107   3.883   3.749 -0.0435  0.7037  0.4620
   41MOL   H60425484   1.073   3.913   3.576 -2.1680  1.7372 -1.0599
   41MOL   H60525485   0.994   3.688   3.737  0.7676 -0.0980  0.5004
   41MOL   H60625486   1.118   3.694   3.615  0.1016  1.2031  2.0780
   41MOL   H60725487   0.813   3.715   3.569 -1.4500 -0.7419 -0.8696
   41MOL   H60825488   0.940   3.737   3.444 -0.8377  0.9036  0.8875
   41MOL   H60925489   1.012   3.495   3.472  0.5547  0.4364  3.2901
   41MOL   H61025490   0.894   3.476   3.588 -0.6893  1.0890  0.5077
   41MOL   H61125491   0.706   3.475   3.442 -1.6923  0.5936 -3.3988
   41MOL   H61225492   0.807   3.562   3.313 -0.1410  0.2733 -0.6736
   41MOL   H61325493   0.864   3.285   3.423  1.3734 -0.3979 -0.1367
   41MOL   H61425494   0.947   3.376   3.292  0.6402  2.3134  2.1828
   41MOL   H61525495   0.657   3.276   3.287 -0.9822 -0.4264 -0.6787
   41MOL   H61625496   0.737   3.387   3.172  3.8006 -0.5090 -0.1075
   41MOL   H61725497   0.803   3.101   3.230  0.3225 -0.7698 -1.2665
   41MOL   H61825498   0.896   3.200   3.119  0.3064  2.0251  1.4576
   41MOL   H61925499   0.734   3.144   3.080  1.1881  0.2951 -1.2242
   41MOL   H62025500   0.732   4.136   3.767  0.6346  0.8746  0.7911
   41MOL   H62125501   0.685   3.973   3.808 -1.2703  0.6039  0.8296
   41MOL   H62225502   0.724   4.092   3.935  0.3940 -0.5279  0.8697
   42MOL     C125503   5.935   1.638   7.382  0.3249 -0.1856 -0.1386
   42MOL     O225504   5.926   1.713   7.265  0.8405  0.2137  0.2449
   42MOL     C325505   5.797   1.696   7.210 -0.7465  0.1850 -0.4434
   42MOL     C425506   5.797   1.787   7.089 -0.0314 -0.3181 -0.1162
   42MOL     C525507   5.688   1.750   6.987  0.3220 -0.0817 -0.7147
   42MOL     C625508   5.712   1.826   6.854 -0.6300  0.1001 -0.6164
   42MOL     C725509   5.612   1.769   6.753  0.1472 -0.4029 -0.5189
   42MOL     C825510   5.484   1.857   6.753 -0.9896  0.7286 -0.5161
   42MOL     C925511   5.371   1.793   6.686  0.4439 -0.0928  0.5930
   42MOL    C1025512   5.396   1.748   6.541 -0.6927  0.7169  0.3607
   42MOL    C1125513   6.069   1.644   7.453  0.5326 -0.0174 -0.1237
   42MOL    H1225514   5.855   1.669   7.450  0.0491  2.4465 -1.5982
   42MOL    H1325515   5.725   1.729   7.285 -0.0257  0.1509  0.2671
   42MOL    H1425516   5.771   1.591   7.193 -0.4149  0.3828 -2.2706
   42MOL    H1525517   5.885   1.769   7.028 -1.6322 -0.7372 -2.3386
   42MOL    H1625518   5.798   1.895   7.104 -0.8158 -0.0191 -2.1082
   42MOL    H1725519   5.681   1.643   6.965  0.0245 -0.2008 -0.0260
   42MOL    H1825520   5.595   1.781   7.033  0.3779 -0.1101 -0.5817
   42MOL    H1925521   5.714   1.935   6.852  3.4897  0.1197 -2.1880
   42MOL    H2025522   5.812   1.803   6.815 -0.9258  2.1132 -2.6654
   42MOL    H2125523   5.647   1.766   6.650 -0.2578 -1.7056 -0.6273
   42MOL    H2225524   5.585   1.666   6.774  0.8097 -0.6255 -0.7422
   42MOL    H2325525   5.508   1.951   6.703  0.2500  0.4574 -0.4485
   42MOL    H2425526   5.446   1.888   6.850 -0.1088 -1.7459  0.6635
   42MOL    H2525527   5.342   1.703   6.740  1.5525 -1.2919 -0.7540
   42MOL    H2625528   5.284   1.858   6.697 -0.0292 -0.8420  1.2710
   42MOL    H2725529   5.324   1.672   6.509  1.3495 -0.6932 -1.0506
   42MOL    H2825530   5.492   1.697   6.529 -0.5803  1.3393 -1.6467
   42MOL    H2925531   5.416   1.827   6.469 -1.4234  1.0532  0.5293
   42MOL    H3025532   6.156   1.624   7.391  0.5026  0.7661 -0.4226
   42MOL    H3125533   6.078   1.749   7.483 -2.1134  0.0599  0.5300
   42MOL    H3225534   5.915   1.536   7.348  0.2399 -0.3418  0.3647
   42MOL    C3325535   6.080   1.562   7.580  0.2914  0.0721 -0.7050
   42MOL    O3425536   5.991   1.630   7.671  0.7735 -0.1509 -0.7677
   42MOL    C3525537   5.892   1.556   7.735 -0.2370  0.2859  0.3323
   42MOL    C3625538   5.826   1.650   0.063 -0.2444 -0.5195  0.0616
   42MOL    C3725539   5.709   1.584   0.147 -0.0389  0.4292  0.5367
   42MOL    C3825540   5.747   1.454   0.226  0.1014 -0.2745  0.0016
   42MOL    C3925541   5.631   1.385   0.308 -0.1385 -0.4163 -0.0707
   42MOL    C4025542   5.669   1.249   0.373 -0.2632  0.4723 -0.2165
   42MOL    C4125543   5.790   1.249   0.468 -0.7254 -0.2517  0.2316
   42MOL    C4225544   5.770   1.354   0.581  0.1483 -0.2006  0.5498
   42MOL    C4325545   6.215   1.547   7.655 -0.4801  0.3731 -0.0975
   42MOL    H4425546   6.048   1.462   7.550  2.4005 -0.9627  0.3424
   42MOL    H4525547   5.937   1.468   0.007 -0.9793 -0.5441 -0.5002
   42MOL    H4625548   5.810   1.530   7.668  0.2246  0.2897 -0.2313
   42MOL    H4725549   5.780   1.738   0.019 -1.0101  0.0988  2.0301
   42MOL    H4825550   5.901   1.684   0.135  0.2068  0.3284 -0.8001
   42MOL    H4925551   5.668   1.665   0.209  0.4397  0.8765  0.2705
   42MOL    H5025552   5.637   1.559   0.069 -0.5319  0.8107  0.8589
   42MOL    H5125553   5.800   1.388   0.157  3.3907  1.4265  0.7895
   42MOL    H5225554   5.816   1.481   0.305  1.0597 -1.7346 -0.3296
   42MOL    H5325555   5.593   1.453   0.384  0.5434  0.9964 -0.9684
   42MOL    H5425556   5.550   1.361   0.238 -0.1720  1.2200 -0.6081
   42MOL    H5525557   5.695   1.178   0.294 -0.1740 -1.7003  1.7032
   42MOL    H5625558   5.578   1.209   0.419 -0.5103  0.7559 -0.4524
   42MOL    H5725559   5.806   1.147   0.502 -0.4605 -0.6031 -0.9069
   42MOL    H5825560   5.878   1.266   0.406 -0.4984 -2.1398  0.0269
   42MOL    H5925561   5.688   1.333   0.651  0.6655  0.1789  1.2737
   42MOL    H6025562   5.775   1.461   0.560  1.6812 -0.3798 -0.0435
   42MOL    H6125563   5.860   1.351   0.642  0.7447 -0.4354 -0.3423
   42MOL    H6225564   6.230   1.647   7.695 -0.7600 -0.3664  1.9097
   42MOL    H6325565   6.194   1.484   7.741 -1.1894  0.3139 -0.3112
   42MOL    C6425566   6.342   1.500   7.586 -0.0756 -0.4155  0.1849
   42MOL    O6525567   6.342   1.356   7.570  0.1659  0.1537  0.4125
   42MOL    C6625568   6.386   1.310   7.441 -0.0731  0.3350 -0.3621
   42MOL    C6725569   6.313   1.181   7.409  0.4085  0.2625 -0.2282
   42MOL    C6825570   6.333   1.128   7.270 -0.1211 -0.4322  0.5767
   42MOL    C6925571   6.236   1.011   7.242 -0.0831 -0.7981 -0.4566
   42MOL    C7025572   6.241   0.980   7.094 -0.3266 -1.0734  0.0178
   42MOL    C7125573   6.182   0.851   7.054 -0.1133  0.4750  0.1629
   42MOL    C7225574   6.145   0.837   6.911 -0.6242  0.3031  0.4185
   42MOL    C7325575   6.145   0.696   6.855 -0.2360 -0.5022  0.3433
   42MOL    C7425576   6.472   1.539   7.646 -0.4544  0.0266 -0.0162
   42MOL    H7525577   6.344   1.552   7.490 -0.4176  0.5408  0.6833
   42MOL    H7625578   6.491   1.281   7.432 -0.4378 -0.4637 -2.3899
   42MOL    H7725579   6.360   1.377   7.359 -0.2451  2.7732  1.6057
   42MOL    H7825580   6.209   1.196   7.438  0.2779  0.0484 -0.5703
   42MOL    H7925581   6.341   1.103   7.479  0.2720  0.9188  0.5551
   42MOL    H8025582   6.321   1.206   7.196  0.9259 -0.4926  0.3302
   42MOL    H8125583   6.434   1.086   7.263  0.5945  1.4050 -0.3274
   42MOL    H8225584   6.256   0.933   7.315  0.8202  0.7972  1.0281
   42MOL    H8325585   6.138   1.052   7.264  0.6634  1.6257 -1.4975
   42MOL    H8425586   6.188   1.059   7.041  1.0109 -1.0334 -1.3033
   42MOL    H8525587   6.344   0.992   7.060 -0.1055  0.9248  1.3188
   42MOL    H8625588   6.093   0.827   7.112  0.4758 -0.6595  0.6345
   42MOL    H8725589   6.245   0.764   7.077  0.0270 -0.1015 -2.2820
   42MOL    H8825590   6.052   0.881   6.872  0.0075 -0.0633 -1.5763
   42MOL    H8925591   6.228   0.882   6.857 -1.0396 -0.3163 -0.7641
   42MOL    H9025592   6.152   0.695   6.746  0.2767  0.0933  0.3662
   42MOL    H9125593   6.051   0.646   6.877 -1.1285  0.9616 -0.0756
   42MOL    H9225594   6.234   0.639   6.882 -0.1306 -0.1341  0.7766
   42MOL    H9325595   6.463   1.494   7.745 -2.9060  0.0715 -0.1829
   42MOL    H9425596   6.561   1.498   7.597  1.0251 -0.2334  2.8141
   42MOL    C9525597   6.491   1.693   7.678  0.2516  0.4929  0.1597
   42MOL    O9625598   6.475   1.761   7.556 -0.2981 -0.3431  0.3046
   42MOL    C9725599   6.426   1.893   7.574 -0.4411 -0.7916 -0.0798
   42MOL    C9825600   6.435   1.974   7.442 -0.1463 -0.1380 -0.0457
   42MOL    C9925601   6.354   1.902   7.332 -0.1380 -0.2573  0.7826
   42MOL   C10025602   6.331   1.981   7.197  0.1573 -0.1821 -0.4916
   42MOL   C10125603   6.237   1.902   7.093  1.1186  0.3063  0.2851
   42MOL   C10225604   6.185   1.977   6.969  0.7112 -0.5842  0.2082
   42MOL   C10325605   6.116   1.904   6.850 -0.4757  0.2737  0.4624
   42MOL   C10425606   6.208   1.823   6.758 -0.1419 -0.2395  0.5480
   42MOL   C10525607   6.632   1.731   7.717 -0.2670  0.4857  0.3338
   42MOL   H10625608   6.418   1.727   7.751 -1.6451  0.8344 -1.8157
   42MOL   H10725609   6.479   1.948   7.652 -0.8460  0.2087 -0.4966
   42MOL   H10825610   6.321   1.889   7.606  0.1137 -0.5989  1.8135
   42MOL   H10925611   6.539   1.989   7.412 -1.1045  1.9598 -2.5113
   42MOL   H11025612   6.393   2.069   7.474 -0.6102 -0.6828  0.9897
   42MOL   H11125613   6.392   1.801   7.312  0.6632  0.0679  0.6519
   42MOL   H11225614   6.253   1.891   7.372 -0.1838  1.6793  1.2461
   42MOL   H11325615   6.292   2.081   7.220 -0.9917 -0.7215 -0.0653
   42MOL   H11425616   6.424   1.991   7.140  0.2091  0.2051 -0.3479
   42MOL   H11525617   6.282   1.808   7.060  1.2477 -0.0230  1.3687
   42MOL   H11625618   6.157   1.858   7.153 -0.3534  2.3985 -0.1214
   42MOL   H11725619   6.260   2.045   6.930  1.6048 -1.5164  0.3009
   42MOL   H11825620   6.110   2.046   7.009 -0.2477 -2.1999  1.2830
   42MOL   H11925621   6.039   1.836   6.886 -0.6372 -0.0820 -0.5517
   42MOL   H12025622   6.072   1.979   6.785  1.8695  0.6410 -0.7650
   42MOL   H12125623   6.276   1.888   6.703 -0.1598 -0.6591  0.0210
   42MOL   H12225624   6.153   1.768   6.681 -0.2607 -0.5696  0.8694
   42MOL   H12325625   6.271   1.751   6.810  1.4473  0.9248  0.2911
   42MOL   H12425626   6.704   1.727   7.635  0.2952  1.0996  0.7971
   42MOL   H12525627   6.629   1.833   7.754 -1.3082  0.9290 -0.9321
   42MOL   C12625628   6.684   1.657   0.067 -0.3732  0.0781 -0.4591
   42MOL   O12725629   6.599   1.682   0.177 -0.0129 -0.1211  0.4315
   42MOL   C12825630   6.577   1.567   0.256  0.3178  0.8014 -0.1279
   42MOL   C12925631   6.482   1.610   0.379  0.1825 -0.6262  0.3645
   42MOL   C13025632   6.341   1.653   0.331  0.0305  0.0753 -0.5652
   42MOL   C13125633   6.254   1.708   0.447 -0.0502 -0.3284  0.1505
   42MOL   C13225634   6.106   1.707   0.409  0.3928  0.5167 -0.2438
   42MOL   C13325635   6.005   1.768   0.516  0.1329  0.8612 -0.6339
   42MOL   C13425636   6.025   1.721   0.667  0.8264 -0.0077  0.1059
   42MOL   C13525637   5.906   1.765   0.751 -0.2305  0.2074 -0.2773
   42MOL   C13625638   6.823   1.693   0.118  0.2345 -0.1868  0.5700
   42MOL   H13725639   6.699   1.551   0.047  1.2006  0.1944  0.0652
   42MOL   H13825640   6.673   1.540   0.300  0.8962 -0.0176 -1.8619
   42MOL   H13925641   6.528   1.486   0.202  1.7627  0.7035 -1.2964
   42MOL   H14025642   6.519   1.690   0.443 -0.8495  0.7143 -0.6839
   42MOL   H14125643   6.473   1.520   0.440 -2.2167  0.0035  0.9843
   42MOL   H14225644   6.343   1.729   0.253  0.5468  1.7312  1.0077
   42MOL   H14325645   6.303   1.562   0.285  1.8412 -1.3796  0.7710
   42MOL   H14425646   6.263   1.659   0.543 -1.5323 -0.2351  0.3494
   42MOL   H14525647   6.291   1.806   0.478 -0.9326  0.0734 -0.0432
   42MOL   H14625648   6.092   1.758   0.314 -3.3506 -0.0617 -0.0915
   42MOL   H14725649   6.080   1.602   0.393  3.7024 -0.2931 -0.5832
   42MOL   H14825650   5.900   1.756   0.491 -0.3432 -0.0277  1.7035
   42MOL   H14925651   6.006   1.877   0.511 -0.2930  0.8549 -0.9000
   42MOL   H15025652   6.042   1.614   0.680 -1.8036 -0.7444 -2.0514
   42MOL   H15125653   6.116   1.762   0.710  0.9437  0.6379 -0.7514
   42MOL   H15225654   5.814   1.728   0.706  0.3299 -1.0521 -0.4120
   42MOL   H15325655   5.898   1.873   0.755  0.2083  0.2369 -0.1566
   42MOL   H15425656   5.915   1.716   0.847 -0.9560 -0.4054 -0.5163
   42MOL   H15525657   6.817   1.795   0.156 -1.4327  0.0481 -0.2881
   42MOL   H15625658   6.855   1.633   0.203 -1.5510  1.2433  2.2984
   42MOL   C15725659   6.925   1.692   0.004 -0.3870  0.3638 -0.2784
   42MOL   O15825660   6.946   1.558   7.741 -0.3142  0.5499  0.0466
   42MOL   C15925661   7.002   1.529   7.613 -0.5491 -0.0842  1.2348
   42MOL   C16025662   7.000   1.377   7.610 -0.3853 -0.1244  0.0153
   42MOL   C16125663   6.879   1.327   7.533 -0.1183  0.1495  0.5619
   42MOL   C16225664   6.868   1.177   7.552  0.0547  0.0377 -0.2634
   42MOL   C16325665   6.740   1.113   7.489 -0.6642 -0.4580  0.2975
   42MOL   C16425666   6.758   0.958   7.484 -0.2607  0.0360  1.5134
   42MOL   C16525667   6.641   0.892   7.421  0.8359 -0.4170  0.2818
   42MOL   C16625668   6.650   0.739   7.396  0.0826 -0.1338  0.0353
   42MOL   C16725669   7.059   1.755   0.034  0.4565  0.1456  0.3393
   42MOL   H16825670   6.895   1.739   7.684  0.8709 -0.2605 -1.0041
   42MOL   H16925671   7.102   1.572   7.618 -1.6926  2.8480  0.0356
   42MOL   H17025672   6.942   1.569   7.531 -0.1069 -0.2916  0.8097
   42MOL   H17125673   7.015   1.335   7.710 -1.3755 -1.0533 -0.2216
   42MOL   H17225674   7.092   1.345   7.561 -0.1503  0.6071 -0.0297
   42MOL   H17325675   6.795   1.378   7.580  0.1329  0.2894  0.8591
   42MOL   H17425676   6.882   1.346   7.426 -1.5363  2.7764  0.9460
   42MOL   H17525677   6.955   1.134   7.502 -0.1166  1.8254 -2.1961
   42MOL   H17625678   6.880   1.152   7.657  0.6591 -1.2247 -0.6287
   42MOL   H17725679   6.655   1.132   7.555 -0.5236  1.7823 -0.1443
   42MOL   H17825680   6.699   1.163   7.402 -1.9188 -1.4698  0.2828
   42MOL   H17925681   6.757   0.919   7.586 -0.5853  0.3270  1.6193
   42MOL   H18025682   6.855   0.927   7.443 -1.2555 -1.1079 -0.0174
   42MOL   H18125683   6.549   0.905   7.477  1.8205  1.5906  1.4702
   42MOL   H18225684   6.627   0.945   7.327 -1.4573  0.0974  0.8890
   42MOL   H18325685   6.739   0.715   7.336 -0.1987  1.1815 -0.9322
   42MOL   H18425686   6.562   0.708   7.341  1.4446 -1.5117 -1.4357
   42MOL   H18525687   6.658   0.672   7.481  1.2364  0.1181  0.1408
   42MOL   H18625688   7.118   1.705   0.110 -1.1233  0.3699  1.7344
   42MOL   H18725689   7.112   1.762   7.713  1.2135  1.5510  0.8585
   42MOL   C18825690   7.053   1.904   0.068 -0.1311 -0.2109  0.4479
   42MOL   O18925691   6.981   1.968   7.739 -0.7759  0.2716  0.4853
   42MOL   C19025692   6.898   2.070   0.007  0.8549  0.2862 -1.0153
   42MOL   C19125693   6.834   2.136   7.663 -0.4623  0.5193  0.1513
   42MOL   C19225694   6.710   2.218   7.699 -0.3152 -0.0334 -0.2252
   42MOL   C19325695   6.646   2.308   7.596 -0.2613 -1.0829  0.2130
   42MOL   C19425696   6.530   2.396   7.636  0.3061 -0.6263  0.8991
   42MOL   C19525697   6.400   2.315   7.660  0.2572 -0.1596  0.0813
   42MOL   C19625698   6.286   2.414   7.701  0.1258 -0.5194 -0.3093
   42MOL   C19725699   6.165   2.332   7.750 -0.0959 -0.6404  0.9010
   42MOL   C19825700   7.189   1.972   0.086  0.3431 -0.2792 -0.3570
   42MOL   H19925701   7.001   1.911   0.164 -0.7381  1.1703  0.0250
   42MOL   H20025702   6.832   2.029   0.083  0.2000  0.4451 -1.4900
   42MOL   H20125703   6.961   2.148   0.048  0.1347  1.6416 -2.4543
   42MOL   H20225704   6.802   2.050   7.605 -0.9141  0.5131  0.4122
   42MOL   H20325705   6.895   2.190   7.590  1.8723  1.5592  2.7754
   42MOL   H20425706   6.630   2.150   7.729 -1.1675 -0.8967 -4.2085
   42MOL   H20525707   6.731   2.270   0.019 -0.8873  1.3266 -0.8424
   42MOL   H20625708   6.733   2.360   7.555 -0.5121 -0.0355  0.9817
   42MOL   H20725709   6.621   2.229   7.526  0.6500 -0.6896 -0.5693
   42MOL   H20825710   6.551   2.442   7.733 -2.3065 -1.5657  1.9680
   42MOL   H20925711   6.519   2.476   7.562 -0.1007  0.0163  1.6504
   42MOL   H21025712   6.419   2.240   7.737 -2.2961 -0.1565  0.7689
   42MOL   H21125713   6.375   2.269   7.564  0.7362  0.7644 -0.4906
   42MOL   H21225714   6.325   2.488   7.772  2.0310 -1.2831 -0.5426
   42MOL   H21325715   6.253   2.480   7.621  2.5587  0.8235 -0.2599
   42MOL   H21425716   6.120   2.258   7.684  0.1678  0.5848 -0.6795
   42MOL   H21525717   6.090   2.410   7.766 -0.4980 -1.5006  3.5205
   42MOL   H21625718   6.190   2.298   0.076  0.2591 -1.7416  0.4370
   42MOL   H21725719   7.260   1.921   0.021  0.2041 -1.9366  0.7343
   42MOL   H21825720   7.180   2.077   0.058 -1.6782  0.4068  2.6187
   42MOL   C21925721   7.236   1.971   0.237  0.3307  0.2400 -0.3003
   42MOL   O22025722   7.351   2.050   0.242  0.2900 -0.6107 -0.1254
   42MOL   C22125723   7.333   2.183   0.287 -0.5888  0.1319  0.6448
   42MOL   C22225724   7.458   2.267   0.270 -0.8270 -0.0790 -0.1333
   42MOL   C22325725   7.485   2.296   0.120 -0.5863 -0.0410  0.1482
   42MOL   C22425726   7.621   2.354   0.094  0.4753 -0.3933  0.9351
   42MOL   C22525727   7.678   2.358   7.726  1.4639 -0.7015 -0.6244
   42MOL   C22625728   7.616   2.463   7.639  0.2322  0.1078  0.4721
   42MOL   C22725729   7.652   2.448   7.485 -0.3061  0.5582  0.2420
   42MOL   C22825730   7.582   2.550   7.398 -0.1537 -0.5939 -0.1639
   42MOL   C22925731   7.272   1.839   0.303 -0.3056  0.1230  0.8415
   42MOL   H23025732   7.153   2.011   0.295  0.8318  1.1780 -0.2035
   42MOL   H23125733   7.304   2.169   0.391 -0.3444  1.3931  0.8891
   42MOL   H23225734   7.249   2.234   0.239 -0.6287 -0.6418 -0.1265
   42MOL   H23325735   7.545   2.226   0.321 -1.0778 -0.6418 -0.1609
   42MOL   H23425736   7.438   2.363   0.318 -0.0226 -0.6727  1.4195
   42MOL   H23525737   7.480   2.199   0.071 -1.3127 -0.0929  0.3213
   42MOL   H23625738   7.413   2.368   0.080  0.2662  0.0256 -1.2847
   42MOL   H23725739   7.623   2.453   0.139 -0.5841  0.4257 -0.7924
   42MOL   H23825740   7.698   2.294   0.143  0.2605 -1.2998  0.1698
   42MOL   H23925741   0.009   2.383   7.727  1.0946  0.8829  0.8149
   42MOL   H24025742   7.677   2.257   7.684  0.8420 -1.0363  0.1588
   42MOL   H24125743   7.633   2.568   7.660  0.5598 -0.2348  1.9266
   42MOL   H24225744   7.509   2.458   7.655  0.5512  1.3960  3.3543
   42MOL   H24325745   7.757   2.477   7.486 -0.1018 -0.1765  0.0945
   42MOL   H24425746   7.636   2.351   7.438  1.0862  0.2175  0.4550
   42MOL   H24525747   7.477   2.553   7.426  0.1415 -1.7707  1.1426
   42MOL   H24625748   7.593   2.524   7.292  0.9546  0.2217 -0.2590
   42MOL   H24725749   7.615   2.652   7.418 -2.4822  0.4073 -1.3319
   42MOL   H24825750   7.190   1.767   0.298 -1.4821  1.4456  0.6850
   42MOL   H24925751   7.348   1.809   0.231 -1.7280  0.2080 -0.7330
   42MOL   C25025752   7.310   1.852   0.449 -0.4773  0.4753 -0.0990
   42MOL   O25125753   7.366   1.739   0.508  0.0401  0.2616 -0.3651
   42MOL   C25225754   7.476   1.672   0.442  0.1755 -0.0946 -0.7057
   42MOL   C25325755   7.542   1.576   0.537 -0.2134 -0.2858  0.0368
   42MOL   C25425756   7.443   1.473   0.597  0.5003  0.2841 -0.3455
   42MOL   C25525757   7.507   1.380   0.695  0.1531  0.2607 -0.3819
   42MOL   C25625758   7.606   1.282   0.631 -0.5884 -0.0151  0.1362
   42MOL   C25725759   7.626   1.152   0.717  0.3771  0.1949 -0.2261
   42MOL   C25825760   7.688   1.027   0.645 -0.0505 -0.1984  0.6164
   42MOL   C25925761   0.035   1.057   0.554 -0.5847  0.4479  0.4497
   42MOL   C26025762   7.199   1.897   0.533  0.6603 -0.2026 -0.2548
   42MOL   H26125763   7.389   1.928   0.446 -0.4358  0.3803 -1.4843
   42MOL   H26225764   7.553   1.747   0.422 -0.0514 -0.3086 -2.4694
   42MOL   H26325765   7.448   1.641   0.341  0.6697  2.9855 -1.8463
   42MOL   H26425766   7.579   1.631   0.623 -0.3604 -1.5564  0.9370
   42MOL   H26525767   7.635   1.530   0.504  0.0213  0.7993 -0.8247
   42MOL   H26625768   7.365   1.519   0.657  1.4378  1.2531  0.1517
   42MOL   H26725769   7.385   1.429   0.516 -1.1046  0.3876  0.7278
   42MOL   H26825770   7.551   1.443   0.772 -0.5859 -0.3336  0.5300
   42MOL   H26925771   7.439   1.317   0.752  0.6279  1.2564  1.2874
   42MOL   H27025772   7.587   1.251   0.528  0.2439 -0.0291 -0.0159
   42MOL   H27125773   7.705   1.326   0.621 -0.6027 -0.2197 -1.0258
   42MOL   H27225774   7.532   1.113   0.755  0.7867 -0.4377  0.1484
   42MOL   H27325775   7.698   1.187   0.791  0.5639 -2.3266  0.8240
   42MOL   H27425776   7.713   0.946   0.713 -1.9189 -1.0227  0.3543
   42MOL   H27525777   7.616   0.979   0.579  1.0556 -2.3948  0.9429
   42MOL   H27625778   0.080   0.967   0.512 -1.0447 -0.1113  1.1414
   42MOL   H27725779   0.113   1.105   0.612 -0.3629 -2.7536  2.9529
   42MOL   H27825780   0.008   1.121   0.470 -3.0618 -1.2606 -0.1166
   42MOL   H27925781   7.246   1.960   0.608  2.3741  0.5729 -1.9411
   42MOL   H28025782   7.135   1.974   0.489 -0.5700 -0.2878  1.3335
   42MOL   C28125783   7.110   1.793   0.592  0.3098  0.9570 -0.3219
   42MOL   O28225784   7.050   1.718   0.487 -0.2490 -0.0256 -0.2133
   42MOL   C28325785   7.006   1.589   0.527  0.3223  0.3165  0.0790
   42MOL   C28425786   7.028   1.475   0.420  0.4457 -0.3442 -0.1970
   42MOL   C28525787   6.914   1.374   0.417 -1.6774 -0.5965 -0.7033
   42MOL   C28625788   6.934   1.274   0.304 -0.0880  0.6059 -0.2963
   42MOL   C28725789   6.837   1.157   0.296 -0.7751  0.1641 -0.1890
   42MOL   C28825790   6.685   1.192   0.301 -0.3916  0.1066  0.1174
   42MOL   C28925791   6.600   1.061   0.302 -1.0394 -0.2978  0.4768
   42MOL   C29025792   6.596   0.975   0.422 -0.0760  0.6673  0.2417
   42MOL   C29125793   7.020   1.845   0.703 -0.6749 -0.2303  0.2934
   42MOL   H29225794   7.182   1.724   0.636  0.4270 -0.1696 -2.2395
   42MOL   H29325795   6.900   1.599   0.550  0.3633 -2.9133  2.0273
   42MOL   H29425796   7.071   1.558   0.609 -1.7503  1.7210  2.3331
   42MOL   H29525797   7.126   1.430   0.434 -1.1322 -3.4233  1.4121
   42MOL   H29625798   7.037   1.527   0.325  0.4673  1.9251  1.0143
   42MOL   H29725799   6.932   1.318   0.509 -1.3071 -1.3828 -1.2495
   42MOL   H29825800   6.818   1.424   0.411 -1.6324 -0.3523  0.4085
   42MOL   H29925801   6.933   1.330   0.211 -1.6830  0.9801 -0.0727
   42MOL   H30025802   7.032   1.229   0.318 -1.0464 -1.1690  0.9456
   42MOL   H30125803   6.863   1.112   0.200  0.2086  0.1020  0.1037
   42MOL   H30225804   6.854   1.088   0.378 -0.2422 -0.6383 -0.9654
   42MOL   H30325805   6.653   1.257   0.220 -0.1590 -1.1014 -0.9615
   42MOL   H30425806   6.658   1.249   0.390  0.5959 -0.4500  0.7965
   42MOL   H30525807   6.498   1.099   0.288 -0.3160  0.3896 -3.6079
   42MOL   H30625808   6.618   0.996   0.216 -1.6903 -0.4753  0.4704
   42MOL   H30725809   6.515   1.010   0.486 -1.4843  0.1639 -1.2631
   42MOL   H30825810   6.693   0.970   0.472 -0.9146  0.9398  1.9260
   42MOL   H30925811   6.561   0.876   0.392  1.2344 -0.3118  1.8139
   42MOL   H31025812   6.993   1.755   0.759 -1.4675 -1.3897 -1.8939
   42MOL   H31125813   7.074   1.914   0.769  0.4110  0.3770 -1.2173
   42MOL   C31225814   6.884   1.907   0.662  0.0870 -1.1446  0.3812
   42MOL   O31325815   6.898   2.029   0.586 -0.7130  0.5561 -0.4248
   42MOL   C31425816   6.840   2.023   0.455 -0.0958 -0.3769 -1.0548
   42MOL   C31525817   6.694   2.029   0.448 -1.0460  0.0682  0.0111
   42MOL   C31625818   6.622   2.050   0.315 -0.0654 -0.4374 -0.1405
   42MOL   C31725819   6.475   2.045   0.322  0.3125  0.0618  0.6056
   42MOL   C31825820   6.413   2.008   0.182  0.1260  0.3797  0.1136
   42MOL   C31925821   6.263   2.025   0.181 -0.2119  1.0055  0.4685
   42MOL   C32025822   6.172   1.983   0.055  0.3557  0.0961 -0.9297
   42MOL   C32125823   6.021   1.998   0.083  0.4085 -0.2000  0.1687
   42MOL   C32225824   6.792   1.931   0.785 -0.2125 -0.2933  0.2576
   42MOL   H32325825   6.845   1.828   0.597 -1.5593 -0.2063  0.2100
   42MOL   H32425826   6.870   1.929   0.409  0.5691  0.2173 -1.8442
   42MOL   H32525827   6.884   2.106   0.400  0.3946  1.0261  1.3909
   42MOL   H32625828   6.648   2.097   0.520 -2.3236  0.8838 -1.5434
   42MOL   H32725829   6.658   1.936   0.491 -1.2089  0.4151  0.6310
   42MOL   H32825830   6.655   2.143   0.269  1.5930 -1.4251 -1.0164
   42MOL   H32925831   6.650   1.968   0.249 -1.6596 -0.0377 -1.3301
   42MOL   H33025832   6.428   1.995   0.406 -1.8643  0.5847 -0.2864
   42MOL   H33125833   6.454   2.148   0.349 -0.7829 -0.1136  0.4234
   42MOL   H33225834   6.471   2.054   0.102 -0.4286  0.0688 -0.4759
   42MOL   H33325835   6.417   1.900   0.165 -0.5192  0.0854  1.7135
   42MOL   H33425836   6.240   2.130   0.200 -0.7856  0.4248  3.2895
   42MOL   H33525837   6.222   1.985   0.273 -1.0923 -2.4608 -1.3550
   42MOL   H33625838   6.211   2.032   7.740 -0.1099 -0.5793 -1.5084
   42MOL   H33725839   6.169   1.875   0.038 -0.3616 -0.0564  0.0945
   42MOL   H33825840   6.005   1.937   0.172 -1.3379 -1.5972 -1.0571
   42MOL   H33925841   5.966   1.958   7.772 -2.0373  0.9734  1.1689
   42MOL   H34025842   5.987   2.099   0.103 -0.5671 -0.4618 -0.1348
   42MOL   H34125843   6.691   1.939   0.744  0.0069 -0.0446 -0.2303
   42MOL   H34225844   6.805   1.848   0.855  1.5020  1.9007  2.6498
   42MOL   C34325845   6.835   2.057   0.867 -0.2422  0.5257 -0.3655
   42MOL   O34425846   6.780   2.045   0.999  0.8260 -0.0347  0.2455
   42MOL   C34525847   6.865   1.973   1.088  0.1196 -0.2587  0.0197
   42MOL   C34625848   6.841   2.047   1.224 -0.0442  0.2882  0.2637
   42MOL   C34725849   6.919   1.974   1.336  0.5966  0.5047 -0.4069
   42MOL   C34825850   6.913   2.043   1.470 -0.2151 -0.2526 -0.2385
   42MOL   C34925851   6.949   1.958   1.591 -0.0869  0.3771  0.5132
   42MOL   C35025852   6.997   2.034   1.707  0.7024  0.0803  0.1429
   42MOL   C35125853   7.010   1.939   1.828  0.4639 -0.3228  0.1132
   42MOL   C35225854   7.141   1.854   1.826  0.7819  0.0405 -0.5496
   42MOL   C35325855   6.778   2.190   0.816 -0.6252  0.3825  0.8679
   42MOL   H35425856   6.944   2.061   0.871 -0.1351 -0.6982 -1.7484
   42MOL   H35525857   6.971   1.995   1.073  0.3578  0.2451  2.2226
   42MOL   H35625858   6.864   1.864   1.092  0.0776 -0.2038  2.8892
   42MOL   H35725859   6.735   2.040   1.248 -0.2948  1.9707 -0.3382
   42MOL   H35825860   6.873   2.151   1.227 -1.4544  0.7002  1.7854
   42MOL   H35925861   6.861   1.882   1.340  0.9358  0.3609  1.9292
   42MOL   H36025862   7.021   1.946   1.309  0.3716 -2.8287  1.8754
   42MOL   H36125863   6.960   2.141   1.482  0.1702 -0.5210  0.4901
   42MOL   H36225864   6.807   2.065   1.485 -0.3961 -1.7972  0.9584
   42MOL   H36325865   6.868   1.891   1.620  0.8727 -0.1292  2.0997
   42MOL   H36425866   7.038   1.905   1.556 -1.2241 -0.8419 -0.5493
   42MOL   H36525867   6.915   2.101   1.731  1.2482  0.2661  1.5589
   42MOL   H36625868   7.095   2.083   1.710  0.7936 -0.1275  0.8057
   42MOL   H36725869   7.027   1.999   1.918  1.1762  1.2172 -1.0302
   42MOL   H36825870   6.916   1.884   1.838 -0.1756  0.9453  1.3945
   42MOL   H36925871   7.156   1.808   1.923 -1.2151  0.9444  0.2314
   42MOL   H37025872   7.228   1.918   1.812  0.7074  0.0717 -0.8750
   42MOL   H37125873   7.144   1.774   1.752  0.3740 -1.8414  1.4280
   42MOL   H37225874   6.778   2.190   0.707 -1.4952 -0.2378  0.8636
   42MOL   H37325875   6.675   2.208   0.846 -1.2449 -2.1954  0.3552
   42MOL   C37425876   6.860   2.314   0.869 -0.6128 -0.8129 -0.2809
   42MOL   O37525877   6.790   2.434   0.848 -0.0326 -0.5254 -0.0161
   42MOL   C37625878   6.681   2.450   0.932 -0.0011  0.6076 -0.2649
   42MOL   C37725879   6.634   2.603   0.920  1.1390  0.2354 -0.1217
   42MOL   C37825880   6.734   2.704   0.971  0.4016  0.2681 -0.1806
   42MOL   C37925881   6.698   2.851   0.932 -0.0694 -0.7104  0.3511
   42MOL   C38025882   6.800   2.947   0.999  0.2480 -0.2730 -0.8028
   42MOL   C38125883   6.761   3.098   0.983 -0.3972  0.4497  0.6167
   42MOL   C38225884   6.859   3.200   1.030 -0.8091 -0.2208  0.5368
   42MOL   C38325885   6.814   3.345   1.041 -0.0434 -0.5481  0.2111
   42MOL   C38425886   6.998   2.335   0.791 -0.2096  0.1286  0.5278
   42MOL   H38525887   6.886   2.297   0.973 -1.3702  0.0678  0.0577
   42MOL   H38625888   6.698   2.431   1.038 -0.6625 -0.3697 -0.3275
   42MOL   H38725889   6.602   2.385   0.894  0.4542  0.2925 -0.6800
   42MOL   H38825890   6.551   2.611   0.991  1.1459  0.9269 -0.1896
   42MOL   H38925891   6.595   2.630   0.822 -0.3269 -1.5527 -0.0697
   42MOL   H39025892   6.734   2.699   1.080  0.3412  0.8964 -0.1470
   42MOL   H39125893   6.831   2.680   0.929  0.6371 -2.4189  1.7650
   42MOL   H39225894   6.701   2.863   0.824 -0.2561 -0.0554  0.4142
   42MOL   H39325895   6.595   2.876   0.954  0.4185 -0.1476  2.0753
   42MOL   H39425896   6.795   2.934   1.107  0.7597 -0.0466 -0.7499
   42MOL   H39525897   6.904   2.932   0.971  0.7763  0.2038  0.8370
   42MOL   H39625898   6.664   3.116   1.030 -0.1161  0.5243  1.1733
   42MOL   H39725899   6.745   3.127   0.879 -0.2517  0.8285  0.6981
   42MOL   H39825900   6.892   3.167   1.128  1.0772  2.1919  0.7484
   42MOL   H39925901   6.955   3.201   0.977 -0.3420  0.6169  1.3826
   42MOL   H40025902   6.739   3.339   1.119 -0.0574 -1.0977  0.1566
   42MOL   H40125903   6.773   3.396   0.954 -0.5574 -1.3771 -0.0415
   42MOL   H40225904   6.892   3.392   1.101 -0.2177 -1.0464  0.8211
   42MOL   H40325905   7.071   2.255   0.802 -2.1742 -2.1173 -1.8412
   42MOL   H40425906   6.965   2.320   0.688 -0.0994  1.5689  0.2803
   42MOL   C40525907   7.062   2.476   0.804  0.4011  0.2786 -0.0446
   42MOL   O40625908   7.178   2.478   0.724 -0.1760 -0.5977  0.6644
   42MOL   C40725909   7.150   2.492   0.581  0.4900 -0.6116 -0.6685
   42MOL   C40825910   7.276   2.560   0.514 -1.2190  0.3804 -0.0437
   42MOL   C40925911   7.252   2.605   0.370  0.4318  1.1119  0.5185
   42MOL   C41025912   7.359   2.702   0.310 -0.1663 -0.0140  0.1144
   42MOL   C41125913   7.329   2.752   0.169  0.0033 -0.1078  0.5053
   42MOL   C41225914   7.325   2.643   0.055  0.4175  0.1535  0.8626
   42MOL   C41325915   7.264   2.693   7.697  0.1896  0.0634 -0.3303
   42MOL   C41425916   7.217   2.581   7.604 -0.0199  0.2824  0.0777
   42MOL   C41525917   7.113   2.507   0.945 -0.0564 -0.0928 -0.7511
   42MOL   H41625918   7.004   2.565   0.777  0.5668  0.6398  0.7635
   42MOL   H41725919   7.062   2.554   0.566  1.4452  0.9849  0.0944
   42MOL   H41825920   7.134   2.400   0.526  3.9548 -0.3991 -2.2072
   42MOL   H41925921   7.370   2.504   0.519 -1.5254  0.0433  2.5077
   42MOL   H42025922   7.306   2.651   0.567  1.3004 -0.2338 -0.3167
   42MOL   H42125923   7.249   2.516   0.307 -0.2173  0.3681  1.5783
   42MOL   H42225924   7.149   2.641   0.377  0.0203  0.3408 -1.3643
   42MOL   H42325925   7.359   2.790   0.375 -0.1403  1.5203 -1.9379
   42MOL   H42425926   7.455   2.653   0.327  0.1423 -0.1351 -1.9118
   42MOL   H42525927   7.230   2.797   0.175  0.3361  0.5757  0.9913
   42MOL   H42625928   7.397   2.832   0.138 -1.4000  0.1463 -2.0923
   42MOL   H42725929   7.265   2.557   0.085 -1.4730  1.0530 -0.2548
   42MOL   H42825930   7.427   2.609   0.039 -0.8273 -3.0716 -0.6518
   42MOL   H42925931   7.177   2.748   7.732 -1.0267 -2.9938  1.6809
   42MOL   H43025932   7.342   2.748   7.645  1.4223 -1.1716  0.1673
   42MOL   H43125933   7.191   2.614   7.504 -1.6094  1.5166  0.8746
   42MOL   H43225934   7.124   2.534   7.636 -0.5630  1.2465 -0.0723
   42MOL   H43325935   7.298   2.510   7.588  1.5904  2.1259 -0.1494
   42MOL   H43425936   7.163   2.604   0.944  1.6435 -0.9574 -2.6356
   42MOL   H43525937   7.021   2.529   0.999  0.6539  0.6940  0.1578
   42MOL   C43625938   7.206   2.407   1.020  0.6287  0.3714  0.8670
   42MOL   O43725939   7.208   2.437   1.159 -0.0033 -0.6787 -0.0249
   42MOL   C43825940   7.098   2.380   1.225 -0.7047  0.1184  0.2845
   42MOL   C43925941   7.126   2.382   1.373  0.3072  0.2204  0.2659
   42MOL   C44025942   7.243   2.287   1.412  0.5016 -0.0048  0.7866
   42MOL   C44125943   7.283   2.285   1.557 -0.0552  0.0488  0.5349
   42MOL   C44225944   7.363   2.150   1.593 -0.0999 -0.1973  1.2807
   42MOL   C44325945   7.448   2.162   1.716 -0.1699 -0.0413  0.1066
   42MOL   C44425946   7.562   2.057   1.736  0.3833 -0.7864  0.1059
   42MOL   C44525947   7.505   1.920   1.764  0.6450  0.0821 -0.4713
   42MOL   C44625948   7.351   2.410   0.973  0.3531 -0.3619  0.0517
   42MOL   H44725949   7.172   2.304   1.005  3.7418 -1.0900  3.3467
   42MOL   H44825950   7.013   2.447   1.209 -0.4397  0.4927  0.4239
   42MOL   H44925951   7.086   2.279   1.188 -0.9255  0.4607 -0.5944
   42MOL   H45025952   7.031   2.351   1.416 -0.2975  2.2192  0.4224
   42MOL   H45125953   7.138   2.485   1.407  0.5911  0.2902 -0.0315
   42MOL   H45225954   7.222   2.185   1.381  0.5562  0.1292  0.3128
   42MOL   H45325955   7.328   2.313   1.350  0.3151 -0.1603  0.4664
   42MOL   H45425956   7.352   2.363   1.589 -0.8673  0.1266  2.1479
   42MOL   H45525957   7.191   2.279   1.614 -0.8118 -0.0164 -0.6817
   42MOL   H45625958   7.283   2.076   1.594 -2.9037  2.7023 -0.2868
   42MOL   H45725959   7.425   2.123   1.507  0.8858  1.7381  1.3517
   42MOL   H45825960   7.386   2.157   1.805  1.5167  0.3047  1.3278
   42MOL   H45925961   7.506   2.255   1.720 -0.2741 -0.0258  1.3968
   42MOL   H46025962   7.624   2.067   1.647 -2.0873 -0.1408 -1.5823
   42MOL   H46125963   7.621   2.105   1.814 -1.6646  0.5986  0.8571
   42MOL   H46225964   7.454   1.923   1.860  0.0656 -0.4474 -0.7549
   42MOL   H46325965   7.584   1.845   1.762  0.3878 -0.2390  0.8505
   42MOL   H46425966   7.428   1.884   1.695 -0.1602 -0.1258  0.5216
   42MOL   H46525967   7.362   2.396   0.866  1.8451 -3.7970  0.5941
   42MOL   H46625968   7.392   2.510   0.991 -1.2769  0.1747  0.8610
   42MOL   C46725969   7.443   2.300   1.035 -0.5234 -0.0132 -0.1634
   42MOL   O46825970   7.556   2.303   0.948 -0.1292 -0.2107  0.0179
   42MOL   C46925971   7.663   2.392   0.980 -0.0894  0.5230  0.4587
   42MOL   C47025972   7.750   2.397   0.853 -0.1433 -0.3033 -0.3572
   42MOL   C47125973   7.681   2.492   0.749 -0.2777  0.4567 -0.1949
   42MOL   C47225974   0.001   2.535   0.641 -0.6055 -0.6902 -0.6638
   42MOL   C47325975   0.035   2.424   0.541 -0.1174  0.0876  0.2403
   42MOL   C47425976   0.145   2.466   0.441  0.4220  0.2914 -1.0583
   42MOL   C47525977   0.185   2.354   0.340 -0.0606 -0.0821 -0.1844
   42MOL   C47625978   0.294   2.416   0.249  0.0910  0.1460 -0.0624
   42MOL   C47725979   7.378   2.159   1.045 -0.0872  0.0704  0.4447
   42MOL   H47825980   7.469   2.336   1.135 -0.5588 -1.4858  0.3846
   42MOL   H47925981   7.717   2.347   1.063  2.5438  1.7560 -0.5138
   42MOL   H48025982   7.620   2.489   1.004 -0.8548  0.3185 -0.0799
   42MOL   H48125983   7.769   2.297   0.814 -3.6596 -0.5684 -1.5364
   42MOL   H48225984   0.072   2.439   0.882  0.2568 -0.0813 -1.9438
   42MOL   H48325985   7.588   2.442   0.722 -0.3933  0.6584 -0.1703
   42MOL   H48425986   7.642   2.583   0.794  1.0287  0.7219  0.4433
   42MOL   H48525987   7.725   2.618   0.591 -0.9067 -1.6312 -1.9568
   42MOL   H48625988   0.087   2.579   0.691 -2.0811  1.7608 -0.2104
   42MOL   H48725989   0.069   2.331   0.587 -1.0576  0.2950  1.3585
   42MOL   H48825990   7.722   2.392   0.485  0.2423  0.9524 -0.8436
   42MOL   H48925991   0.235   2.470   0.503 -0.3752  2.8359 -0.0409
   42MOL   H49025992   0.138   2.568   0.403  1.8680  0.4212 -1.0015
   42MOL   H49125993   0.224   2.261   0.381 -2.6593 -1.6649 -1.2127
   42MOL   H49225994   0.098   2.323   0.283 -0.1275  4.3317 -2.7243
   42MOL   H49325995   0.392   2.432   0.294  0.0558  0.4450 -0.0926
   42MOL   H49425996   0.261   2.508   0.201 -3.1544 -0.7628  0.3057
   42MOL   H49525997   0.307   2.347   0.165 -0.2998  1.0612 -0.8757
   42MOL   H49625998   7.299   2.159   1.120 -0.0544  2.2227  0.5359
   42MOL   H49725999   7.339   2.139   0.946 -0.2471  0.7670  0.3619
   42MOL   C49826000   7.487   2.049   1.077 -0.0407 -0.8712  0.1792
   42MOL   O49926001   7.441   1.916   1.050 -0.3369  0.0789 -0.0751
   42MOL   C50026002   7.438   1.883   0.915 -0.0029  0.5794  0.8175
   42MOL   C50126003   7.380   1.747   0.896  0.1019 -0.1893  0.3804
   42MOL   C50226004   7.239   1.723   0.954  0.0206  0.4679  0.0892
   42MOL   C50326005   7.170   1.585   0.923 -0.0579  0.4485  0.3787
   42MOL   C50426006   7.036   1.567   0.995 -0.1237  0.0835  0.2787
   42MOL   C50526007   6.952   1.442   0.952  0.2403 -0.1959 -0.6545
   42MOL   C50626008   6.854   1.408   1.066 -0.1209 -0.3351  0.2091
   42MOL   C50726009   6.720   1.472   1.090  0.4989 -0.1648 -0.3863
   42MOL   C50826010   7.544   2.048   1.218 -0.4132  0.1455 -0.0977
   42MOL   H50926011   7.570   2.064   1.009 -0.7415 -0.4911 -0.6071
   42MOL   H51026012   7.537   1.888   0.869  0.0792 -2.4667  0.5682
   42MOL   H51126013   7.371   1.953   0.865  0.1053  0.3806  0.3897
   42MOL   H51226014   7.456   1.670   0.905 -1.4506 -1.5721  1.9513
   42MOL   H51326015   7.364   1.746   0.788  1.4706 -1.0770  0.1875
   42MOL   H51426016   7.255   1.728   1.062  0.5169  2.5859 -0.0603
   42MOL   H51526017   7.171   1.805   0.930  0.2578  1.2781  2.1322
   42MOL   H51626018   7.163   1.572   0.815  0.3296 -1.0110  0.5116
   42MOL   H51726019   7.247   1.513   0.954 -0.9466  0.1096  1.8434
   42MOL   H51826020   7.067   1.563   1.099 -0.5522  0.2416  0.4139
   42MOL   H51926021   6.975   1.657   0.994  2.0996  1.6389  0.2498
   42MOL   H52026022   7.029   1.366   0.939  2.7858  1.6204  3.0365
   42MOL   H52126023   6.904   1.459   0.856  3.0685  0.4031 -2.0118
   42MOL   H52226024   6.827   1.303   1.055  2.0129 -0.6662 -2.3654
   42MOL   H52326025   6.897   1.403   1.166 -0.8866 -2.9323  0.4503
   42MOL   H52426026   6.723   1.581   1.097 -1.4769 -0.1745  1.0396
   42MOL   H52526027   6.671   1.422   1.173 -0.2615 -0.5984 -1.0837
   42MOL   H52626028   6.657   1.457   1.002  0.2307  2.1038 -0.6252
   42MOL   H52726029   7.555   2.153   1.245  1.5232  0.1458 -0.7697
   42MOL   H52826030   7.469   1.995   1.276 -2.0777  0.8758 -1.5285
   42MOL   C52926031   7.687   1.976   1.232 -0.5111 -0.7362 -1.5082
   42MOL   O53026032   7.716   1.953   1.368  0.2768  0.5478 -0.2138
   42MOL   C53126033   0.024   1.837   1.389  0.0108 -0.2954 -0.3224
   42MOL   C53226034   0.088   1.856   1.521 -0.5650 -0.1549  0.4738
   42MOL   C53326035   0.136   1.728   1.593  0.0654  0.3274  0.1164
   42MOL   C53426036   0.184   1.747   1.738 -0.0187  0.3991 -0.3849
   42MOL   C53526037   0.227   1.613   1.811  0.9370  0.5839 -0.5818
   42MOL   C53626038   0.317   1.517   1.731  0.1681 -0.4975 -0.1257
   42MOL   C53726039   0.358   1.392   1.815 -0.1488  0.1818  0.1185
   42MOL   C53826040   0.239   1.295   1.823  0.2494 -0.9834  0.0429
   42MOL   C53926041   0.038   2.046   1.175 -0.8077  0.6388 -0.4367
   42MOL   H54026042   7.677   1.880   1.182 -0.8328 -1.1247 -0.7149
   42MOL   H54126043   7.743   1.744   1.373 -1.8605  0.6857  0.2373
   42MOL   H54226044   0.101   1.829   1.313  0.6774  0.3253  0.2830
   42MOL   H54326045   0.020   1.894   1.597 -0.1286 -2.7716  2.2368
   42MOL   H54426046   0.170   1.928   1.519 -2.5136  2.1008 -0.0070
   42MOL   H54526047   0.049   1.663   1.596  0.7274 -0.7341 -2.2612
   42MOL   H54626048   0.208   1.674   1.531  0.1810 -0.8953  1.3107
   42MOL   H54726049   0.266   1.818   1.735 -0.1224  0.4910 -1.0336
   42MOL   H54826050   0.107   1.792   1.801  0.1460  0.6734 -0.3800
   42MOL   H54926051   0.262   1.642   1.910 -0.5276  0.7873 -0.1056
   42MOL   H55026052   0.138   1.555   1.837  2.5425 -1.3824  0.6481
   42MOL   H55126053   0.398   1.580   1.695  1.1024 -0.2074  2.3520
   42MOL   H55226054   0.271   1.480   1.640  0.5411 -2.6428  0.5233
   42MOL   H55326055   0.442   1.343   1.766  0.0631  0.1816  0.4816
   42MOL   H55426056   0.394   1.423   1.914 -3.8796 -0.3339  1.7294
   42MOL   H55526057   0.191   1.280   1.726 -0.0286 -0.1276  0.0448
   42MOL   H55626058   0.159   1.341   1.881  1.5763  0.2561  0.9172
   42MOL   H55726059   0.273   1.201   1.866  0.2664 -1.7769 -1.6599
   42MOL   H55826060   0.126   1.984   1.160  0.5835  1.7309  2.6754
   42MOL   H55926061   7.774   2.096   1.086  1.5133  0.7112 -1.4236
   42MOL   C56026062   0.085   2.166   1.264 -0.4940 -0.5655  0.1034
   42MOL   O56126063   7.756   2.263   1.278 -0.1674 -0.4119  0.2036
   42MOL   C56226064   7.756   2.340   1.385  0.7298 -0.1928  0.2048
   42MOL   C56326065   7.684   2.471   1.362 -0.5568  0.3391  0.3738
   42MOL   C56426066   7.644   2.538   1.490 -0.7262 -0.0306  0.4310
   42MOL   C56526067   7.578   2.675   1.460 -1.2931 -0.1878  0.2973
   42MOL   C56626068   7.545   2.739   1.594  0.1884 -0.2044 -0.5193
   42MOL   C56726069   7.499   2.887   1.593 -0.4609 -0.0308 -0.5094
   42MOL   C56826070   7.358   2.920   1.537 -0.4201 -0.3687 -0.3824
   42MOL   C56926071   7.351   3.055   1.462  0.5012 -0.1789 -0.0192
   42MOL   C57026072   0.226   2.226   1.228 -0.2884 -0.4425  0.1946
   42MOL   H57126073   0.091   2.129   1.366 -1.6398  0.5103  0.5854
   42MOL   H57226074   0.083   2.356   1.422  1.6376 -2.6856 -1.0870
   42MOL   H57326075   7.703   2.282   1.460 -0.4347 -0.6970 -0.9884
   42MOL   H57426076   7.593   2.452   1.305 -0.7645  2.1883  0.0563
   42MOL   H57526077   7.744   2.542   1.305  1.6908 -0.2336  1.9495
   42MOL   H57626078   7.578   2.472   1.545  1.0498 -0.5920  1.9486
   42MOL   H57726079   7.733   2.558   1.550 -0.4899  1.1628 -0.3080
   42MOL   H57826080   7.644   2.741   1.403 -0.2162  0.5922  2.3743
   42MOL   H57926081   7.490   2.657   1.399 -0.9233 -2.1130  0.3110
   42MOL   H58026082   7.463   2.684   1.642 -2.0905  1.6531 -2.1554
   42MOL   H58126083   7.629   2.726   1.662 -0.5734 -4.0323 -0.1885
   42MOL   H58226084   7.568   2.936   1.524 -1.2503 -2.0838 -2.8421
   42MOL   H58326085   7.524   2.930   1.690 -1.7583 -0.7633  0.1705
   42MOL   H58426086   7.329   2.838   1.471  0.6168  1.0181 -2.6426
   42MOL   H58526087   7.281   2.917   1.613 -0.8643  0.0584 -0.8129
   42MOL   H58626088   7.395   3.132   1.524  0.5242 -0.2280  0.0260
   42MOL   H58726089   7.247   3.083   1.446  0.7561  0.9050  0.2366
   42MOL   H58826090   7.416   3.044   1.375  1.1872  0.2075  0.4425
   42MOL   H58926091   0.253   2.300   1.303 -3.0828  1.9924 -1.1189
   42MOL   H59026092   0.306   2.151   1.237  0.0179  0.0928  2.2139
   42MOL   C59126093   0.244   2.287   1.082 -0.1480 -0.1215  0.2901
   42MOL   O59226094   0.267   2.174   1.003 -1.1059  0.1524  0.2603
   42MOL   C59326095   0.312   2.188   0.870  0.8191 -0.1213 -0.6219
   42MOL   C59426096   0.317   2.044   0.806 -0.4743 -1.3325 -0.6017
   42MOL   C59526097   0.425   1.952   0.862  0.0719 -0.7215  0.3332
   42MOL   C59626098   0.434   1.829   0.776 -0.4794 -0.4597 -0.0072
   42MOL   C59726099   0.544   1.733   0.825  0.6885  0.4059 -0.7003
   42MOL   C59826100   0.546   1.601   0.756  0.4123 -0.5124  0.3097
   42MOL   C59926101   0.667   1.520   0.804  0.6073  0.5133 -0.4392
   42MOL   C60026102   0.670   1.490   0.949 -0.0080 -1.0613 -0.4991
   42MOL   C60126103   0.367   2.376   1.078  0.4738  0.6289 -0.0976
   42MOL   H60226104   0.161   2.350   1.048 -1.3653 -1.9868 -0.2439
   42MOL   H60326105   0.411   2.233   0.868 -0.1726  2.3327  1.9078
   42MOL   H60426106   0.255   2.262   0.815  0.0339 -0.6987 -0.5939
   42MOL   H60526107   0.325   2.060   0.699  0.9369  0.3578 -0.2806
   42MOL   H60626108   0.214   2.010   0.816 -1.0052 -0.3390 -2.4819
   42MOL   H60726109   0.521   2.003   0.868  0.8092 -2.1066  0.4708
   42MOL   H60826110   0.386   1.913   0.956 -0.8869 -1.8985 -0.5348
   42MOL   H60926111   0.340   1.775   0.766 -1.2687  0.8641  0.1111
   42MOL   H61026112   0.459   1.858   0.674  0.4359  2.7996  1.0725
   42MOL   H61126113   0.636   1.790   0.813  1.2619 -0.8411 -2.2566
   42MOL   H61226114   0.538   1.724   0.934  0.6964  1.9246 -0.5598
   42MOL   H61326115   0.547   1.622   0.649  0.1100 -1.2044  0.1743
   42MOL   H61426116   0.446   1.564   0.777  0.2344  0.0391  0.4363
   42MOL   H61526117   0.658   1.426   0.749 -0.1138  0.5225 -0.3469
   42MOL   H61626118   0.761   1.569   0.780  1.0946  0.1753  0.7444
   42MOL   H61726119   0.575   1.463   0.994  0.4066  1.7452  2.2097
   42MOL   H61826120   0.701   1.583   0.997  0.0489 -0.7354 -1.1600
   42MOL   H61926121   0.749   1.414   0.954  1.8364  0.6956 -1.7821
   42MOL   H62026122   0.365   2.460   1.147 -0.7735 -0.9131  1.7745
   42MOL   H62126123   0.451   2.309   1.094 -1.4085 -2.1532 -1.4322
   42MOL   H62226124   0.376   2.422   0.979  2.2286  0.9331  0.1845
   43MOL     C126125   6.020   1.350   1.606  0.0712 -0.5334  0.2185
   43MOL     O226126   5.885   1.307   1.630 -0.3841  0.5867 -0.2528
   43MOL     C326127   5.870   1.191   1.708 -0.1531 -0.1781 -0.2581
   43MOL     C426128   5.725   1.139   1.715  0.2984  0.4453  0.8838
   43MOL     C526129   5.702   1.066   1.580 -0.0254 -0.1195 -0.0761
   43MOL     C626130   5.559   1.014   1.552 -0.5567 -0.4350  0.3006
   43MOL     C726131   5.526   0.952   1.416 -0.0840 -0.4634 -0.1786
   43MOL     C826132   5.617   0.833   1.383  0.3926 -0.4844  0.3389
   43MOL     C926133   5.582   0.773   1.249 -0.4111  0.6279 -0.6304
   43MOL    C1026134   5.584   0.868   1.135 -0.7172  0.4999  0.3611
   43MOL    C1126135   6.058   1.318   1.463 -0.3783 -0.2509 -0.3231
   43MOL    H1226136   6.019   1.457   1.625  0.2704 -0.7760  1.7287
   43MOL    H1326137   5.883   1.220   1.812  1.1567 -1.4593 -0.0598
   43MOL    H1426138   5.946   1.115   1.693  2.2770  2.2304 -0.5895
   43MOL    H1526139   5.657   1.223   1.721  0.7216  1.1102 -2.3742
   43MOL    H1626140   5.714   1.066   1.795 -0.8604 -0.4921 -0.1000
   43MOL    H1726141   5.718   1.140   1.502  0.9562  0.3403  0.5450
   43MOL    H1826142   5.772   0.985   1.557 -1.7082 -1.9106  1.0078
   43MOL    H1926143   5.548   0.938   1.630 -3.7085  1.3007  1.6256
   43MOL    H2026144   5.478   1.085   1.567 -0.1233  0.0368  0.4316
   43MOL    H2126145   5.419   0.928   1.423 -0.0698  0.2099  3.4655
   43MOL    H2226146   5.548   1.031   1.345  1.5579 -0.5548  0.2258
   43MOL    H2326147   5.612   0.757   1.461 -0.8287 -2.2343 -1.4143
   43MOL    H2426148   5.723   0.859   1.374  0.2802 -0.2602 -0.3657
   43MOL    H2526149   5.655   0.694   1.229 -1.9324 -1.2780  1.0606
   43MOL    H2626150   5.490   0.718   1.271  0.6943 -0.4339  1.4365
   43MOL    H2726151   5.488   0.918   1.145 -1.4223 -0.8045  0.1810
   43MOL    H2826152   5.587   0.836   1.031 -2.4549 -0.4882  0.5935
   43MOL    H2926153   5.660   0.946   1.144 -0.6620  0.4239  0.5299
   43MOL    H3026154   6.087   1.215   1.441  0.6794 -0.0635  0.1853
   43MOL    H3126155   5.961   1.318   1.413 -0.7758  1.8906  0.3764
   43MOL    H3226156   6.088   1.310   1.682 -0.3551 -0.3528  0.7039
   43MOL    C3326157   6.150   1.418   1.391  0.1059  0.1382 -0.0906
   43MOL    O3426158   6.115   1.417   1.249 -0.3923  0.6765 -0.0297
   43MOL    C3526159   6.133   1.536   1.172 -0.2828 -0.0181 -0.8210
   43MOL    C3626160   6.118   1.496   1.028 -0.0753 -0.3454 -0.4130
   43MOL    C3726161   6.246   1.451   0.965 -0.6820  0.7197 -1.1904
   43MOL    C3826162   6.235   1.398   0.823 -0.0768  0.3590  0.9861
   43MOL    C3926163   6.361   1.405   0.741  0.2788  0.1592  0.4991
   43MOL    C4026164   6.465   1.289   0.768 -0.9737 -0.2862  0.0468
   43MOL    C4126165   6.561   1.283   0.649 -0.4274  0.3819 -0.6883
   43MOL    C4226166   6.678   1.198   0.691  0.4470  0.0710 -0.4226
   43MOL    C4326167   6.293   1.375   1.399 -0.2070  0.8942 -0.5386
   43MOL    H4426168   6.142   1.523   1.419  1.1122  0.2362 -0.1808
   43MOL    H4526169   6.223   1.593   1.193 -1.1540  0.9883  0.2740
   43MOL    H4626170   6.049   1.597   1.206 -0.6320 -1.4290  0.9337
   43MOL    H4726171   6.094   1.589   0.976  2.2322 -0.8400 -2.4219
   43MOL    H4826172   6.035   1.427   1.014 -1.1474  0.5132  1.4287
   43MOL    H4926173   6.317   1.534   0.965  0.8213 -0.5504 -1.4702
   43MOL    H5026174   6.296   1.370   1.018  0.0707  0.3981 -2.3791
   43MOL    H5126175   6.211   1.292   0.828  1.8788 -0.2063 -0.7741
   43MOL    H5226176   6.153   1.447   0.771  1.6317  0.6525 -1.4900
   43MOL    H5326177   6.325   1.399   0.638 -0.5100  0.3200  0.7594
   43MOL    H5426178   6.403   1.502   0.764 -2.0016  1.1504  0.6214
   43MOL    H5526179   6.422   1.190   0.786  0.4532 -1.2500 -1.7804
   43MOL    H5626180   6.526   1.311   0.855 -0.9806 -1.5157  0.3672
   43MOL    H5726181   6.510   1.246   0.560  0.9468 -0.6569 -1.0585
   43MOL    H5826182   6.589   1.386   0.631 -1.0983  0.7689  0.4193
   43MOL    H5926183   6.764   1.211   0.625  0.5429 -0.4233 -0.3986
   43MOL    H6026184   6.659   1.092   0.705 -0.2635  0.1760 -0.5934
   43MOL    H6126185   6.716   1.242   0.784  0.9925  1.8021 -1.4525
   43MOL    H6226186   6.292   1.269   1.376 -1.3634  1.3296 -2.6725
   43MOL    H6326187   6.350   1.430   1.324  0.4448 -0.0434 -0.7411
   43MOL    C6426188   6.355   1.399   1.540 -0.2583 -0.5999 -0.0760
   43MOL    O6526189   6.370   1.540   1.563 -0.3427 -0.5758 -0.4296
   43MOL    C6626190   6.380   1.586   1.696  0.1820  0.4053 -1.3286
   43MOL    C6726191   6.367   1.737   1.720 -0.0986  0.7169 -0.3415
   43MOL    C6826192   6.411   1.770   1.864 -0.6295 -0.0252 -0.0681
   43MOL    C6926193   6.557   1.802   1.893 -0.4290 -0.1897 -0.4381
   43MOL    C7026194   6.586   1.796   2.046 -1.3409 -0.5863 -0.4338
   43MOL    C7126195   6.735   1.784   2.087 -0.4503  0.6104 -0.0463
   43MOL    C7226196   6.756   1.821   2.229  0.5594  0.0603  0.1080
   43MOL    C7326197   6.898   1.814   2.277  0.2900  0.5931  0.3589
   43MOL    C7426198   6.490   1.333   1.540  0.1981  0.7880 -0.0086
   43MOL    H7526199   6.289   1.360   1.617  1.2303 -0.3660  1.3571
   43MOL    H7626200   6.487   1.577   1.718 -0.1067  1.2310  0.4965
   43MOL    H7726201   6.338   1.521   1.773 -0.9710  0.8152 -1.6178
   43MOL    H7826202   6.260   1.760   1.709  0.0896  1.0633 -1.5919
   43MOL    H7926203   6.419   1.790   1.640  2.0316 -0.1837  0.4370
   43MOL    H8026204   6.367   1.868   1.882  1.1997  0.5905  1.1973
   43MOL    H8126205   6.363   1.705   1.937  0.3322 -1.2631 -0.5078
   43MOL    H8226206   6.623   1.735   1.838 -0.2479 -0.5576  0.2193
   43MOL    H8326207   6.596   1.900   1.866  2.1504 -1.0739 -0.0289
   43MOL    H8426208   6.542   1.886   2.090  1.6984  0.2602  1.0313
   43MOL    H8526209   6.535   1.710   2.089  0.4028 -0.0275  2.9500
   43MOL    H8626210   6.796   1.853   2.029  0.9462  0.0483  0.7381
   43MOL    H8726211   6.775   1.689   2.051 -0.4178  0.8994 -0.7805
   43MOL    H8826212   6.725   1.924   2.247 -0.7638 -0.2443 -0.3813
   43MOL    H8926213   6.692   1.780   2.308  0.3101  0.1403 -0.0501
   43MOL    H9026214   6.921   1.708   2.268 -0.8217  0.2754  1.0625
   43MOL    H9126215   6.907   1.857   2.377  0.1190 -0.9261  1.0366
   43MOL    H9226216   6.965   1.872   2.215 -1.4921  0.7265 -1.5087
   43MOL    H9326217   6.551   1.373   1.459  0.8000  0.1725  0.1386
   43MOL    H9426218   6.549   1.360   1.627  0.9051 -4.6337  1.3986
   43MOL    C9526219   6.485   1.175   1.535  0.5766  0.0616  0.0513
   43MOL    O9626220   6.434   1.148   1.663  0.6705  0.3068  0.1732
   43MOL    C9726221   6.341   1.046   1.672  0.7099  0.3674  0.2847
   43MOL    C9826222   6.323   0.999   1.822 -0.0606  0.4991  0.3335
   43MOL    C9926223   6.225   1.071   1.917  0.0072  0.4460  0.3194
   43MOL   C10026224   6.253   1.222   1.943 -0.2899 -0.0893  0.0231
   43MOL   C10126225   6.147   1.293   2.028 -0.8383  0.0014 -0.1446
   43MOL   C10226226   6.158   1.238   2.171 -0.3315  0.3015  1.2903
   43MOL   C10326227   6.054   1.300   2.256  0.0582 -0.2379 -0.4218
   43MOL   C10426228   6.086   1.278   2.406 -0.2395  0.2781  0.8084
   43MOL   C10526229   6.627   1.126   1.527 -0.3639 -0.4325  0.0061
   43MOL   H10626230   6.415   1.129   1.466  2.3830 -2.2137 -0.3634
   43MOL   H10726231   6.370   0.954   1.622 -1.5368  1.1974 -2.7242
   43MOL   H10826232   6.244   1.067   1.627  0.3236  1.1224  1.4233
   43MOL   H10926233   6.421   1.014   1.868  0.5032  2.0817 -1.2996
   43MOL   H11026234   6.296   0.894   1.824  0.5233  0.3404  0.0797
   43MOL   H11126235   6.122   1.060   1.882  0.0856  3.0910 -0.9023
   43MOL   H11226236   6.234   1.012   2.008 -0.7284 -1.2878 -0.7004
   43MOL   H11326237   6.352   1.246   1.984 -0.3170 -0.0919  0.0898
   43MOL   H11426238   6.247   1.268   1.844 -1.1964 -1.2652 -0.4771
   43MOL   H11526239   6.165   1.400   2.023 -1.6002  0.2538  2.0084
   43MOL   H11626240   6.043   1.284   1.997 -1.1130  2.0809  0.0761
   43MOL   H11726241   6.258   1.259   2.210 -0.6791  1.6830  1.4641
   43MOL   H11826242   6.138   1.131   2.172  2.2806 -0.2233  0.8776
   43MOL   H11926243   6.038   1.407   2.247  1.8695  0.1592  0.9007
   43MOL   H12026244   5.958   1.250   2.239 -1.5413  2.7012 -0.4214
   43MOL   H12126245   6.092   1.172   2.429 -4.4521 -0.0161  0.8612
   43MOL   H12226246   5.997   1.317   2.456 -0.7334  0.6345 -0.3336
   43MOL   H12326247   6.167   1.339   2.447 -1.0426  2.1916 -0.3652
   43MOL   H12426248   6.682   1.172   1.609 -0.1660  2.9022 -1.9364
   43MOL   H12526249   6.629   1.020   1.555  2.0921 -0.2557  0.6415
   43MOL   C12626250   6.700   1.143   1.392 -1.1011  0.0187  1.0384
   43MOL   O12726251   6.649   1.058   1.289 -0.0950  0.5821 -0.5324
   43MOL   C12826252   6.572   1.128   1.192 -0.1125  0.1781 -0.2499
   43MOL   C12926253   6.514   1.049   1.084  0.2553  0.4764 -0.1272
   43MOL   C13026254   6.629   0.976   1.015  0.3753  0.1390  0.2135
   43MOL   C13126255   6.566   0.883   0.910  0.1967 -0.0653 -0.0487
   43MOL   C13226256   6.670   0.806   0.827  0.0852 -0.2064 -0.1628
   43MOL   C13326257   6.605   0.750   0.695 -0.0116 -0.6618 -0.3016
   43MOL   C13426258   6.493   0.642   0.726 -0.6342  0.7089  0.1734
   43MOL   C13526259   6.544   0.525   0.813  0.1963 -0.2244 -0.0899
   43MOL   C13626260   6.861   1.144   1.384 -0.1872 -0.4508  0.7707
   43MOL   H13726261   6.682   1.245   1.358  1.4684 -0.5559 -2.2763
   43MOL   H13826262   6.636   1.206   1.150 -0.8730  1.2883  0.6120
   43MOL   H13926263   6.496   1.184   1.246  0.2719 -1.4577  2.0886
   43MOL   H14026264   6.460   1.102   1.007  0.6357 -1.5337 -1.8381
   43MOL   H14126265   6.452   0.971   1.129  1.8316 -1.8657 -1.8780
   43MOL   H14226266   6.685   1.056   0.965 -0.6030  1.2924  0.9222
   43MOL   H14326267   6.700   0.929   1.083 -0.2813  0.1203  0.8915
   43MOL   H14426268   6.507   0.808   0.963 -0.7529 -0.0246 -1.0366
   43MOL   H14526269   6.495   0.935   0.846 -1.2860 -2.1668 -0.1907
   43MOL   H14626270   6.749   0.875   0.796  0.3674 -0.2459  0.4573
   43MOL   H14726271   6.721   0.734   0.891 -1.0043  0.3304  1.3239
   43MOL   H14826272   6.673   0.706   0.622  2.8434  2.9058  0.0968
   43MOL   H14926273   6.548   0.828   0.643  0.1293 -0.3114  0.0751
   43MOL   H15026274   6.418   0.689   0.790  0.8309  2.5945  0.5723
   43MOL   H15126275   6.449   0.611   0.632  1.2386  0.6087 -0.6933
   43MOL   H15226276   6.651   0.515   0.794 -0.1359 -3.2120 -0.6090
   43MOL   H15326277   6.482   0.438   0.788 -1.2548  0.2959  1.5891
   43MOL   H15426278   6.520   0.547   0.917 -0.7919 -1.1868 -0.1004
   43MOL   H15526279   6.884   1.200   1.293 -0.1520 -1.9377 -0.1495
   43MOL   H15626280   6.902   1.208   1.462 -0.5044 -1.8431  2.1063
   43MOL   C15726281   6.929   1.008   1.391  0.6377 -0.7864 -0.0595
   43MOL   O15826282   6.903   0.969   1.528  0.2779  0.3287 -0.0538
   43MOL   C15926283   6.917   0.837   1.568  0.4028  0.5103  0.7357
   43MOL   C16026284   6.897   0.830   1.716  0.0847 -0.2311  0.1432
   43MOL   C16126285   6.749   0.822   1.770 -0.0980  0.3616  0.1552
   43MOL   C16226286   6.729   0.815   1.922 -0.0891 -0.5652 -0.2767
   43MOL   C16326287   6.780   0.676   1.980 -0.6809 -0.1263  0.0020
   43MOL   C16426288   6.748   0.663   2.129  0.0812 -0.0206 -0.3081
   43MOL   C16526289   6.836   0.563   2.199  0.6228 -0.2412 -0.4444
   43MOL   C16626290   6.781   0.521   2.335 -0.0654  0.4010 -0.0503
   43MOL   C16726291   7.080   1.005   1.368  0.1241  0.5639 -0.1180
   43MOL   H16826292   6.871   0.937   1.333 -0.2359  0.1800 -0.4038
   43MOL   H16926293   7.013   0.792   1.544  0.1588  1.4700 -2.2561
   43MOL   H17026294   6.839   0.769   1.532 -0.7217  0.5649  3.0292
   43MOL   H17126295   6.957   0.909   1.761  0.4134  0.7544 -1.9442
   43MOL   H17226296   6.939   0.735   1.748 -0.8383 -0.5404  0.4394
   43MOL   H17326297   6.696   0.912   1.739 -0.6035 -0.0974 -0.3139
   43MOL   H17426298   6.701   0.748   1.707 -2.1572  1.4338  0.4424
   43MOL   H17526299   6.784   0.900   1.962 -1.7943  0.1150  0.6743
   43MOL   H17626300   6.625   0.832   1.951  0.1799  1.1081 -0.2707
   43MOL   H17726301   6.744   0.590   1.925 -0.2433 -0.6715  0.5661
   43MOL   H17826302   6.887   0.677   1.957 -0.6757  1.3163  0.0020
   43MOL   H17926303   6.645   0.632   2.147  0.2037  0.2324  0.8554
   43MOL   H18026304   6.750   0.759   2.181 -2.3338 -1.6272  2.9077
   43MOL   H18126305   6.859   0.482   2.130  1.3491 -1.2080  0.8983
   43MOL   H18226306   6.928   0.619   2.214 -0.1904  1.5489 -1.9697
   43MOL   H18326307   6.703   0.451   2.306  0.2689  0.1537 -0.3583
   43MOL   H18426308   6.749   0.607   2.393  1.6876  0.1619  1.3018
   43MOL   H18526309   6.856   0.476   2.400  0.8967  0.3165 -1.1947
   43MOL   H18626310   7.124   1.079   1.434  1.2046  0.8621 -1.1437
   43MOL   H18726311   7.118   0.909   1.405  1.7900  1.7476  1.3070
   43MOL   C18826312   7.131   1.029   1.231  0.0802 -0.6639  0.0513
   43MOL   O18926313   7.110   1.162   1.199  0.0738  0.1559  0.5055
   43MOL   C19026314   7.213   1.244   1.253 -0.8272  0.1554 -0.1230
   43MOL   C19126315   7.313   1.281   1.141 -0.1491  0.3148 -0.2689
   43MOL   C19226316   7.423   1.377   1.198 -0.8509 -0.0261  0.5994
   43MOL   C19326317   7.525   1.420   1.094 -0.0261 -0.1406 -0.4785
   43MOL   C19426318   7.633   1.514   1.146  0.5148  0.0376 -0.3242
   43MOL   C19526319   7.744   1.533   1.045  0.3490  0.0364  0.8027
   43MOL   C19626320   0.085   1.619   1.090 -0.5192  1.0444 -0.5681
   43MOL   C19726321   0.164   1.672   0.962 -0.2538 -0.1636  0.0259
   43MOL   C19826322   7.067   0.941   1.113 -0.0293  0.2304  0.9344
   43MOL   H19926323   7.237   1.007   1.233  0.4538  1.0194 -0.0015
   43MOL   H20026324   7.171   1.342   1.274 -1.4089  0.2993 -1.8941
   43MOL   H20126325   7.264   1.209   1.343 -0.1026 -0.4660 -0.7715
   43MOL   H20226326   7.266   1.327   1.054 -1.1820  1.5901  0.9390
   43MOL   H20326327   7.363   1.191   1.107 -1.6766  0.4309 -2.9849
   43MOL   H20426328   7.370   1.467   1.229 -0.6571  1.0792 -2.1016
   43MOL   H20526329   7.484   1.336   1.279 -0.6340 -0.3834  0.2573
   43MOL   H20626330   7.565   1.329   1.048  1.7339 -0.5785  1.8372
   43MOL   H20726331   7.476   1.470   1.011  0.4154  0.1425 -0.5722
   43MOL   H20826332   7.587   1.608   1.177  0.2820  0.0552 -0.7227
   43MOL   H20926333   7.680   1.463   1.231  1.9578 -1.4815 -1.9808
   43MOL   H21026334   7.693   1.583   0.962  2.4796 -1.9021 -1.7619
   43MOL   H21126335   7.771   1.444   0.988 -2.1501  0.0778 -0.5216
   43MOL   H21226336   0.048   1.701   1.151 -0.7960  0.7392 -0.3190
   43MOL   H21326337   0.147   1.566   1.163 -2.4969 -1.0957 -0.3673
   43MOL   H21426338   0.188   1.591   0.892  3.2724 -0.3824  1.3585
   43MOL   H21526339   0.246   1.734   0.999 -2.2564  1.8415  1.1966
   43MOL   H21626340   0.112   1.747   0.903  2.0722  0.6811 -1.0087
   43MOL   H21726341   7.071   0.838   1.148  0.1475 -0.0397  0.1240
   43MOL   H21826342   6.961   0.953   1.093  0.6363  1.1887 -2.3431
   43MOL   C21926343   7.151   0.956   0.985  0.1273  0.0662  0.0937
   43MOL   O22026344   7.059   0.955   0.880  0.2816  0.1641  0.2864
   43MOL   C22126345   6.987   1.070   0.834 -0.2458  0.2508 -0.2381
   43MOL   C22226346   7.070   1.147   0.739  0.6233  0.0672 -0.3579
   43MOL   C22326347   7.104   1.072   0.609 -0.6831 -0.1156  0.2138
   43MOL   C22426348   7.228   1.141   0.537  0.2944  0.2434 -1.1319
   43MOL   C22526349   7.254   1.076   0.402 -0.3445 -0.7780  0.1490
   43MOL   C22626350   7.373   1.128   0.323  0.8200 -0.4568  0.0823
   43MOL   C22726351   7.391   1.056   0.181 -0.9535  0.5943  0.2052
   43MOL   C22826352   7.510   1.107   0.100  0.4988 -0.4413  0.4291
   43MOL   C22926353   7.251   0.842   0.945 -0.1539  0.2300 -0.2407
   43MOL   H23026354   7.189   1.059   0.982  0.2236  0.0068 -1.0018
   43MOL   H23126355   6.951   1.131   0.917 -0.0290 -1.1656  0.9253
   43MOL   H23226356   6.902   1.020   0.789  0.2226 -0.4269 -0.3761
   43MOL   H23326357   7.156   1.196   0.784  0.6475 -0.9610  0.7434
   43MOL   H23426358   7.004   1.224   0.700  1.7702  0.8820 -0.7128
   43MOL   H23526359   7.111   0.964   0.619  3.3960  0.1059  0.9943
   43MOL   H23626360   7.020   1.073   0.540  0.1836  1.8906 -0.8760
   43MOL   H23726361   7.224   1.250   0.529 -0.7916  0.3429  0.4805
   43MOL   H23826362   7.320   1.143   0.595  0.1223  0.4283 -0.8653
   43MOL   H23926363   7.273   0.971   0.425 -1.1494 -0.7884  0.8197
   43MOL   H24026364   7.164   1.097   0.345 -1.8734 -0.4608  2.5686
   43MOL   H24126365   7.457   1.110   0.389  0.2748 -2.0363  0.3570
   43MOL   H24226366   7.363   1.237   0.322 -0.1680 -0.5149  1.4243
   43MOL   H24326367   7.375   0.949   0.193 -1.6316  0.7305  0.5513
   43MOL   H24426368   7.303   1.092   0.128 -0.6142 -1.5497 -1.9438
   43MOL   H24526369   7.601   1.086   0.156  0.3093 -0.1594  0.8404
   43MOL   H24626370   7.521   1.215   0.096  3.3456 -0.7642 -2.7638
   43MOL   H24726371   7.508   1.067   7.773  2.1434 -2.4443  1.1560
   43MOL   H24826372   7.193   0.751   0.932  0.4010  0.0496 -1.5826
   43MOL   H24926373   7.302   0.853   0.849 -0.0610  0.1400 -0.2020
   43MOL   C25026374   7.355   0.810   1.045 -0.5663  0.4191  0.4658
   43MOL   O25126375   7.456   0.909   1.058 -0.3020  0.0175  0.2926
   43MOL   C25226376   7.529   0.912   1.179 -0.2694 -0.5881  0.1913
   43MOL   C25326377   7.645   1.005   1.162 -0.2594 -0.2951 -0.3573
   43MOL   C25426378   7.760   0.961   1.075  0.5443 -0.4907  0.0614
   43MOL   C25526379   0.085   1.079   1.050 -0.6022 -0.1573  0.3876
   43MOL   C25626380   0.183   1.035   0.936  0.0960 -0.5927 -0.0877
   43MOL   C25726381   0.309   1.129   0.921  0.7188  0.1732 -0.2525
   43MOL   C25826382   0.415   1.085   0.808 -1.1952  0.4375 -0.1805
   43MOL   C25926383   0.525   1.179   0.769  0.1540  0.1273  0.1637
   43MOL   C26026384   7.431   0.677   1.001  0.6018 -0.2905  0.6596
   43MOL   H26126385   7.303   0.804   1.141 -1.3641 -0.3635 -0.0096
   43MOL   H26226386   7.547   0.820   1.236  0.8583 -0.7547 -0.4147
   43MOL   H26326387   7.459   0.955   1.250  0.8798  0.4715  0.6921
   43MOL   H26426388   7.691   1.023   1.259  0.6885 -1.6919 -0.5336
   43MOL   H26526389   7.607   1.107   1.156 -0.9313 -0.6047 -1.4647
   43MOL   H26626390   0.028   0.877   1.130  0.4675 -0.1992  0.5724
   43MOL   H26726391   7.724   0.932   0.976  2.9548 -0.2008 -0.9302
   43MOL   H26826392   0.027   1.164   1.014  0.5943 -0.3712 -2.1905
   43MOL   H26926393   0.134   1.103   1.144  2.0900  0.8989 -1.2403
   43MOL   H27026394   0.216   0.938   0.975 -2.2816 -1.5573 -0.4125
   43MOL   H27126395   0.132   1.021   0.841  0.9744 -1.8616 -0.3872
   43MOL   H27226396   0.355   1.130   1.019  0.0573  1.8744  0.0617
   43MOL   H27326397   0.265   1.229   0.918  0.0184 -0.0506  1.6750
   43MOL   H27426398   0.460   0.992   0.842 -2.4107  0.0709  0.4567
   43MOL   H27526399   0.359   1.060   0.718 -0.0746 -0.7705 -0.5637
   43MOL   H27626400   0.596   1.200   0.849 -1.4111  1.0402  1.3326
   43MOL   H27726401   0.481   1.278   0.753  0.7956  0.4925  0.6554
   43MOL   H27826402   0.577   1.138   0.682  1.2036  0.7935  0.4723
   43MOL   H27926403   7.442   0.683   0.892 -1.4076  0.5916  0.4732
   43MOL   H28026404   7.532   0.668   1.039  1.1849  1.6752 -0.3243
   43MOL   C28126405   7.361   0.546   1.045 -0.8090  0.3547 -0.8426
   43MOL   O28226406   7.398   0.534   1.178  0.0123  0.4139 -0.3911
   43MOL   C28326407   7.293   0.486   1.267  0.1969 -0.3754 -0.0030
   43MOL   C28426408   7.313   0.517   1.420 -0.0660 -0.0270  0.8188
   43MOL   C28526409   7.307   0.665   1.459 -0.8661  0.8057 -0.5925
   43MOL   C28626410   7.276   0.693   1.603 -1.1813 -0.1020 -0.2595
   43MOL   C28726411   7.278   0.847   1.633  0.0412  0.4178  0.2167
   43MOL   C28826412   7.275   0.879   1.782 -0.0050 -0.4467  0.2367
   43MOL   C28926413   7.281   1.026   1.820  0.6616 -0.4287 -0.7888
   43MOL   C29026414   7.330   1.054   1.967 -0.2490  0.1486 -0.0903
   43MOL   C29126415   7.379   0.416   0.957 -0.0598  0.6540  0.0770
   43MOL   H29226416   7.253   0.558   1.037 -1.4563 -1.1284  3.8007
   43MOL   H29326417   7.279   0.378   1.265 -0.8069 -0.2650  0.2969
   43MOL   H29426418   7.195   0.523   1.238 -0.4128 -1.9929 -0.0854
   43MOL   H29526419   7.418   0.496   1.440  0.7574  3.0454  0.0314
   43MOL   H29626420   7.262   0.449   1.488 -0.7266 -0.5583 -0.1924
   43MOL   H29726421   7.401   0.716   1.437 -0.1897  0.5165  1.4918
   43MOL   H29826422   7.227   0.711   1.401 -1.0077  1.1478 -0.1195
   43MOL   H29926423   7.183   0.649   1.639 -0.7174 -0.1373  0.9038
   43MOL   H30026424   7.351   0.630   1.650 -0.8105  0.6307  0.1335
   43MOL   H30126425   7.365   0.896   1.590 -1.0850  1.6899 -0.6504
   43MOL   H30226426   7.203   0.904   1.578  3.4474  3.4812 -1.4215
   43MOL   H30326427   7.366   0.831   1.820  0.2341 -1.6320 -1.7617
   43MOL   H30426428   7.189   0.834   1.831 -0.6691  2.1471  1.5288
   43MOL   H30526429   7.340   1.074   1.743  0.1432  2.7658  0.7132
   43MOL   H30626430   7.181   1.064   1.802 -0.8004 -3.0629  1.2783
   43MOL   H30726431   7.323   1.159   1.996  1.4244  0.2707 -0.0574
   43MOL   H30826432   7.438   1.038   1.973 -0.1109  0.6832 -1.0289
   43MOL   H30926433   7.280   0.996   2.044 -1.6422 -0.2822 -1.2838
   43MOL   H31026434   7.300   0.343   0.975 -0.8820  1.5670  0.1948
   43MOL   H31126435   7.349   0.444   0.856  1.0522  0.5911 -0.2792
   43MOL   C31226436   7.527   0.362   0.957  0.4138 -0.2031  0.5306
   43MOL   O31326437   7.591   0.424   0.852  0.4626 -0.2135 -0.1682
   43MOL   C31426438   7.718   0.485   0.880  0.2300  0.1837  0.4756
   43MOL   C31526439   7.759   0.560   0.746  0.3088 -0.3957 -0.4167
   43MOL   C31626440   0.119   0.624   0.756  0.0346  0.5779 -0.3098
   43MOL   C31726441   0.164   0.706   0.626 -0.1305  0.2532 -0.2339
   43MOL   C31826442   0.314   0.747   0.615 -0.0894  0.3097 -0.3786
   43MOL   C31926443   0.344   0.831   0.484 -0.6779  0.0927  0.2860
   43MOL   C32026444   0.495   0.858   0.481 -0.7018  0.2288 -0.0611
   43MOL   C32126445   0.537   0.958   0.369 -0.6776 -0.4382  0.0285
   43MOL   C32226446   7.537   0.213   0.940  0.4902 -0.8771 -0.2371
   43MOL   H32326447   7.576   0.390   1.051  1.1434  0.5311 -0.0645
   43MOL   H32426448   0.016   0.412   0.917  1.6631  1.0101 -0.6644
   43MOL   H32526449   7.689   0.555   0.958 -0.7954 -1.7658  1.8855
   43MOL   H32626450   7.688   0.642   0.737 -0.1967 -0.6882  0.8485
   43MOL   H32726451   7.757   0.499   0.656  0.6116 -1.7175  0.4650
   43MOL   H32826452   0.126   0.695   0.838 -0.7370 -1.2260  1.3433
   43MOL   H32926453   0.185   0.539   0.773 -1.1684 -0.3487 -0.2689
   43MOL   H33026454   0.147   0.643   0.539 -1.4398  2.5548 -1.7189
   43MOL   H33126455   0.102   0.796   0.622 -2.0163 -0.8713  2.2931
   43MOL   H33226456   0.341   0.803   0.704  0.1683 -1.5820  0.7575
   43MOL   H33326457   0.376   0.657   0.617 -1.0628 -0.3542  0.4410
   43MOL   H33426458   0.290   0.925   0.472 -1.7571 -0.5408  0.1193
   43MOL   H33526459   0.330   0.777   0.390 -0.0477  0.5418 -0.0778
   43MOL   H33626460   0.519   0.892   0.581 -0.1396 -0.4074  0.0249
   43MOL   H33726461   0.546   0.763   0.462 -0.6191  0.4394 -0.9032
   43MOL   H33826462   0.646   0.962   0.360 -0.7849 -0.2254 -1.2902
   43MOL   H33926463   0.497   1.057   0.392 -2.1625 -1.6126  2.6202
   43MOL   H34026464   0.502   0.925   0.271  0.6469 -2.0936  0.0916
   43MOL   H34126465   7.469   0.178   0.863  1.1386 -1.4856 -0.5415
   43MOL   H34226466   7.643   0.197   0.921  0.6274  0.6769 -0.9075
   43MOL   C34326467   7.514   0.141   1.074 -0.2811 -0.3305  0.0050
   43MOL   O34426468   7.628   0.183   1.154  0.0846  0.5177  0.1867
   43MOL   C34526469   7.602   0.240   1.287  0.2439 -0.5684  0.2664
   43MOL   C34626470   7.728   0.302   1.339  0.0349  0.6623 -0.3618
   43MOL   C34726471   0.016   0.410   1.239 -0.7320 -0.2402 -0.0110
   43MOL   C34826472   0.148   0.462   1.291 -0.0486  0.3964  1.0350
   43MOL   C34926473   0.220   0.565   1.205  0.2709  0.0989  0.8604
   43MOL   C35026474   0.326   0.657   1.271 -0.0677  0.4397  0.8469
   43MOL   C35126475   0.363   0.787   1.195  0.2782  0.3892  0.1048
   43MOL   C35226476   0.446   0.889   1.272  0.2274 -0.0609  0.2555
   43MOL   C35326477   7.520   7.762   1.061 -0.3891  0.7150 -0.6203
   43MOL   H35426478   7.420   0.177   1.116  0.3773  1.1686  0.2093
   43MOL   H35526479   7.562   0.157   1.346  1.3511 -0.7810  0.7316
   43MOL   H35626480   7.533   0.324   1.283 -0.7097 -1.3777 -0.4566
   43MOL   H35726481   0.025   0.225   1.369  0.2601  0.3194 -1.7287
   43MOL   H35826482   7.704   0.356   1.431 -0.8664 -1.6965  0.8119
   43MOL   H35926483   0.023   0.370   1.138 -1.8650 -1.7882  0.4957
   43MOL   H36026484   7.715   0.488   1.240  1.8055  2.2814  2.4005
   43MOL   H36126485   0.137   0.502   1.392 -0.4858  0.9175  0.7828
   43MOL   H36226486   0.216   0.376   1.293  0.5413  0.7887 -1.2877
   43MOL   H36326487   0.273   0.508   1.129 -0.1340 -0.1457  0.7591
   43MOL   H36426488   0.148   0.637   1.165 -1.9596 -2.1922  0.6399
   43MOL   H36526489   0.418   0.606   1.297  1.3698  2.0324 -0.9384
   43MOL   H36626490   0.282   0.692   1.364 -0.1629  0.6171  0.7358
   43MOL   H36726491   0.403   0.757   1.099 -1.6920 -0.4311 -0.4841
   43MOL   H36826492   0.271   0.842   1.173  1.5777  3.2659  1.5292
   43MOL   H36926493   0.390   0.936   1.353 -0.1163 -0.5490  0.3037
   43MOL   H37026494   0.466   0.969   1.200 -0.2099  0.3346  0.5749
   43MOL   H37126495   0.534   0.836   1.307  0.0118 -0.0582  0.7983
   43MOL   H37226496   7.619   7.734   1.026 -0.5937 -2.0668  0.9172
   43MOL   H37326497   7.511   7.714   1.158 -0.3837  0.9972 -0.4810
   43MOL   C37426498   7.411   7.698   0.973 -0.3533  0.2592 -0.3753
   43MOL   O37526499   7.285   7.752   1.017  0.2118  0.4145  0.3555
   43MOL   C37626500   7.185   7.753   0.913 -0.3315 -0.4230 -0.6369
   43MOL   C37726501   7.145   0.125   0.895  0.6102 -0.2898 -0.0931
   43MOL   C37826502   7.032   0.139   0.788 -0.4005 -0.2981  0.1595
   43MOL   C37926503   6.883   0.124   0.851  0.6651 -1.1223  0.2794
   43MOL   C38026504   6.767   0.169   0.760  0.8070 -0.3332 -0.2223
   43MOL   C38126505   6.631   0.140   0.816  0.2536  0.2834  0.0569
   43MOL   C38226506   6.580   7.773   0.788  0.4357  0.8797  0.1780
   43MOL   C38326507   6.451   7.742   0.869 -0.5929  0.2345  0.8331
   43MOL   C38426508   7.402   7.550   0.981 -0.4994  0.4859 -0.0013
   43MOL   H38526509   7.431   7.723   0.869  0.4093 -0.0930 -0.3208
   43MOL   H38626510   7.110   7.694   0.967 -1.1881  0.5296 -0.7597
   43MOL   H38726511   7.217   7.694   0.827 -0.3196 -0.7968 -0.3779
   43MOL   H38826512   7.232   0.176   0.852  0.8282  0.4643  1.2322
   43MOL   H38926513   7.126   0.165   0.994  2.7115 -4.1713  2.0174
   43MOL   H39026514   7.023   0.233   0.734 -4.4614 -0.9641 -0.5605
   43MOL   H39126515   7.042   0.061   0.712 -0.1342  0.2271 -0.3500
   43MOL   H39226516   6.869   0.020   0.881 -0.6770 -1.1752 -0.5299
   43MOL   H39326517   6.881   0.185   0.942 -2.4545 -1.7600  0.6912
   43MOL   H39426518   6.792   0.271   0.731  0.4875 -0.6793 -1.7336
   43MOL   H39526519   6.775   0.115   0.666 -0.1396 -0.8537 -0.0131
   43MOL   H39626520   6.556   0.209   0.777 -0.4112 -0.6489 -0.3163
   43MOL   H39726521   6.637   0.163   0.923 -2.8637  0.6582  0.1906
   43MOL   H39826522   6.555   7.766   0.682 -0.0228  0.2822  0.3231
   43MOL   H39926523   6.656   7.699   0.813  0.1019 -0.1119 -1.6632
   43MOL   H40026524   6.405   7.650   0.832  1.1133  0.1812 -1.3032
   43MOL   H40126525   6.370   0.041   0.870  1.3951  2.5392 -0.8610
   43MOL   H40226526   6.473   7.728   0.975 -0.4365 -1.8199  0.5549
   43MOL   H40326527   7.391   7.520   1.085 -0.2552  0.9387  0.1571
   43MOL   H40426528   7.320   7.506   0.924  0.8846 -1.1814 -0.7375
   43MOL   C40526529   7.526   7.472   0.930  0.5405 -0.3169 -0.0208
   43MOL   O40626530   7.534   7.492   0.797 -0.0557 -0.3424  0.3362
   43MOL   C40726531   7.654   7.529   0.740 -0.4622  0.3063 -0.8744
   43MOL   C40826532   7.672   7.467   0.603 -0.0920 -0.5056  0.1509
   43MOL   C40926533   7.686   7.307   0.589 -0.5103  0.2800  0.1148
   43MOL   C41026534   0.033   7.260   0.658  0.8318 -0.4170  0.9323
   43MOL   C41126535   0.065   7.113   0.627 -0.4510  0.5486  0.3550
   43MOL   C41226536   0.202   7.065   0.680 -0.4106 -0.0870 -0.1111
   43MOL   C41326537   0.236   6.918   0.648 -0.2176 -0.1127 -0.3857
   43MOL   C41426538   0.385   6.884   0.686 -0.8700 -0.1322 -0.8129
   43MOL   C41526539   7.519   7.318   0.956  0.4244  0.1088 -0.2837
   43MOL   H41626540   7.616   7.512   0.978  1.2708 -3.0182  0.9489
   43MOL   H41726541   7.733   7.495   0.807 -1.1909 -0.5689 -0.4551
   43MOL   H41826542   7.652   7.638   0.731 -0.3572  0.3273 -0.6416
   43MOL   H41926543   7.764   7.509   0.562 -0.4900 -0.0138 -0.2439
   43MOL   H42026544   7.590   7.503   0.541 -0.4114  1.2012  1.5321
   43MOL   H42126545   7.598   7.255   0.627  0.0188 -1.0987 -0.5168
   43MOL   H42226546   7.695   7.287   0.483  0.8791 -1.2298  0.5120
   43MOL   H42326547   0.113   7.324   0.622 -0.6013  0.4545 -0.7484
   43MOL   H42426548   0.015   7.266   0.766 -3.8204 -1.2916  0.2801
   43MOL   H42526549   7.767   7.052   0.682  0.8911  0.4597  2.0803
   43MOL   H42626550   0.058   7.107   0.519 -2.7588 -0.3314  0.5317
   43MOL   H42726551   0.222   7.086   0.785 -0.7016  0.5523 -0.1811
   43MOL   H42826552   0.273   7.124   0.623  0.6527 -0.1140  1.1686
   43MOL   H42926553   0.163   6.847   0.685  1.2672 -2.0301 -1.0552
   43MOL   H43026554   0.222   6.913   0.540  0.4042  0.5139 -0.5010
   43MOL   H43126555   0.387   6.889   0.794 -0.7960 -0.9660 -0.7692
   43MOL   H43226556   0.457   6.957   0.649  1.6137 -0.3503  3.3284
   43MOL   H43326557   0.422   6.788   0.650 -0.9375  0.7327 -3.2909
   43MOL   H43426558   7.432   7.285   0.899  1.3765  0.4842 -1.9802
   43MOL   H43526559   7.602   7.270   0.903 -0.3863  1.4174 -2.8126
   43MOL   C43626560   7.510   7.270   1.107  0.0126 -0.3056 -0.9793
   43MOL   O43726561   7.623   7.325   1.170  0.3002 -0.0511 -0.8987
   43MOL   C43826562   7.616   7.354   1.318  0.1721 -0.6562 -0.2732
   43MOL   C43926563   7.754   7.409   1.360  0.5490 -0.5340  0.2548
   43MOL   C44026564   7.769   7.548   1.294 -0.0459 -0.1574 -0.6966
   43MOL   C44126565   0.118   7.622   1.347  0.0251  0.8298 -0.3198
   43MOL   C44226566   0.154   7.746   1.266 -0.5619 -0.2084 -0.3423
   43MOL   C44326567   0.254   0.063   1.337  0.7151  0.5949 -0.1846
   43MOL   C44426568   0.338   0.144   1.227 -0.2198  1.1064  0.4635
   43MOL   C44526569   0.461   0.205   1.286  0.0832  0.4340 -0.3298
   43MOL   C44626570   7.508   7.117   1.114  0.1171  0.5132  0.2147
   43MOL   H44726571   7.425   7.308   1.164 -0.5993 -1.0370 -1.4089
   43MOL   H44826572   7.535   7.418   1.351 -0.1061 -1.9564  1.6358
   43MOL   H44926573   7.609   7.252   1.357  0.0929 -0.1076  1.1802
   43MOL   H45026574   0.055   7.345   1.312 -1.4959 -2.8926  0.0857
   43MOL   H45126575   7.769   7.405   1.468  0.6409  1.5036  0.3282
   43MOL   H45226576   0.010   7.542   1.186 -1.7196 -2.5348 -0.8470
   43MOL   H45326577   7.684   7.611   1.319 -0.8054 -1.5185  0.2598
   43MOL   H45426578   0.089   7.656   1.446 -0.4263 -0.5671  0.0443
   43MOL   H45526579   0.204   7.558   1.369  1.0898  2.4694  0.3954
   43MOL   H45626580   0.195   7.697   1.177 -1.8932 -1.8688 -0.0658
   43MOL   H45726581   0.066   0.028   1.236 -1.7901 -1.3199  1.1079
   43MOL   H45826582   0.332   0.001   1.381  0.6495  0.5888 -0.0790
   43MOL   H45926583   0.204   0.123   1.414  1.6155  1.5602 -0.3305
   43MOL   H46026584   0.369   0.085   1.140  1.4264 -0.7592  2.2668
   43MOL   H46126585   0.275   0.211   1.169 -1.5167 -1.8637 -1.7407
   43MOL   H46226586   0.518   0.144   1.357 -1.1854 -0.0123  0.3146
   43MOL   H46326587   0.451   0.305   1.327 -3.9627  0.4121 -1.0837
   43MOL   H46426588   0.521   0.230   1.199 -0.6401  1.0614 -0.6531
   43MOL   H46526589   7.547   7.079   1.019 -0.5748 -0.6170  0.3734
   43MOL   H46626590   7.589   7.084   1.179  0.5195 -0.4356 -0.7386
   43MOL   C46726591   7.376   7.042   1.146  0.2548  0.3123 -0.1308
   43MOL   O46826592   7.301   7.132   1.232  0.4244 -0.2453  0.4314
   43MOL   C46926593   7.158   7.111   1.236  0.1031 -0.2144  0.4187
   43MOL   C47026594   7.098   7.223   1.331 -0.3361 -0.1731 -0.1854
   43MOL   C47126595   7.118   7.371   1.292  0.2924 -0.9080  0.2756
   43MOL   C47226596   7.072   7.407   1.151  0.0863 -0.4870  0.1253
   43MOL   C47326597   6.925   7.356   1.116 -0.7601 -0.0497 -0.3031
   43MOL   C47426598   6.861   7.436   1.004 -0.3693 -0.5434 -0.7431
   43MOL   C47526599   6.729   7.391   0.950  0.2088  0.4405 -0.2664
   43MOL   C47626600   6.620   7.420   1.053  0.3497 -0.1007  0.1357
   43MOL   C47726601   7.395   6.903   1.212 -0.3613 -0.0005 -0.0275
   43MOL   H47826602   7.317   7.032   1.054 -3.9721 -1.3961  2.6325
   43MOL   H47926603   7.130   7.010   1.268  0.5403 -0.4860 -0.0308
   43MOL   H48026604   7.125   7.120   1.132  1.7739 -0.9587 -0.2047
   43MOL   H48126605   7.130   7.202   1.433  1.8576 -3.3479 -1.4503
   43MOL   H48226606   6.991   7.203   1.334 -0.7082  1.7687  0.2962
   43MOL   H48326607   7.054   7.418   1.367  0.4609  1.3661 -0.9601
   43MOL   H48426608   7.217   7.413   1.308 -1.0975  1.6983  2.4478
   43MOL   H48526609   7.068   7.515   1.139  0.3018 -0.7229 -2.2123
   43MOL   H48626610   7.146   7.368   1.081  0.9826  0.3250  0.6086
   43MOL   H48726611   6.931   7.252   1.083  0.5034 -0.9024  2.4899
   43MOL   H48826612   6.857   7.364   1.201 -0.6542  1.2369 -0.3309
   43MOL   H48926613   6.935   7.425   0.925  0.9757 -0.7957  0.5389
   43MOL   H49026614   6.861   7.544   1.012  1.1641 -0.6226  0.5384
   43MOL   H49126615   6.703   7.444   0.858 -0.2741  1.1529  0.2738
   43MOL   H49226616   6.732   7.282   0.946  2.6250  0.5419 -2.9856
   43MOL   H49326617   6.530   7.368   1.020 -1.9429  2.5911  1.8819
   43MOL   H49426618   6.601   7.527   1.069 -0.6304 -0.2907  0.3165
   43MOL   H49526619   6.629   7.376   1.153 -0.9861 -1.3051 -0.2581
   43MOL   H49626620   7.412   6.902   1.319  1.3119  1.8682 -0.2469
   43MOL   H49726621   7.303   6.846   1.208 -0.8807  0.5829  2.6978
   43MOL   C49826622   7.509   6.826   1.139  0.7463 -0.5804 -0.4317
   43MOL   O49926623   7.482   6.815   0.994  0.8107 -0.2528  0.2474
   43MOL   C50026624   7.598   6.813   0.916  0.7588  0.5025  0.5742
   43MOL   C50126625   7.575   6.812   0.769  0.3751 -0.2143  0.0435
   43MOL   C50226626   7.498   6.934   0.725  0.0109 -0.0210 -0.2266
   43MOL   C50326627   7.478   6.935   0.571 -0.0363  0.8326  0.3462
   43MOL   C50426628   7.363   6.843   0.529  0.1389  0.9399  0.6989
   43MOL   C50526629   7.272   6.904   0.434  0.9867 -0.1276  0.3136
   43MOL   C50626630   7.337   6.940   0.294  0.3064 -0.3065 -0.3295
   43MOL   C50726631   7.248   6.991   0.192 -0.3143 -0.4682 -0.7154
   43MOL   C50826632   7.525   6.688   1.210 -0.3609  0.7982  0.1747
   43MOL   H50926633   7.604   6.877   1.151  1.7721 -1.1999 -4.9468
   43MOL   H51026634   7.657   6.725   0.941 -0.1327  0.4389  2.5431
   43MOL   H51126635   7.656   6.900   0.948  0.0031  0.8429  1.0416
   43MOL   H51226636   7.513   6.724   0.753  0.7573 -0.7321  1.3093
   43MOL   H51326637   7.667   6.796   0.713  0.6249 -0.7029  0.5828
   43MOL   H51426638   7.404   6.957   0.776 -0.4753  0.6356 -1.3842
   43MOL   H51526639   7.548   7.028   0.747  0.2229 -0.4532  1.1639
   43MOL   H51626640   7.442   7.036   0.552  1.8315  1.5416  0.4478
   43MOL   H51726641   7.565   6.907   0.512  0.3496  1.8163  0.4386
   43MOL   H51826642   7.410   6.756   0.481 -0.6252  0.8144  0.1638
   43MOL   H51926643   7.304   6.798   0.609  0.2816 -0.5449 -0.0086
   43MOL   H52026644   7.221   6.980   0.494 -0.8963 -0.9145 -0.2595
   43MOL   H52126645   7.184   6.840   0.425  0.2178  0.6511  1.9755
   43MOL   H52226646   7.425   7.002   0.312 -1.2653  1.3357  2.0286
   43MOL   H52326647   7.381   6.847   0.257  0.4766 -0.7883  1.0524
   43MOL   H52426648   7.292   6.994   0.092 -0.6543  2.4398 -0.8079
   43MOL   H52526649   7.212   7.088   0.223 -2.2701 -1.3328 -0.2223
   43MOL   H52626650   7.167   6.918   0.188  0.3567 -1.1837 -1.7906
   43MOL   H52726651   7.424   6.647   1.215  0.2552 -0.6608  1.1737
   43MOL   H52826652   7.588   6.619   1.153 -0.6277  1.0131 -0.3829
   43MOL   C52926653   7.579   6.690   1.352 -0.1262  0.6973 -0.0094
   43MOL   O53026654   7.705   6.762   1.363  0.2155 -0.3300  0.0063
   43MOL   C53126655   7.715   6.858   1.467 -0.2946 -0.0573 -0.3347
   43MOL   C53226656   0.083   6.920   1.435  0.4189  0.3718 -0.4779
   43MOL   C53326657   0.195   6.818   1.483  0.1502 -1.0195  0.2071
   43MOL   C53426658   0.332   6.879   1.480  0.4268 -0.2929  0.1052
   43MOL   C53526659   0.419   6.771   1.545 -0.2277 -0.2567 -0.2763
   43MOL   C53626660   0.564   6.791   1.518 -0.2421 -0.7167  0.0945
   43MOL   C53726661   0.607   6.776   1.375  0.9564  0.3934 -0.3864
   43MOL   C53826662   0.755   6.811   1.365  0.5708  0.0927 -0.5234
   43MOL   C53926663   7.591   6.544   1.413 -0.4297 -0.2967  0.3941
   43MOL   H54026664   7.502   6.726   1.421  0.6924 -0.9747  1.8368
   43MOL   H54126665   7.639   6.933   1.446 -0.3214  0.2759  0.9580
   43MOL   H54226666   7.709   6.817   1.568  3.2527 -1.2753 -0.5337
   43MOL   H54326667   0.103   7.015   1.484  0.3584  1.2246 -2.0802
   43MOL   H54426668   0.091   6.952   1.331  3.1001 -1.0995 -0.7497
   43MOL   H54526669   0.173   6.767   1.577  0.9510 -2.7006 -0.5005
   43MOL   H54626670   0.197   6.724   1.428 -0.0964 -1.9106  1.6740
   43MOL   H54726671   0.368   6.880   1.378  1.8490  0.6675  0.6066
   43MOL   H54826672   0.343   6.976   1.530  0.3585 -0.4902  0.5060
   43MOL   H54926673   0.394   6.778   1.651  1.2847  0.1868  0.0604
   43MOL   H55026674   0.404   6.668   1.512  1.0982 -0.3173 -0.7127
   43MOL   H55126675   0.629   6.728   1.578  0.6873 -0.0996 -0.2585
   43MOL   H55226676   0.590   6.889   1.559 -0.0706 -0.8369  0.2735
   43MOL   H55326677   0.590   6.673   1.342  2.7756 -0.6199  1.7156
   43MOL   H55426678   0.550   6.848   1.316  0.7366  0.6634  0.1627
   43MOL   H55526679   0.816   6.736   1.415 -0.8828 -0.9697 -0.2983
   43MOL   H55626680   0.774   6.910   1.405  2.5954 -0.3439 -0.3506
   43MOL   H55726681   0.784   6.812   1.260 -1.8050 -0.1793 -1.2329
   43MOL   H55826682   7.488   6.508   1.412 -0.5716  0.0370 -2.3058
   43MOL   H55926683   7.651   6.484   1.345  1.5856  0.4714  1.4678
   43MOL   C56026684   7.644   6.536   1.553 -0.0992 -0.0159 -0.0434
   43MOL   O56126685   7.663   6.397   1.595  0.4669 -0.2438  0.4516
   43MOL   C56226686   0.011   6.371   1.657 -0.8158 -0.3016 -0.0958
   43MOL   C56326687   0.134   6.382   1.560  0.0254  0.2342 -0.3848
   43MOL   C56426688   0.270   6.375   1.633  0.1234  0.4014 -0.4207
   43MOL   C56526689   0.399   6.358   1.544 -0.5501  0.2440  0.4019
   43MOL   C56626690   0.509   6.391   1.643 -0.8884  0.2918 -0.3819
   43MOL   C56726691   0.664   6.378   1.592 -0.0672  0.2695  0.5220
   43MOL   C56826692   0.765   6.424   1.701 -0.0978 -1.1015 -0.2671
   43MOL   C56926693   0.859   6.535   1.658 -0.0281  0.3398 -0.2677
   43MOL   C57026694   7.551   6.603   1.663  0.0273  0.8165 -0.3364
   43MOL   H57126695   7.739   6.589   1.555  0.9584 -1.8449  0.1490
   43MOL   H57226696   0.001   6.269   1.695  0.2594  0.0247  1.0905
   43MOL   H57326697   0.012   6.437   1.743  1.5901  0.9584 -1.0643
   43MOL   H57426698   0.146   6.463   1.488  2.7268  0.1997 -0.0235
   43MOL   H57526699   0.122   6.290   1.504 -1.3722 -0.0654  0.3835
   43MOL   H57626700   0.279   6.451   1.710  0.9687 -0.8040  0.7003
   43MOL   H57726701   0.267   6.285   1.695  3.3066  0.3585 -0.2330
   43MOL   H57826702   0.409   6.257   1.505 -0.0435  0.6953 -0.6415
   43MOL   H57926703   0.397   6.431   1.463  0.5536  0.5199  0.6159
   43MOL   H58026704   0.485   6.489   1.684  0.0119  0.2786  0.2065
   43MOL   H58126705   0.504   6.315   1.721 -1.4775  1.5581  0.8362
   43MOL   H58226706   0.682   6.434   1.500  1.3593 -0.9708  0.0267
   43MOL   H58326707   0.686   6.273   1.573  0.7523  0.5381 -0.0464
   43MOL   H58426708   0.713   6.451   1.793  0.9362 -1.0150  0.2966
   43MOL   H58526709   0.822   6.336   1.730  1.5362  0.4497  1.3572
   43MOL   H58626710   0.808   6.631   1.651 -2.9334 -1.2329 -1.2200
   43MOL   H58726711   0.909   6.503   1.567  1.0114  0.8497  0.1105
   43MOL   H58826712   0.927   6.557   1.740  1.9280 -0.1720 -1.7028
   43MOL   H58926713   7.604   6.621   1.756 -1.3698  0.7862  0.4931
   43MOL   H59026714   7.532   6.705   1.632 -2.9392  0.5748  0.4685
   43MOL   C59126715   7.422   6.529   1.697  0.8019  0.1932 -0.3452
   43MOL   O59226716   7.325   6.563   1.602 -0.1002 -0.2938  0.3513
   43MOL   C59326717   7.227   6.456   1.590  0.9927 -0.5322  0.0101
   43MOL   C59426718   7.124   6.472   1.470  0.1734 -0.6892  0.3903
   43MOL   C59526719   7.039   6.346   1.471  0.1810  0.5095  1.4147
   43MOL   C59626720   6.915   6.353   1.376  0.6106 -0.1750  0.5845
   43MOL   C59726721   6.826   6.235   1.395 -0.3668  0.6242  0.3003
   43MOL   C59826722   6.703   6.244   1.300 -0.1761 -0.0379  0.7026
   43MOL   C59926723   6.622   6.118   1.302 -0.0691  0.0437  0.1836
   43MOL   C60026724   6.521   6.109   1.183 -0.1350  0.1202  0.7814
   43MOL   C60126725   7.371   6.575   1.837  0.5283 -0.3631 -0.8208
   43MOL   H60226726   7.444   6.422   1.697 -0.7304 -0.1313 -0.7105
   43MOL   H60326727   7.178   6.445   1.686  0.7081  0.6126  0.0085
   43MOL   H60426728   7.279   6.363   1.568  0.7665 -1.2510  2.3871
   43MOL   H60526729   7.183   6.460   1.379 -0.3943 -1.4402  0.1106
   43MOL   H60626730   7.079   6.571   1.459 -1.5925 -1.3961  1.0790
   43MOL   H60726731   7.099   6.257   1.454  1.5178  1.8154 -0.9227
   43MOL   H60826732   7.004   6.337   1.574  0.0857 -0.4653  1.3041
   43MOL   H60926733   6.870   6.446   1.409 -0.1952  0.0060 -1.0052
   43MOL   H61026734   6.947   6.359   1.272 -1.0356 -0.4028  0.0559
   43MOL   H61126735   6.887   6.147   1.371  1.2990  1.3802  1.6545
   43MOL   H61226736   6.784   6.224   1.495 -2.2043  1.2415 -0.3913
   43MOL   H61326737   6.734   6.261   1.197 -0.6117 -0.2235  0.5437
   43MOL   H61426738   6.630   6.318   1.330  0.0854 -0.4278  2.4077
   43MOL   H61526739   6.693   6.036   1.285 -0.7895 -0.0988 -2.2464
   43MOL   H61626740   6.581   6.108   1.402  0.4816 -0.4812  0.3672
   43MOL   H61726741   6.473   6.206   1.173 -0.8254 -0.2864  0.0304
   43MOL   H61826742   6.453   6.025   1.201  0.3773 -0.3323  0.6416
   43MOL   H61926743   6.568   6.086   1.087  1.4661  2.8429  0.8793
   43MOL   H62026744   7.284   6.518   1.868  0.0582  1.5251  1.5008
   43MOL   H62126745   7.450   6.559   1.911 -0.3240  0.8694  0.3874
   43MOL   H62226746   7.339   6.679   1.836  1.2709 -0.1020  0.5380
   44MOL     C126747   7.445   1.518   5.970 -0.6832 -0.2445  0.0052
   44MOL     O226748   7.382   1.397   5.995  0.1859  0.1052  0.1290
   44MOL     C326749   7.238   1.406   5.970  0.0029  0.3440  0.0824
   44MOL     C426750   7.185   1.273   5.914  0.7465 -0.2044 -0.5104
   44MOL     C526751   7.035   1.270   5.863  0.1948  0.0111  0.3056
   44MOL     C626752   6.987   1.134   5.823 -0.0065 -0.6856  0.1038
   44MOL     C726753   6.850   1.146   5.755  0.1801  0.8712  0.3942
   44MOL     C826754   6.797   1.002   5.706 -0.0084  0.5332  0.3941
   44MOL     C926755   6.674   1.033   5.615 -0.4821  0.0988 -0.3278
   44MOL    C1026756   6.582   0.916   5.582  0.4411  0.0283 -0.0170
   44MOL    C1126757   7.593   1.510   6.018 -0.1541  0.0359  0.0681
   44MOL    H1226758   7.436   1.544   5.864  0.5982 -0.2152 -0.1041
   44MOL    H1326759   7.220   1.479   5.891  1.2598  1.5707  0.9127
   44MOL    H1426760   7.179   1.442   6.055 -0.7858  1.3802 -0.8934
   44MOL    H1526761   7.189   1.207   6.000  1.7059  1.2402  0.5724
   44MOL    H1626762   7.253   1.228   5.841  0.0309 -1.5020 -0.3795
   44MOL    H1726763   6.969   1.309   5.940 -0.0899  1.2799 -0.5634
   44MOL    H1826764   7.034   1.342   5.781 -0.1473 -0.4045 -0.0581
   44MOL    H1926765   7.055   1.086   5.754 -1.6627 -1.5841 -0.9507
   44MOL    H2026766   6.979   1.081   5.918  1.7464 -1.0279  0.0760
   44MOL    H2126767   6.775   1.195   5.818 -0.7393  0.9375 -0.7342
   44MOL    H2226768   6.853   1.212   5.668  0.2945  0.4870  0.1077
   44MOL    H2326769   6.761   0.928   5.778  1.0966 -0.4560 -0.0690
   44MOL    H2426770   6.873   0.953   5.647  0.4093  2.2335 -0.5111
   44MOL    H2526771   6.629   1.119   5.665  1.1726  0.5938  0.3331
   44MOL    H2626772   6.714   1.068   5.519 -1.9194  1.0680 -0.5858
   44MOL    H2726773   6.642   0.841   5.531  1.2490  0.6147  0.0556
   44MOL    H2826774   6.509   0.959   5.514 -2.6580 -0.5584  2.8080
   44MOL    H2926775   6.531   0.868   5.666  0.0682 -1.2812 -0.9822
   44MOL    H3026776   7.597   1.491   6.125  2.9862 -0.4097 -0.0840
   44MOL    H3126777   7.638   1.427   5.964 -0.8008  1.5196 -2.8494
   44MOL    H3226778   7.384   1.591   6.024 -0.6660  0.4710 -0.9296
   44MOL    C3326779   7.667   1.640   5.990  0.5249  0.4958  0.0737
   44MOL    O3426780   7.705   1.649   5.851  0.3273 -0.1560 -0.0623
   44MOL    C3526781   7.697   1.779   5.797 -0.7333 -0.5710  0.5318
   44MOL    C3626782   0.004   1.788   5.666 -0.2492  0.4513 -0.1232
   44MOL    C3726783   7.714   1.717   5.541  0.4949 -1.0278 -0.2587
   44MOL    C3826784   0.023   1.727   5.411  0.5261 -0.3640 -0.2749
   44MOL    C3926785   0.050   1.872   5.359 -0.4878  0.5746  0.0211
   44MOL    C4026786   0.062   1.864   5.203 -0.5813  0.4058 -0.0973
   44MOL    C4126787   0.082   2.005   5.143  0.6468 -0.4527 -0.3503
   44MOL    C4226788   0.085   2.008   4.982 -0.3958 -0.1806  0.2641
   44MOL    C4326789   0.024   1.641   6.069 -0.2586 -0.1217 -0.7744
   44MOL    H4426790   7.601   1.719   6.023  0.1801  0.6436 -0.9619
   44MOL    H4526791   7.749   1.846   5.865  0.8354  0.3537 -1.5400
   44MOL    H4626792   7.595   1.816   5.778 -0.0719  1.7180  1.2080
   44MOL    H4726793   0.108   1.759   5.684 -0.7297 -0.7097  0.8670
   44MOL    H4826794   0.000   1.892   5.633  0.6835  0.4710 -0.1909
   44MOL    H4926795   7.705   1.609   5.558  0.1331 -0.6839  1.7627
   44MOL    H5026796   7.615   1.762   5.537  0.2231 -1.6416 -0.4828
   44MOL    H5126797   0.118   1.672   5.413  0.3451 -0.6150  1.8360
   44MOL    H5226798   7.744   1.674   5.331 -2.4526  1.9765  0.0820
   44MOL    H5326799   7.745   1.936   5.397 -0.2866 -0.5254  2.4128
   44MOL    H5426800   0.134   1.919   5.411 -1.2015  1.7890  0.0702
   44MOL    H5526801   7.753   1.806   5.164 -0.4125  0.4229 -0.4903
   44MOL    H5626802   0.152   1.806   5.181  0.0971  2.1825 -2.2596
   44MOL    H5726803   7.766   2.065   5.160  2.0878  1.4619  0.8540
   44MOL    H5826804   0.152   2.070   5.197 -1.4114  0.6944  1.0368
   44MOL    H5926805   0.155   1.941   4.933 -0.9073  0.1436 -0.9197
   44MOL    H6026806   0.104   2.106   4.939  0.7526 -0.0507  1.0457
   44MOL    H6126807   7.759   1.973   4.956 -0.8072  1.1095  0.0591
   44MOL    H6226808   0.034   1.547   6.123 -1.3041  0.9842  1.4028
   44MOL    H6326809   0.114   1.628   6.009 -0.7779 -1.4557 -1.2817
   44MOL    C6426810   0.020   1.754   6.181  0.4617 -0.6107  0.1435
   44MOL    O6526811   0.014   1.878   6.118  0.2808  0.0640 -0.2336
   44MOL    C6626812   7.686   1.965   6.171  0.5556 -0.2029 -0.4916
   44MOL    C6726813   7.691   2.093   6.090  0.6673 -0.4791  0.3673
   44MOL    C6826814   0.055   2.157   6.107  0.4378  0.0734  0.4343
   44MOL    C6926815   0.089   2.271   6.006 -0.2967  0.5831 -0.2847
   44MOL    C7026816   0.231   2.332   6.042  0.1565 -0.4875  0.2075
   44MOL    C7126817   0.254   2.448   5.947 -0.0015 -0.0274  0.2291
   44MOL    C7226818   0.403   2.494   5.940 -0.4647 -0.7915 -0.4075
   44MOL    C7326819   0.429   2.606   5.847  0.4266 -0.1593  0.4542
   44MOL    C7426820   0.143   1.748   6.267  0.7650 -0.3618 -0.2497
   44MOL    H7526821   7.708   1.744   6.247  0.0234 -0.4749 -0.4088
   44MOL    H7626822   7.686   1.979   6.279 -2.0982  0.9482 -0.5845
   44MOL    H7726823   7.586   1.920   6.171  1.4436 -2.2289 -0.5653
   44MOL    H7826824   7.608   2.162   6.106 -0.0108 -1.0013 -0.8338
   44MOL    H7926825   7.677   2.068   5.985 -1.2382 -1.3355  0.7879
   44MOL    H8026826   0.070   2.202   6.205 -1.5273  1.6070  0.0716
   44MOL    H8126827   0.128   2.076   6.105 -1.7742 -1.9589 -0.4704
   44MOL    H8226828   0.083   2.226   5.907 -1.7104 -1.4439  0.6834
   44MOL    H8326829   0.022   2.355   6.023  0.2051  1.1553 -1.1081
   44MOL    H8426830   0.231   2.367   6.146  1.0854  0.4730 -0.1067
   44MOL    H8526831   0.305   2.252   6.038 -0.6586 -1.2542  0.3556
   44MOL    H8626832   0.182   2.526   5.971 -0.2342  0.2360 -1.2632
   44MOL    H8726833   0.225   2.421   5.846  3.1610 -0.5930 -0.5972
   44MOL    H8826834   0.438   2.532   6.036  1.8801 -4.7013  0.4003
   44MOL    H8926835   0.469   2.411   5.913 -1.5092 -1.5911 -0.5248
   44MOL    H9026836   0.353   2.682   5.863  0.2857  0.3649 -2.4847
   44MOL    H9126837   0.446   2.569   5.746  1.0167  0.2087  0.4160
   44MOL    H9226838   0.527   2.645   5.874  0.2124 -0.5010  1.7672
   44MOL    H9326839   0.228   1.775   6.205 -0.3812  1.1048 -1.2314
   44MOL    H9426840   0.128   1.834   6.333  0.8562 -0.2539 -0.3679
   44MOL    C9526841   0.172   1.626   6.349  0.6941  0.0443  0.3034
   44MOL    O9626842   0.062   1.598   6.433 -0.2806 -0.1912 -0.5376
   44MOL    C9726843   0.029   1.459   6.450 -0.0425  0.0240 -0.3191
   44MOL    C9826844   7.687   1.437   6.547 -0.0323 -0.1088 -0.3722
   44MOL    C9926845   7.561   1.506   6.495  0.0849 -0.1147 -0.1119
   44MOL   C10026846   7.461   1.536   6.608 -0.1788  0.1811 -0.4036
   44MOL   C10126847   7.474   1.663   6.682 -0.3024  0.0646  0.0431
   44MOL   C10226848   7.353   1.679   6.769 -0.0479  0.0356  0.6731
   44MOL   C10326849   7.350   1.813   6.840 -0.0989  1.2524 -0.1191
   44MOL   C10426850   7.449   1.836   6.945  0.3680  0.2647  0.2066
   44MOL   C10526851   0.307   1.640   6.434 -0.0865  0.1590  0.0922
   44MOL   H10626852   0.184   1.539   6.284  0.2825 -1.3724  2.1049
   44MOL   H10726853   0.120   1.405   6.479 -0.5997 -0.2624  0.8957
   44MOL   H10826854   0.001   1.425   6.350 -1.7694  0.7992 -0.1018
   44MOL   H10926855   7.726   1.476   6.642 -0.3267 -0.8818  0.0709
   44MOL   H11026856   7.666   1.334   6.577 -0.1799 -0.7906 -2.7491
   44MOL   H11126857   7.584   1.598   6.442 -0.1035 -0.4900 -0.8526
   44MOL   H11226858   7.509   1.443   6.422  0.6028 -1.3114  0.5316
   44MOL   H11326859   7.359   1.537   6.569 -0.7483 -2.2704  0.9635
   44MOL   H11426860   7.453   1.455   6.679 -1.6415  1.1822  0.5992
   44MOL   H11526861   7.570   1.670   6.733 -2.0435  1.4159  3.2943
   44MOL   H11626862   7.462   1.738   6.604  0.7685  1.3121  1.0692
   44MOL   H11726863   7.346   1.610   6.853  2.8696  0.3152  1.1772
   44MOL   H11826864   7.257   1.667   6.719  0.4006  0.5035 -0.3008
   44MOL   H11926865   7.360   1.889   6.762  0.7350  1.4292  0.1585
   44MOL   H12026866   7.252   1.825   6.886  0.1493  0.1921  0.7299
   44MOL   H12126867   7.445   1.933   6.995 -2.0676 -0.0787  0.7453
   44MOL   H12226868   7.549   1.828   6.903 -0.8103 -3.6867 -2.0871
   44MOL   H12326869   7.450   1.752   7.014 -0.6473 -0.1804 -0.3091
   44MOL   H12426870   0.291   1.711   6.516  4.7302  2.2597 -0.6045
   44MOL   H12526871   0.334   1.549   6.487 -2.2209 -1.7098 -1.9529
   44MOL   C12626872   0.434   1.697   6.374  0.1974  0.2824  0.2222
   44MOL   O12726873   0.484   1.605   6.283 -0.3440  0.4806  0.6328
   44MOL   C12826874   0.541   1.667   6.167  0.3644 -0.3003  0.0571
   44MOL   C12926875   0.600   1.576   6.051 -0.2523 -0.7210  0.5054
   44MOL   C13026876   0.711   1.485   6.106  0.2490  0.2528 -0.0263
   44MOL   C13126877   0.771   1.390   5.992  0.3182 -0.3801 -0.0385
   44MOL   C13226878   0.886   1.314   6.050  0.1353  0.5866  0.4670
   44MOL   C13326879   0.953   1.215   5.948 -0.2008  0.1977  0.1581
   44MOL   C13426880   1.037   1.092   6.010 -0.0604  0.6399  0.6829
   44MOL   C13526881   1.049   0.975   5.912 -0.3384  0.4561 -0.0775
   44MOL   C13626882   0.542   1.725   6.484 -0.1462 -0.6117 -0.0251
   44MOL   H13726883   0.405   1.792   6.328 -1.2220 -1.2130 -2.0493
   44MOL   H13826884   0.622   1.725   6.210  0.6337 -0.4124 -0.3057
   44MOL   H13926885   0.470   1.740   6.127  2.0816  1.9343  1.0083
   44MOL   H14026886   0.637   1.624   5.961 -0.3550  1.0529  1.3825
   44MOL   H14126887   0.523   1.507   6.017  0.9475 -1.3255 -1.0317
   44MOL   H14226888   0.793   1.552   6.133  1.2281 -0.3681 -1.4230
   44MOL   H14326889   0.672   1.437   6.196 -1.5408 -1.4570 -1.6874
   44MOL   H14426890   0.688   1.326   5.962  0.3435 -0.9179  1.0203
   44MOL   H14526891   0.813   1.438   5.904 -0.3653  0.9587  0.3561
   44MOL   H14626892   0.965   1.372   6.099  1.7644 -0.1475 -1.2196
   44MOL   H14726893   0.858   1.251   6.134 -2.9787  0.5563 -0.5331
   44MOL   H14826894   1.017   1.270   5.877 -0.5187 -2.1533 -2.0038
   44MOL   H14926895   0.874   1.171   5.888  0.8789 -1.3690 -0.1254
   44MOL   H15026896   1.131   1.133   6.049  2.4692 -1.7408 -2.6234
   44MOL   H15126897   0.972   1.052   6.087  0.1625 -0.7196  0.1787
   44MOL   H15226898   1.127   1.008   5.844 -0.0403 -0.1647 -0.0363
   44MOL   H15326899   0.960   0.968   5.849 -1.1863 -0.8179  1.2365
   44MOL   H15426900   1.074   0.882   5.963 -0.0496  0.7950  0.4006
   44MOL   H15526901   0.623   1.772   6.428 -0.8876 -1.5870 -1.9509
   44MOL   H15626902   0.500   1.802   6.549 -1.0324 -1.1204  0.0011
   44MOL   C15726903   0.597   1.598   6.566  0.2366  0.1234 -0.1202
   44MOL   O15826904   0.513   1.559   6.679  0.2727  0.0182 -0.3237
   44MOL   C15926905   0.498   1.418   6.691 -0.8621 -0.2546 -0.0682
   44MOL   C16026906   0.395   1.392   6.802 -0.4350  0.2640 -0.1528
   44MOL   C16126907   0.411   1.256   6.870  0.1359 -0.0108  0.0702
   44MOL   C16226908   0.371   1.139   6.778 -0.1530  0.6463 -0.5070
   44MOL   C16326909   0.384   1.005   6.844  0.1951  0.1008  0.1665
   44MOL   C16426910   0.314   0.893   6.770  0.1178 -0.6569  0.9081
   44MOL   C16526911   0.382   0.858   6.629 -0.5155  0.0401  0.3810
   44MOL   C16626912   0.289   0.771   6.552 -0.0114 -0.0580 -0.4172
   44MOL   C16726913   0.737   1.632   6.630 -0.4965  0.7998  0.0804
   44MOL   H16826914   0.606   1.514   6.497 -0.1455 -0.9523  1.1193
   44MOL   H16926915   0.595   1.379   6.720 -1.4388  0.6182  3.2256
   44MOL   H17026916   0.462   1.388   6.592 -0.6595  2.1122 -0.8877
   44MOL   H17126917   0.293   1.416   6.774 -0.3799  1.4828  0.6801
   44MOL   H17226918   0.398   1.475   6.873 -1.2163  0.2890 -0.1413
   44MOL   H17326919   0.510   1.237   6.911  0.0110 -2.8350 -0.8315
   44MOL   H17426920   0.344   1.254   6.956  0.2302 -0.6012  0.1291
   44MOL   H17526921   0.271   1.143   6.735  0.0416 -0.6066 -1.0946
   44MOL   H17626922   0.433   1.141   6.688 -2.7260 -0.0154 -2.3483
   44MOL   H17726923   0.492   0.986   6.847 -0.1180 -1.7361  0.4301
   44MOL   H17826924   0.342   1.012   6.944 -0.1272 -0.0856  0.0424
   44MOL   H17926925   0.208   0.912   6.760  0.6504  2.2393  0.2975
   44MOL   H18026926   0.330   0.810   6.838  1.7781 -0.9476  0.2077
   44MOL   H18126927   0.418   0.944   6.573  1.3433 -1.2181 -0.4173
   44MOL   H18226928   0.479   0.812   6.647 -1.2191 -1.2151  1.0303
   44MOL   H18326929   0.323   0.758   6.449  0.0522  0.9969 -0.5413
   44MOL   H18426930   0.188   0.812   6.542 -1.0747 -2.7936 -1.4864
   44MOL   H18526931   0.280   0.673   6.598  2.2637  0.3939  1.0705
   44MOL   H18626932   0.734   1.731   6.675  4.0668  1.8350 -1.6111
   44MOL   H18726933   0.757   1.566   6.715 -1.0673 -1.1462 -1.2865
   44MOL   C18826934   0.851   1.611   6.534  0.1735 -0.0117 -0.4706
   44MOL   O18926935   0.892   1.479   6.552 -0.5133  0.2474  0.1223
   44MOL   C19026936   0.861   1.403   6.443 -0.2043 -0.4850 -0.2807
   44MOL   C19126937   0.892   1.254   6.471 -0.5647 -0.5776 -0.4810
   44MOL   C19226938   0.808   1.181   6.589 -0.0107 -0.6383  0.1823
   44MOL   C19326939   0.851   1.034   6.627  0.1599 -0.3098 -0.5000
   44MOL   C19426940   0.767   0.974   6.745 -0.4506 -0.0128  0.4440
   44MOL   C19526941   0.837   0.843   6.790 -0.0715 -0.1806 -0.1806
   44MOL   C19626942   0.838   0.722   6.694 -0.3990  0.1771 -0.0420
   44MOL   C19726943   0.699   0.663   6.669 -0.3342  0.3010 -0.2395
   44MOL   C19826944   0.977   1.690   6.568  0.1521  0.0011 -0.4200
   44MOL   H19926945   0.822   1.645   6.434 -2.1608 -0.0951  0.1738
   44MOL   H20026946   0.760   1.408   6.402 -0.3157 -2.2451 -0.2637
   44MOL   H20126947   0.928   1.421   6.359 -0.2399  1.3402  0.0660
   44MOL   H20226948   0.996   1.236   6.499 -0.9597 -2.8773 -0.3954
   44MOL   H20326949   0.878   1.206   6.374 -2.2244  1.0905 -1.1072
   44MOL   H20426950   0.800   1.237   6.682 -1.7807  0.6744 -0.7446
   44MOL   H20526951   0.705   1.188   6.556  0.5666  1.0679 -1.3869
   44MOL   H20626952   0.834   0.975   6.537 -2.7480 -0.0954 -0.1238
   44MOL   H20726953   0.958   1.032   6.647  0.2299  1.4412 -0.6053
   44MOL   H20826954   0.765   1.041   6.831  1.3293  1.2385 -0.4468
   44MOL   H20926955   0.664   0.966   6.711  0.2149 -2.0633 -1.2433
   44MOL   H21026956   0.782   0.799   6.873 -0.4330 -0.7852 -0.7336
   44MOL   H21126957   0.939   0.857   6.824  1.1671  0.9535 -4.0854
   44MOL   H21226958   0.886   0.751   6.600  2.8898  1.4384  1.9534
   44MOL   H21326959   0.909   0.648   6.730  0.4166  1.3023  0.6877
   44MOL   H21426960   0.627   0.667   6.751 -1.7762  1.4042 -1.5222
   44MOL   H21526961   0.725   0.564   6.633 -0.0116  0.0162  0.7685
   44MOL   H21626962   0.660   0.695   6.572 -0.9040  0.1541 -0.0611
   44MOL   H21726963   0.993   1.695   6.676 -0.8166  0.9967 -0.3038
   44MOL   H21826964   1.065   1.651   6.517 -0.9925  0.8252 -3.1053
   44MOL   C21926965   0.980   1.842   6.531 -0.7952 -0.0594  0.2929
   44MOL   O22026966   0.962   1.855   6.392  0.0121 -0.0889 -0.2206
   44MOL   C22126967   0.888   1.967   6.349 -0.6806 -0.7625  0.1490
   44MOL   C22226968   0.841   1.925   6.208 -0.8835 -0.0316 -0.4757
   44MOL   C22326969   0.709   2.002   6.177 -0.1069  0.2955  0.2785
   44MOL   C22426970   0.657   1.998   6.028  0.1025  0.2495  0.2153
   44MOL   C22526971   0.515   2.062   6.010 -0.7322  0.3164  0.8433
   44MOL   C22626972   0.471   2.037   5.870 -0.1129  0.0104 -0.2946
   44MOL   C22726973   0.326   2.085   5.828 -0.9674  0.9296 -0.3083
   44MOL   C22826974   0.293   2.032   5.687 -0.0451  0.5682 -0.3004
   44MOL   C22926975   1.103   1.926   6.585  0.0046 -0.0379  0.3199
   44MOL   H23026976   0.892   1.881   6.582 -0.6895  2.1979 -1.1497
   44MOL   H23126977   0.956   2.050   6.330 -0.0852 -1.6718 -1.8041
   44MOL   H23226978   0.808   1.995   6.417  1.1070 -0.2817  2.0845
   44MOL   H23326979   0.837   1.816   6.204  0.5696 -0.0933 -0.4912
   44MOL   H23426980   0.918   1.959   6.139  0.7738 -1.3651  0.6877
   44MOL   H23526981   0.628   1.957   6.234  0.5656  0.3483  1.2768
   44MOL   H23626982   0.726   2.105   6.208  0.3827  0.0573  0.8031
   44MOL   H23726983   0.728   2.045   5.961 -2.1494  1.8033 -1.1485
   44MOL   H23826984   0.672   1.898   5.989  1.5981  1.3678 -2.1762
   44MOL   H23926985   0.453   2.005   6.079  0.4350  0.0982  1.7329
   44MOL   H24026986   0.512   2.169   6.032  0.1854  0.4138  0.5318
   44MOL   H24126987   0.475   1.929   5.861  0.3405 -0.1497  1.5732
   44MOL   H24226988   0.543   2.069   5.795 -0.9346  0.6327 -0.8338
   44MOL   H24326989   0.255   2.047   5.901 -0.6570  1.7506  0.4337
   44MOL   H24426990   0.326   2.194   5.830 -0.6745  0.9073  0.9333
   44MOL   H24526991   0.359   2.070   5.609 -1.6236  1.1620 -1.3890
   44MOL   H24626992   0.192   2.055   5.653 -1.3936 -1.5807  2.0871
   44MOL   H24726993   0.289   1.923   5.693 -3.0017  0.5387 -1.9073
   44MOL   H24826994   1.194   1.881   6.546  0.2894  2.6880 -2.3918
   44MOL   H24926995   1.095   2.017   6.526 -3.7265 -2.0398 -2.4816
   44MOL   C25026996   1.111   1.946   6.736 -0.4216 -0.3457 -0.1525
   44MOL   O25126997   0.982   1.986   6.772  0.7788 -0.4121 -0.0412
   44MOL   C25226998   0.956   1.999   6.912  0.4384  0.6787 -0.5474
   44MOL   C25326999   0.855   1.904   6.971 -0.3163  1.0253 -0.3495
   44MOL   C25427000   0.713   1.928   6.911 -0.6699 -0.1660  0.4026
   44MOL   C25527001   0.603   1.831   6.960 -0.1132  0.2397  0.5557
   44MOL   C25627002   0.465   1.877   6.926  0.2951 -1.6104  0.0773
   44MOL   C25727003   0.363   1.759   6.923  0.2057 -1.0167  0.0939
   44MOL   C25827004   0.211   1.802   6.917 -0.4685 -1.3287  0.0577
   44MOL   C25927005   0.115   1.693   6.872 -0.0264 -0.2994  0.6666
   44MOL   C26027006   1.222   2.052   6.766  0.6529 -0.0550 -0.7393
   44MOL   H26127007   1.126   1.853   6.792 -1.1614  0.5871  1.6173
   44MOL   H26227008   0.912   2.098   6.924  1.6784  1.3369 -1.3331
   44MOL   H26327009   1.045   1.998   6.973  1.3037  0.7820 -1.7876
   44MOL   H26427010   0.850   1.918   7.079 -3.7073 -0.8881 -0.2011
   44MOL   H26527011   0.884   1.799   6.962 -2.7188  0.2764  0.2677
   44MOL   H26627012   0.670   2.022   6.946  0.6365  0.1734  1.1145
   44MOL   H26727013   0.717   1.926   6.802  3.3495 -1.0969  0.4970
   44MOL   H26827014   0.608   1.733   6.913 -2.6956  0.7374 -0.8859
   44MOL   H26927015   0.608   1.796   7.063 -0.3826 -1.7732 -0.0880
   44MOL   H27027016   0.439   1.946   7.006 -0.6968  0.1998 -1.7670
   44MOL   H27127017   0.472   1.933   6.832  0.8120 -2.4725 -0.4081
   44MOL   H27227018   0.373   1.709   7.019  0.4176  1.9608  1.7068
   44MOL   H27327019   0.384   1.693   6.839 -2.8774 -1.3593 -0.4549
   44MOL   H27427020   0.172   1.856   7.003  1.2375 -1.5999  1.0325
   44MOL   H27527021   0.207   1.877   6.838 -2.5630 -1.3126  0.1575
   44MOL   H27627022   0.109   1.613   6.946 -0.7470  0.0593  1.0009
   44MOL   H27727023   0.149   1.640   6.783 -0.7598  2.7616 -1.5120
   44MOL   H27827024   0.014   1.728   6.851 -0.2854  0.5353  3.1650
   44MOL   H27927025   1.251   2.101   6.673  2.2655 -3.7954 -2.2951
   44MOL   H28027026   1.174   2.125   6.831 -1.7027 -2.2689  0.1044
   44MOL   C28127027   1.338   1.985   6.846  0.3656 -0.2729  0.4838
   44MOL   O28227028   1.291   1.957   6.977  0.2691  0.1715  0.2575
   44MOL   C28327029   1.353   1.851   7.032  0.5203  0.8503  0.6666
   44MOL   C28427030   1.295   1.823   7.175 -0.2990  0.2609  0.1733
   44MOL   C28527031   1.156   1.774   7.193 -0.0559 -0.1969 -0.4920
   44MOL   C28627032   1.116   1.753   7.343  0.0898  0.2949 -0.4352
   44MOL   C28727033   1.137   1.618   7.409  0.5732 -0.4081  0.6390
   44MOL   C28827034   1.277   1.596   7.470 -0.5523 -0.1212 -0.2916
   44MOL   C28927035   1.298   1.453   7.508  0.2021  0.3920  0.2906
   44MOL   C29027036   1.441   1.427   7.553 -1.1042  0.5815 -0.0774
   44MOL   C29127037   1.456   2.084   6.862 -0.2820  0.2366  0.2838
   44MOL   H29227038   1.383   1.905   6.787 -2.6487 -2.0546  0.5419
   44MOL   H29327039   1.458   1.876   7.046  1.0944 -1.6634  1.1523
   44MOL   H29427040   1.334   1.773   6.958 -2.2551  2.6753 -0.6451
   44MOL   H29527041   1.302   1.911   7.240  0.3132  0.9808 -0.8557
   44MOL   H29627042   1.358   1.743   7.213  0.0976  1.1566  1.4360
   44MOL   H29727043   1.091   1.851   7.153  0.0780 -0.7296 -1.7765
   44MOL   H29827044   1.131   1.682   7.140 -2.6475 -0.1582  0.5977
   44MOL   H29927045   1.163   1.825   7.409  1.6235 -2.9408  2.1078
   44MOL   H30027046   1.008   1.770   7.340 -0.4957 -2.8130  0.9426
   44MOL   H30127047   1.067   1.606   7.492  0.9745  0.7653  1.1626
   44MOL   H30227048   1.110   1.542   7.336 -0.1843 -0.0807  0.5708
   44MOL   H30327049   1.281   1.663   7.556  0.6468 -1.3416  0.6200
   44MOL   H30427050   1.356   1.619   7.398 -1.2883 -0.6252 -1.2727
   44MOL   H30527051   1.237   1.428   7.595  0.2975  1.5723  0.7149
   44MOL   H30627052   1.260   1.373   7.445 -1.8636  1.1574  0.4960
   44MOL   H30727053   1.470   1.475   7.646  0.7683  0.1330 -0.3896
   44MOL   H30827054   1.523   1.453   7.485  1.1843 -2.7996  1.2292
   44MOL   H30927055   1.449   1.319   7.565  0.2030  0.5558 -1.0251
   44MOL   H31027056   1.411   2.169   6.912 -3.1308 -1.5374  0.8974
   44MOL   H31127057   1.529   2.053   6.937 -1.0843 -2.0787  0.1445
   44MOL   C31227058   1.531   2.117   6.738 -0.3184 -0.7840  0.5797
   44MOL   O31327059   1.590   2.002   6.684 -0.0542  0.1277 -0.7558
   44MOL   C31427060   1.558   1.975   6.542  0.1994  0.3200  0.7556
   44MOL   C31527061   1.640   1.856   6.486 -0.0943  0.9515 -0.7349
   44MOL   C31627062   1.552   1.733   6.467 -0.2044 -0.4340  0.3092
   44MOL   C31727063   1.608   1.602   6.425 -0.7085  0.0061 -0.4599
   44MOL   C31827064   1.659   1.611   6.280  0.0870  0.2324 -0.1846
   44MOL   C31927065   1.734   1.485   6.228 -0.8446  0.1791  0.0773
   44MOL   C32027066   1.839   1.426   6.328 -0.3487  0.2379  0.5302
   44MOL   C32127067   1.920   1.316   6.270  0.3598  0.4301  0.3528
   44MOL   C32227068   1.643   2.221   6.764 -0.5933  0.5007  0.3361
   44MOL   H32327069   1.456   2.159   6.671 -0.4663 -3.3123 -0.8948
   44MOL   H32427070   1.579   2.064   6.481  0.8368 -0.7937 -0.6969
   44MOL   H32527071   1.451   1.952   6.537  0.7364 -1.8731 -1.9256
   44MOL   H32627072   1.718   1.826   6.556 -1.6965  3.0900  2.0610
   44MOL   H32727073   1.690   1.887   6.394 -1.0059  0.2645 -1.4636
   44MOL   H32827074   1.502   1.719   6.563 -1.9230 -0.9750 -0.6465
   44MOL   H32927075   1.466   1.756   6.405 -0.6645  0.1126  1.1344
   44MOL   H33027076   1.684   1.575   6.497 -1.5986 -1.1774  0.0574
   44MOL   H33127077   1.535   1.521   6.428  0.4855 -1.0916 -0.3350
   44MOL   H33227078   1.570   1.625   6.217  1.3702  0.5200 -1.9684
   44MOL   H33327079   1.723   1.697   6.258 -1.2851  1.1508 -0.6944
   44MOL   H33427080   1.777   1.497   6.128 -0.5207  0.7834  0.2862
   44MOL   H33527081   1.652   1.415   6.215  0.2074 -0.9289 -0.7355
   44MOL   H33627082   1.900   1.504   6.372 -1.1206  1.3434 -0.3334
   44MOL   H33727083   1.776   1.384   6.406 -1.5930 -0.7630 -0.9768
   44MOL   H33827084   1.994   1.348   6.198 -1.3146  1.5581 -0.9024
   44MOL   H33927085   1.857   1.253   6.206 -1.1040  0.6530  1.5267
   44MOL   H34027086   1.963   1.259   6.352  0.9306  0.9441  0.4121
   44MOL   H34127087   1.707   2.181   6.842  0.6963 -0.0081 -0.9521
   44MOL   H34227088   1.710   2.233   6.679 -1.0840  0.5444 -0.0516
   44MOL   C34327089   1.583   2.360   6.811  1.2024 -0.1941  0.1668
   44MOL   O34427090   1.533   2.429   6.695  0.5312  0.3031 -0.3612
   44MOL   C34527091   1.403   2.482   6.705 -0.1754  0.8289  0.1862
   44MOL   C34627092   1.354   2.495   6.563  0.4430 -0.2268  0.6280
   44MOL   C34727093   1.331   2.359   6.492 -0.5149  0.6348  0.2603
   44MOL   C34827094   1.251   2.400   6.369 -0.3928  0.1604 -0.4270
   44MOL   C34927095   1.195   2.274   6.296 -0.3137 -0.5615 -0.1914
   44MOL   C35027096   1.156   2.303   6.151  0.0981 -0.9442 -0.4676
   44MOL   C35127097   1.067   2.191   6.078  0.3138  0.5171  0.1690
   44MOL   C35227098   1.046   2.228   5.930 -0.0336  0.1583 -0.2774
   44MOL   C35327099   1.700   2.446   6.864  0.1244  0.4031 -0.4336
   44MOL   H35427100   1.513   2.361   6.895  0.0355 -1.2163 -0.7702
   44MOL   H35527101   1.409   2.579   6.754 -0.0486  0.6560  0.5125
   44MOL   H35627102   1.331   2.419   6.757  0.3619  0.8593  0.9715
   44MOL   H35727103   1.424   2.558   6.507 -1.1448  0.8230 -0.2233
   44MOL   H35827104   1.265   2.557   6.572  0.9799  0.3864  1.8797
   44MOL   H35927105   1.431   2.322   6.466  0.7261  2.4106  2.3737
   44MOL   H36027106   1.264   2.298   6.552 -2.9638  2.8335 -0.1767
   44MOL   H36127107   1.176   2.476   6.392  0.5000  0.3910  1.7980
   44MOL   H36227108   1.323   2.456   6.309  0.3703 -1.1419 -0.7442
   44MOL   H36327109   1.258   2.188   6.315 -1.7333 -1.6124 -0.2211
   44MOL   H36427110   1.107   2.232   6.344 -0.5552  0.5007  0.3139
   44MOL   H36527111   1.251   2.312   6.098  0.2402 -2.9479 -0.5799
   44MOL   H36627112   1.111   2.402   6.139  1.0268 -0.3760  0.5857
   44MOL   H36727113   1.103   2.089   6.087 -1.2688 -0.1139 -0.4730
   44MOL   H36827114   0.968   2.192   6.125 -0.4039 -0.1253 -1.2998
   44MOL   H36927115   1.009   2.329   5.912  0.1315  0.1987 -0.3931
   44MOL   H37027116   0.986   2.150   5.884  1.0674 -0.9458  0.1540
   44MOL   H37127117   1.142   2.231   5.879  0.5195 -0.0211  0.7416
   44MOL   H37227118   1.783   2.435   6.794 -0.5471  0.2766 -1.2157
   44MOL   H37327119   1.667   2.549   6.875 -0.8303  0.1052 -0.4141
   44MOL   C37427120   1.759   2.397   7.000 -0.3925  0.0514  0.4179
   44MOL   O37527121   1.661   2.407   7.098 -0.6841  0.8059  0.2817
   44MOL   C37627122   1.619   2.285   7.154 -0.3611 -0.1495  0.0140
   44MOL   C37727123   1.562   2.318   7.295 -0.2926 -0.3618  0.2118
   44MOL   C37827124   1.485   2.193   7.350 -0.4144  0.5122  0.0372
   44MOL   C37927125   1.401   2.223   7.481  0.8431  0.1336 -0.2902
   44MOL   C38027126   1.350   2.092   7.539 -0.5545  0.0663  1.1620
   44MOL   C38127127   1.276   2.120   7.667  0.5653  0.2721  0.2406
   44MOL   C38227128   1.201   1.999   7.707 -0.0853  0.0820  0.3681
   44MOL   C38327129   1.099   2.034   0.044  0.4539 -0.4617  0.5521
   44MOL   C38427130   1.876   2.490   7.048  0.0823 -0.6441  0.1821
   44MOL   H38527131   1.793   2.295   6.987  1.2007  0.7069 -0.7054
   44MOL   H38627132   1.693   2.205   7.150 -0.0952  0.0949  0.0621
   44MOL   H38727133   1.538   2.245   7.091 -0.2294  0.2939 -0.4360
   44MOL   H38827134   1.494   2.403   7.296 -2.8006 -2.3046 -1.2811
   44MOL   H38927135   1.632   2.345   7.374 -2.1818 -2.4060  2.6538
   44MOL   H39027136   1.419   2.146   7.277 -0.5400 -2.8321  2.2136
   44MOL   H39127137   1.553   2.109   7.365  0.0192  1.0091  0.8648
   44MOL   H39227138   1.466   2.286   7.542  0.4161  1.0485 -0.7695
   44MOL   H39327139   1.319   2.291   7.458  1.6535  0.0021 -4.0212
   44MOL   H39427140   1.285   2.040   7.469  0.8381  1.3910 -1.1641
   44MOL   H39527141   1.434   2.027   7.558 -1.5450 -0.3771  4.3152
   44MOL   H39627142   1.216   2.211   7.660  1.6440  1.0303  0.6678
   44MOL   H39727143   1.343   2.140   7.750  0.1852  2.7821 -0.0274
   44MOL   H39827144   1.134   1.965   7.628 -0.5949 -3.8769  2.3356
   44MOL   H39927145   1.273   1.919   7.724  0.8954  0.6192 -1.1602
   44MOL   H40027146   1.005   2.087   0.028  0.2090 -1.4664 -1.5874
   44MOL   H40127147   1.155   2.081   0.125 -0.2467  1.2489  0.0742
   44MOL   H40227148   1.060   1.938   0.076  1.3634 -1.5613 -1.5372
   44MOL   H40327149   1.943   2.501   6.963  1.1115 -2.9730  0.6566
   44MOL   H40427150   1.844   2.591   7.072  0.0081 -0.2441 -1.5478
   44MOL   C40527151   1.960   2.431   7.163 -0.9533 -0.0846 -0.3576
   44MOL   O40627152   2.050   2.537   7.184 -0.3324 -0.6232  0.2271
   44MOL   C40727153   2.140   2.526   7.300 -0.1867 -0.0463 -0.2916
   44MOL   C40827154   2.056   2.514   7.432  0.1006  0.6598  0.0531
   44MOL   C40927155   1.945   2.624   7.430  0.4957 -0.4111 -0.2976
   44MOL   C41027156   1.853   2.609   7.559 -0.4148 -0.3618  0.5398
   44MOL   C41127157   1.717   2.680   7.543 -0.2126  0.0445  0.5137
   44MOL   C41227158   1.619   2.668   7.655  0.2276 -0.5434  0.6077
   44MOL   C41327159   1.532   2.545   7.642 -0.2650  0.4395 -0.1111
   44MOL   C41427160   1.418   2.528   7.748  0.5161 -0.7187  0.5820
   44MOL   C41527161   2.041   2.307   7.119  0.2850 -0.3846 -0.3662
   44MOL   H41627162   1.902   2.406   7.251 -0.7007 -2.5757 -0.8437
   44MOL   H41727163   2.196   2.620   7.306  1.9089 -1.2696 -0.4212
   44MOL   H41827164   2.215   2.448   7.285 -0.7497 -0.5185 -0.6692
   44MOL   H41927165   2.125   2.537   7.514  2.3941  0.0611 -1.6587
   44MOL   H42027166   2.016   2.414   7.443  2.1001 -0.0426  1.1531
   44MOL   H42127167   1.995   2.719   7.448  0.6625 -0.5964  0.2415
   44MOL   H42227168   1.883   2.622   7.340  1.0416  1.1932 -0.7155
   44MOL   H42327169   1.842   2.502   7.578 -1.2289 -0.5271 -0.7878
   44MOL   H42427170   1.903   2.662   7.639 -1.6548 -0.1167  1.1670
   44MOL   H42527171   1.752   2.782   7.558 -0.8372  0.4881 -1.0093
   44MOL   H42627172   1.688   2.685   7.439 -0.9559 -0.7828  0.6721
   44MOL   H42727173   1.548   2.748   7.674  2.1991  1.3366  0.3207
   44MOL   H42827174   1.674   2.647   7.747 -0.8747 -1.1816  1.1195
   44MOL   H42927175   1.477   2.566   7.551 -0.1790  3.0221  0.3806
   44MOL   H43027176   1.595   2.458   7.623 -1.1421  0.0988 -1.5452
   44MOL   H43127177   1.461   2.491   0.067 -2.3076 -3.3786  0.9032
   44MOL   H43227178   1.342   2.456   7.718  0.9987 -0.4534 -1.3955
   44MOL   H43327179   1.362   2.619   7.770 -1.0509 -1.0632 -1.7446
   44MOL   H43427180   2.041   2.304   7.010 -2.4667 -0.4638 -0.3841
   44MOL   H43527181   2.145   2.326   7.145 -0.3658  4.5599 -1.0618
   44MOL   C43627182   2.003   2.170   7.187 -0.0296 -0.2780  0.3257
   44MOL   O43727183   1.987   2.195   7.325  0.2593  0.0517 -0.1109
   44MOL   C43827184   1.897   2.111   7.391  0.1530 -0.3701 -0.2270
   44MOL   C43927185   1.871   2.166   7.536 -0.2132 -0.4055  0.1758
   44MOL   C44027186   1.838   2.050   7.628 -0.2088 -0.2498  0.5070
   44MOL   C44127187   1.829   2.096   7.770  0.2061  0.0644 -0.0914
   44MOL   C44227188   1.688   2.120   0.054  0.0926 -0.0628  0.5159
   44MOL   C44327189   1.686   2.186   0.193  0.1906  0.1202 -0.0078
   44MOL   C44427190   1.539   2.215   0.243  0.0948  0.3600  0.1750
   44MOL   C44527191   1.540   2.265   0.388 -0.5693 -0.4790  0.9078
   44MOL   C44627192   2.104   2.062   7.171  1.0249 -0.1124 -0.8452
   44MOL   H44727193   1.912   2.130   7.142  0.2911 -1.8717  1.0949
   44MOL   H44827194   1.807   2.109   7.329 -1.5681  1.7095  2.0900
   44MOL   H44927195   1.938   2.010   7.386  1.2868  0.1356 -1.4965
   44MOL   H45027196   1.786   2.234   7.527  0.2562 -0.1212 -2.4595
   44MOL   H45127197   1.963   2.215   7.565 -0.5887  0.6985 -0.4821
   44MOL   H45227198   1.738   2.013   7.603  0.3100 -0.4505 -1.3730
   44MOL   H45327199   1.906   1.965   7.615 -0.3183 -0.3177  0.3853
   44MOL   H45427200   1.883   2.033   0.067 -1.3301 -0.4910  0.6018
   44MOL   H45527201   1.879   2.192   0.010  1.6843 -0.8271  0.8894
   44MOL   H45627202   1.633   2.185   7.759 -0.4680  0.5515  1.5119
   44MOL   H45727203   1.639   2.024   0.068 -1.1752  0.4291 -0.3456
   44MOL   H45827204   1.743   2.278   0.194  0.3305  0.0423 -0.7671
   44MOL   H45927205   1.742   2.127   0.266 -0.9091  0.9992  1.5634
   44MOL   H46027206   1.492   2.286   0.175  0.5058  0.6791  0.2177
   44MOL   H46127207   1.476   2.126   0.245  2.8917 -1.7382 -1.5778
   44MOL   H46227208   1.603   2.352   0.405 -2.3647  0.5087  2.6985
   44MOL   H46327209   1.580   2.189   0.456 -1.5711 -2.2322 -0.4216
   44MOL   H46427210   1.438   2.298   0.406 -0.8911  0.4877 -2.3657
   44MOL   H46527211   2.201   2.091   7.212  1.4465 -2.2800 -0.2835
   44MOL   H46627212   2.071   1.971   7.220  0.0849  1.2068  1.0534
   44MOL   C46727213   2.112   2.022   7.025 -0.0799  0.0364  0.4415
   44MOL   O46827214   1.995   1.933   7.012  0.5550 -0.3819  0.8868
   44MOL   C46927215   1.957   1.927   6.873 -0.6005 -0.2037  0.2633
   44MOL   C47027216   1.916   1.781   6.829 -0.1113  0.0319  0.8329
   44MOL   C47127217   1.796   1.729   6.906  0.0018  0.1935 -0.1571
   44MOL   C47227218   1.795   1.578   6.920 -0.1850 -0.0384  0.2705
   44MOL   C47327219   1.678   1.535   7.008  0.8536  0.3008  0.3339
   44MOL   C47427220   1.665   1.394   7.063 -0.2848 -0.1264  0.1253
   44MOL   C47527221   1.540   1.393   7.152  0.6817 -0.1232 -0.0846
   44MOL   C47627222   1.501   1.264   7.220  0.1119 -0.9274  0.3231
   44MOL   C47727223   2.239   1.937   7.002 -0.4454  0.6542 -0.0326
   44MOL   H47827224   2.122   2.106   6.956 -1.9932 -1.9487 -2.3617
   44MOL   H47927225   2.046   1.950   6.814 -1.6350  0.8536 -0.9146
   44MOL   H48027226   1.879   1.999   6.851 -1.3419 -0.1908  2.7252
   44MOL   H48127227   2.010   1.730   6.849  0.9136  1.7489  0.5047
   44MOL   H48227228   1.893   1.766   6.723 -0.9216 -2.8522  1.3776
   44MOL   H48327229   1.810   1.761   7.010  1.2226 -0.1567 -0.2084
   44MOL   H48427230   1.705   1.770   6.862 -0.4156 -3.0464 -2.4839
   44MOL   H48527231   1.787   1.527   6.824 -0.7515 -3.2492  1.9452
   44MOL   H48627232   1.883   1.539   6.972 -0.7232  0.4493  1.5753
   44MOL   H48727233   1.681   1.600   7.096 -0.4410  1.7096 -0.6438
   44MOL   H48827234   1.588   1.556   6.951  1.6805 -0.4354 -1.2848
   44MOL   H48927235   1.754   1.360   7.116  0.4560  0.5324 -0.6781
   44MOL   H49027236   1.655   1.326   6.978 -2.0018  1.8356 -1.3062
   44MOL   H49127237   1.569   1.455   7.237  0.0844  1.9520 -1.3617
   44MOL   H49227238   1.451   1.438   7.107  0.7369  1.3058  1.2076
   44MOL   H49327239   1.594   1.220   7.257  0.0840 -1.4136 -0.1796
   44MOL   H49427240   1.449   1.194   7.154  0.8595  0.9454 -2.3473
   44MOL   H49527241   1.441   1.273   7.310 -1.6171 -0.7996 -0.8178
   44MOL   H49627242   2.237   1.852   7.070 -1.0681  0.2110 -0.6042
   44MOL   H49727243   2.228   1.899   6.900 -1.2578 -1.4193  0.8071
   44MOL   C49827244   2.378   2.014   6.988  0.0950  0.0416 -0.3522
   44MOL   O49927245   2.364   2.101   6.876  0.1200 -0.0671  0.2573
   44MOL   C50027246   2.368   2.239   6.896 -1.1023 -0.2791  0.1385
   44MOL   C50127247   2.333   2.312   6.767 -0.0146 -0.2279 -0.2977
   44MOL   C50227248   2.189   2.281   6.725  0.0738  0.0934  0.4464
   44MOL   C50327249   2.157   2.347   6.591  0.4200  0.0012 -0.1487
   44MOL   C50427250   2.043   2.275   6.514 -0.1229  0.1844  0.0264
   44MOL   C50527251   2.018   2.352   6.376 -0.0933  0.0312 -0.1264
   44MOL   C50627252   1.932   2.271   6.289 -0.4922  0.0456 -0.8901
   44MOL   C50727253   1.781   2.283   6.336  0.3871 -0.4817  0.8643
   44MOL   C50827254   2.493   1.910   6.970 -0.2727  0.2252  0.6899
   44MOL   H50927255   2.382   2.067   7.083 -1.5375 -0.5883  0.0947
   44MOL   H51027256   2.467   2.268   6.932 -0.9124  1.0424 -1.4197
   44MOL   H51127257   2.297   2.281   6.967  2.0740  4.9727  0.4207
   44MOL   H51227258   2.405   2.273   6.696  0.6743  0.5769 -0.0507
   44MOL   H51327259   2.347   2.417   6.793 -0.5689  0.4806 -2.7322
   44MOL   H51427260   2.179   2.173   6.733  1.2600 -0.0474  0.1690
   44MOL   H51527261   2.122   2.325   6.798  0.5678 -1.7814  2.0768
   44MOL   H51627262   2.154   2.456   6.599 -0.4769 -0.0954  0.9130
   44MOL   H51727263   2.245   2.336   6.527  0.8945  0.7876  0.3480
   44MOL   H51827264   2.066   2.170   6.500 -0.7135  0.1765 -0.9119
   44MOL   H51927265   1.951   2.270   6.571  0.5514 -0.4072  1.0832
   44MOL   H52027266   2.111   2.361   6.320 -1.0903  0.1035 -1.8005
   44MOL   H52127267   1.978   2.452   6.389 -2.6425 -1.1822  1.7041
   44MOL   H52227268   1.938   2.299   6.184  3.1805 -0.1626 -0.8012
   44MOL   H52327269   1.969   2.168   6.296  1.1992  0.7369  0.6263
   44MOL   H52427270   1.737   2.380   6.313  2.0342  0.6706  2.3892
   44MOL   H52527271   1.756   2.269   6.442  0.4763  0.4054  1.0083
   44MOL   H52627272   1.725   2.211   6.277 -0.6239  0.1762  1.0038
   44MOL   H52727273   2.456   1.838   6.897 -1.1200  0.1910  1.1476
   44MOL   H52827274   2.583   1.960   6.933  0.2789  0.3716  2.2126
   44MOL   C52927275   2.526   1.839   7.095 -0.1456  0.2048  0.0475
   44MOL   O53027276   2.566   1.919   7.203  0.5953  0.3455 -0.2115
   44MOL   C53127277   2.480   1.904   7.321  0.3581 -0.2794  0.0678
   44MOL   C53227278   2.517   1.998   7.434  0.3175  0.6421 -0.2870
   44MOL   C53327279   2.498   2.144   7.392 -0.8098  0.3881  0.4632
   44MOL   C53427280   2.476   2.225   7.518  0.6425  0.9025 -0.7284
   44MOL   C53527281   2.462   2.380   7.488 -0.3867  0.5344 -0.9929
   44MOL   C53627282   2.398   2.460   7.595  0.4926 -0.0786  0.6106
   44MOL   C53727283   2.460   2.463   7.734  0.4654 -0.4615 -0.3330
   44MOL   C53827284   2.388   2.579   0.030 -0.2638 -0.6415  0.5113
   44MOL   C53927285   2.635   1.735   7.083 -0.8542  1.1528  0.4320
   44MOL   H54027286   2.432   1.789   7.118  1.0720 -1.5324  1.4005
   44MOL   H54127287   2.374   1.916   7.297  0.8086  1.8538 -0.9673
   44MOL   H54227288   2.498   1.804   7.361  1.2778 -0.3269 -0.4570
   44MOL   H54327289   2.622   1.986   7.460 -0.0457  0.3415  1.1443
   44MOL   H54427290   2.449   1.971   7.515 -1.7802 -1.1008 -2.5443
   44MOL   H54527291   2.587   2.183   7.342 -1.6562  0.8803 -0.6595
   44MOL   H54627292   2.414   2.157   7.324 -0.0613  1.6174 -0.2443
   44MOL   H54727293   2.379   2.188   7.552  0.6930  1.5546  0.1288
   44MOL   H54827294   2.547   2.204   7.598  1.2752  1.1968 -1.2070
   44MOL   H54927295   2.562   2.410   7.459  0.6115 -2.4983 -0.9020
   44MOL   H55027296   2.392   2.386   7.405 -1.4871  1.5799 -0.0206
   44MOL   H55127297   2.296   2.424   7.609 -0.0662  0.7045 -1.2639
   44MOL   H55227298   2.379   2.561   7.559  0.1395 -0.4980 -0.3976
   44MOL   H55327299   2.453   2.364   0.005 -0.6888 -0.4209 -0.4075
   44MOL   H55427300   2.564   2.495   7.729  0.3667 -0.0424  0.1213
   44MOL   H55527301   2.433   2.587   0.129  0.6758 -0.9312  0.1131
   44MOL   H55627302   2.280   2.565   0.035 -0.0632 -2.1361  0.9359
   44MOL   H55727303   2.391   2.675   7.755 -1.4224  0.0418  1.7484
   44MOL   H55827304   2.721   1.780   7.035 -0.0674 -1.3266 -0.5426
   44MOL   H55927305   2.675   1.713   7.182 -0.4296  0.9206  0.2098
   44MOL   C56027306   2.574   1.602   7.024  0.3167 -0.1091 -0.0085
   44MOL   O56127307   2.457   1.568   7.101 -0.2826 -0.0700  0.1789
   44MOL   C56227308   2.362   1.472   7.043 -0.6104 -0.7171 -0.2205
   44MOL   C56327309   2.234   1.457   7.120 -0.2366  0.5551  0.2938
   44MOL   C56427310   2.147   1.584   7.160 -0.2943 -0.4348 -0.1459
   44MOL   C56527311   2.027   1.553   7.249  0.3223 -0.3318  0.6235
   44MOL   C56627312   1.948   1.686   7.276 -0.4203  0.1595 -0.0871
   44MOL   C56727313   1.833   1.667   7.373  0.0662  0.5934 -0.9846
   44MOL   C56827314   1.716   1.758   7.338 -0.7837 -0.1363 -0.3146
   44MOL   C56927315   1.620   1.761   7.454 -0.1500 -0.1176 -0.4863
   44MOL   C57027316   2.667   1.487   7.063 -0.2813 -0.4890  0.1041
   44MOL   H57127317   2.555   1.606   6.917 -1.0086 -0.2779  0.2153
   44MOL   H57227318   2.403   1.373   7.020  0.2242  0.0882 -2.4282
   44MOL   H57327319   2.334   1.512   6.945  1.3175  0.3950 -0.3637
   44MOL   H57427320   2.254   1.403   7.212 -0.7454 -0.5581 -0.2304
   44MOL   H57527321   2.169   1.397   7.055  1.6674 -1.8904  0.5845
   44MOL   H57627322   2.216   1.653   7.209  1.8898 -1.2482 -1.9952
   44MOL   H57727323   2.109   1.632   7.069 -0.9857  0.6452  0.6984
   44MOL   H57827324   1.973   1.467   7.209  0.7785  0.3927 -1.6136
   44MOL   H57927325   2.061   1.498   7.337  1.1107 -2.4879 -0.9716
   44MOL   H58027326   2.009   1.775   7.291  0.7886 -0.3796 -1.6510
   44MOL   H58127327   1.895   1.700   7.182 -1.6852  2.8641  0.9609
   44MOL   H58227328   1.870   1.675   7.475  0.0486 -3.0297 -0.6176
   44MOL   H58327329   1.793   1.566   7.366  1.1697 -0.0127  0.9326
   44MOL   H58427330   1.750   1.856   7.303  1.7100 -1.3307 -1.3919
   44MOL   H58527331   1.662   1.713   7.255  1.3354  0.0054 -1.8119
   44MOL   H58627332   1.579   1.661   7.465  0.6158 -0.2140  1.7500
   44MOL   H58727333   1.536   1.830   7.439  1.1216  1.3901 -0.8693
   44MOL   H58827334   1.668   1.778   7.550 -0.8771  2.0428 -0.4664
   44MOL   H58927335   2.695   1.490   7.169  1.9249 -2.5309 -0.3755
   44MOL   H59027336   2.629   1.385   7.051 -0.8138 -0.4571  1.4079
   44MOL   C59127337   2.799   1.482   6.984  1.0225  0.5613  0.4169
   44MOL   O59227338   2.765   1.472   6.850  0.0315  0.2543  0.3062
   44MOL   C59327339   2.865   1.460   6.753 -0.5740 -0.6952  0.1983
   44MOL   C59427340   2.817   1.496   6.613 -0.1257 -0.0854 -0.5285
   44MOL   C59527341   2.696   1.416   6.560  0.6507 -0.0944 -0.4715
   44MOL   C59627342   2.557   1.468   6.612  0.1231  0.2460  0.4666
   44MOL   C59727343   2.438   1.410   6.534  0.0323 -0.3357  0.2765
   44MOL   C59827344   2.307   1.467   6.580  0.0654 -0.2528 -0.3438
   44MOL   C59927345   2.208   1.356   6.600 -0.1975 -0.2439  0.1995
   44MOL   C60027346   2.237   1.246   6.703  0.6966 -0.5760  0.8016
   44MOL   C60127347   2.896   1.385   7.037  0.2196  0.5471  0.0147
   44MOL   H60227348   2.853   1.576   6.994  1.4408  0.4304 -0.4880
   44MOL   H60327349   2.902   1.358   6.764 -0.4079 -0.6840 -0.2534
   44MOL   H60427350   2.946   1.529   6.777 -1.7314  0.3209  1.2522
   44MOL   H60527351   2.898   1.470   6.544 -0.2359 -0.6433 -0.4496
   44MOL   H60627352   2.789   1.601   6.604 -1.4161 -0.3643  0.1074
   44MOL   H60727353   2.695   1.412   6.451  2.0617  2.9719 -0.6367
   44MOL   H60827354   2.705   1.310   6.583 -0.4146  0.0721  0.7745
   44MOL   H60927355   2.552   1.432   6.715 -0.2861 -0.4955  0.1931
   44MOL   H61027356   2.553   1.574   6.639  1.5856  0.5903 -0.6189
   44MOL   H61127357   2.453   1.441   6.431 -0.2387 -2.1688 -0.3323
   44MOL   H61227358   2.442   1.302   6.519  1.0179 -0.0629 -1.5210
   44MOL   H61327359   2.267   1.546   6.516 -0.0004  0.4681  0.5822
   44MOL   H61427360   2.328   1.520   6.673  2.8806 -1.3063 -0.3448
   44MOL   H61527361   2.123   1.410   6.642  0.9392  1.3187  0.5605
   44MOL   H61627362   2.174   1.316   6.505  2.4979 -0.3267 -0.7744
   44MOL   H61727363   2.148   1.183   6.705 -0.0399  0.4503  0.8633
   44MOL   H61827364   2.258   1.286   6.803  0.5939 -2.6692  1.6863
   44MOL   H61927365   2.322   1.183   6.676 -0.1284 -2.0097  1.4672
   44MOL   H62027366   2.913   1.402   7.143  0.4863  0.6833 -0.0490
   44MOL   H62127367   2.870   1.279   7.029 -0.8486  0.8714 -1.0082
   44MOL   H62227368   2.993   1.395   6.989  0.7205  0.6328  1.0363
   45MOL     C127369   4.688   2.936   2.134  0.6799 -0.3028 -0.5613
   45MOL     O227370   4.623   3.027   2.219  1.0229 -0.0780  0.0994
   45MOL     C327371   4.567   2.975   2.339  0.2325 -0.7349 -0.4299
   45MOL     C427372   4.530   3.097   2.420  0.6803  0.4657  0.0825
   45MOL     C527373   4.478   3.056   2.558  0.9006 -0.6297 -0.2520
   45MOL     C627374   4.432   3.158   2.665  0.1910 -0.4908 -0.4821
   45MOL     C727375   4.333   3.094   2.767 -0.7221 -0.2043  0.1362
   45MOL     C827376   4.300   3.182   2.883 -0.1793  0.1051  0.0716
   45MOL     C927377   4.212   3.293   2.838  0.5055 -0.5129  0.1558
   45MOL    C1027378   4.187   3.398   2.947  0.1173 -0.4658  0.0877
   45MOL    C1127379   4.733   3.001   2.005 -0.6064  0.0110 -0.1495
   45MOL    H1227380   4.765   2.883   2.190  0.8975  1.2363  0.6557
   45MOL    H1327381   4.637   2.911   2.394  0.6179 -0.9557 -1.1699
   45MOL    H1427382   4.487   2.905   2.319 -1.5412  0.7270  1.3791
   45MOL    H1527383   4.454   3.156   2.368  0.1434 -0.2263  0.0888
   45MOL    H1627384   4.617   3.161   2.435  2.1591 -1.7864  1.4392
   45MOL    H1727385   4.396   2.991   2.532 -0.4638  1.2329 -0.7202
   45MOL    H1827386   4.550   2.984   2.597 -0.4906 -2.5835 -1.2698
   45MOL    H1927387   4.518   3.205   2.713 -0.7581 -1.1027  1.8918
   45MOL    H2027388   4.381   3.234   2.606 -2.3542 -2.8947 -1.4790
   45MOL    H2127389   4.236   3.067   2.724 -1.0219  1.1701 -0.0719
   45MOL    H2227390   4.377   3.002   2.807  0.3074  1.1327  2.1386
   45MOL    H2327391   4.397   3.208   2.925  0.6579 -0.4085 -1.5264
   45MOL    H2427392   4.234   3.127   2.950 -1.9358  1.8281 -0.1691
   45MOL    H2527393   4.266   3.349   2.762  0.2192 -0.4967 -0.0354
   45MOL    H2627394   4.119   3.262   2.790  0.5039 -0.3177  0.0317
   45MOL    H2727395   4.126   3.379   3.036 -0.0284  2.0920  0.5913
   45MOL    H2827396   4.140   3.487   2.906 -0.2914 -0.0327  1.4521
   45MOL    H2927397   4.275   3.448   2.989 -0.4404  1.3936 -0.8849
   45MOL    H3027398   4.647   3.033   1.947 -0.6408  0.9140  0.3899
   45MOL    H3127399   4.806   3.077   2.034  0.9605 -1.5283  0.0008
   45MOL    H3227400   4.621   2.854   2.110  1.8431 -1.6628  0.7583
   45MOL    C3327401   4.815   2.892   1.931 -0.0325  0.0198 -0.3525
   45MOL    O3427402   4.934   2.872   1.994  0.2196  0.2682 -0.3777
   45MOL    C3527403   4.981   2.735   1.982  1.1374  0.3905 -0.0402
   45MOL    C3627404   5.096   2.703   2.077  0.0158 -0.7258 -0.1286
   45MOL    C3727405   5.066   2.720   2.229 -0.8150  0.0293  0.3963
   45MOL    C3827406   4.959   2.624   2.284  0.1095  0.5350  0.2667
   45MOL    C3927407   4.956   2.636   2.443  0.3888  0.6189 -0.3187
   45MOL    C4027408   4.876   2.522   2.518  0.0875  0.7874  0.1785
   45MOL    C4127409   4.849   2.578   2.669  0.4584  0.5883  0.6053
   45MOL    C4227410   4.726   2.663   2.671 -0.2811  0.3708  1.1585
   45MOL    C4327411   4.826   2.945   1.787 -0.5055 -0.1940 -0.1755
   45MOL    H4427412   4.750   2.804   1.929 -2.4118  1.6617  1.6070
   45MOL    H4527413   5.015   2.716   1.880 -0.2559 -0.9003 -0.2900
   45MOL    H4627414   4.905   2.662   2.011  1.8952 -0.3459  0.0955
   45MOL    H4727415   5.182   2.768   2.062 -0.5346 -0.1283 -0.7333
   45MOL    H4827416   5.128   2.599   2.069 -0.3746 -0.9128  0.6324
   45MOL    H4927417   5.161   2.716   2.282 -0.0761  3.1662 -0.5522
   45MOL    H5027418   5.026   2.822   2.238 -0.2351  0.5498 -2.3979
   45MOL    H5127419   4.862   2.646   2.240 -0.3077 -2.1624 -0.2426
   45MOL    H5227420   4.993   2.523   2.260 -2.1864  0.2240 -1.7971
   45MOL    H5327421   5.055   2.642   2.488  0.6205  0.9997 -0.8699
   45MOL    H5427422   4.910   2.732   2.467  1.5571  0.9564  0.6238
   45MOL    H5527423   4.937   2.432   2.523 -0.6263  0.3683  1.7189
   45MOL    H5627424   4.783   2.496   2.467  0.9697 -0.1769 -0.9521
   45MOL    H5727425   4.837   2.497   2.741  0.6525 -1.2519 -1.3729
   45MOL    H5827426   4.930   2.641   2.705  0.7817  0.4607  0.0958
   45MOL    H5927427   4.740   2.766   2.638  0.7870 -0.0626  0.2013
   45MOL    H6027428   4.690   2.666   2.774  0.4295  1.5622  1.3808
   45MOL    H6127429   4.650   2.610   2.614  0.1380  2.0425 -1.0519
   45MOL    H6227430   4.815   3.054   1.792  0.9357 -0.0360 -0.2991
   45MOL    H6327431   4.930   2.924   1.764 -0.6003  0.1980 -0.9812
   45MOL    C6427432   4.726   2.882   1.684 -0.4722 -0.6018 -0.0363
   45MOL    O6527433   4.746   2.740   1.683 -0.3902  0.6937  0.4060
   45MOL    C6627434   4.638   2.670   1.628  0.4959 -0.1192  0.0978
   45MOL    C6727435   4.586   2.561   1.721 -0.2445  0.3629  0.1934
   45MOL    C6827436   4.520   2.608   1.851 -0.1743  0.5543  0.0896
   45MOL    C6927437   4.481   2.500   1.953 -0.2535 -0.4150 -0.7414
   45MOL    C7027438   4.592   2.468   2.045  0.1305  0.2188  0.0952
   45MOL    C7127439   4.568   2.362   2.158  0.4808 -0.1939  0.6192
   45MOL    C7227440   4.693   2.324   2.237  0.3941 -0.2203 -0.2894
   45MOL    C7327441   4.664   2.249   2.368  0.0635 -0.0111  0.8368
   45MOL    C7427442   4.735   2.935   1.537 -0.3557 -0.0718  0.0791
   45MOL    H7527443   4.626   2.908   1.718 -1.0839  0.1176 -2.2738
   45MOL    H7627444   4.686   2.619   1.544  0.5227  0.8633 -0.4869
   45MOL    H7727445   4.557   2.730   1.586  0.3542  0.4789  1.2155
   45MOL    H7827446   4.676   2.505   1.745 -1.6120 -1.9829  0.0108
   45MOL    H7927447   4.511   2.505   1.664  1.7915 -0.4871 -1.7289
   45MOL    H8027448   4.583   2.687   1.891  1.1335 -0.3276 -0.2070
   45MOL    H8127449   4.431   2.667   1.825 -0.2506 -0.7873 -2.8373
   45MOL    H8227450   4.400   2.539   2.014  0.6120  1.6187 -0.8533
   45MOL    H8327451   4.444   2.410   1.904 -0.7602 -0.0249 -1.0758
   45MOL    H8427452   4.677   2.443   1.981  0.6041 -0.2659  0.9053
   45MOL    H8527453   4.623   2.555   2.104 -1.5604 -0.2074  1.6469
   45MOL    H8627454   4.514   2.275   2.121 -1.2194 -0.1638  2.9200
   45MOL    H8727455   4.495   2.402   2.229  0.1745 -1.3192  0.9394
   45MOL    H8827456   4.764   2.260   2.184 -0.6391 -0.2134 -1.6947
   45MOL    H8927457   4.754   2.410   2.266 -0.1881 -0.4624  1.6825
   45MOL    H9027458   4.750   2.209   2.421  0.5161  0.3273  0.3581
   45MOL    H9127459   4.602   2.160   2.366  0.1077 -0.0198 -0.8650
   45MOL    H9227460   4.607   2.314   2.435 -0.8002 -0.8257  0.9056
   45MOL    H9327461   4.839   2.929   1.505 -1.3463  1.3215 -3.6211
   45MOL    H9427462   4.689   2.859   1.473 -1.3294 -0.0345  0.7207
   45MOL    C9527463   4.687   3.078   1.508  0.0374 -0.1068  0.2683
   45MOL    O9627464   4.544   3.075   1.503  0.7280  0.3656  0.2066
   45MOL    C9727465   4.480   3.208   1.492  0.3342 -0.2670 -0.1739
   45MOL    C9827466   4.357   3.203   1.576  0.3321  0.2801  0.5887
   45MOL    C9927467   4.253   3.310   1.547 -0.1005  0.1881  0.1938
   45MOL   C10027468   4.127   3.296   1.636 -0.5912  0.0025 -0.1823
   45MOL   C10127469   4.035   3.417   1.628  0.4074  0.1526 -0.2933
   45MOL   C10227470   4.099   3.548   1.674  0.1551 -0.7108 -0.2067
   45MOL   C10327471   3.990   3.646   1.703 -0.0825  0.7948  0.3515
   45MOL   C10427472   4.045   3.782   1.754 -0.0249  0.3761 -0.7349
   45MOL   C10527473   4.749   3.131   1.380  0.0294 -0.4655 -0.0963
   45MOL   H10627474   4.722   3.139   1.592  1.6394 -2.1682  1.1478
   45MOL   H10727475   4.458   3.219   1.386  4.4388  2.2051 -0.8801
   45MOL   H10827476   4.551   3.274   1.542  0.7364 -0.1558 -0.8761
   45MOL   H10927477   4.369   3.163   1.676  1.3732  1.5695  0.9800
   45MOL   H11027478   4.314   3.109   1.540 -1.4487  1.3944 -0.2891
   45MOL   H11127479   4.313   3.399   1.569  1.3724 -0.9101  0.7278
   45MOL   H11227480   4.222   3.316   1.443 -0.7830  0.2807  0.4018
   45MOL   H11327481   4.075   3.201   1.624  1.6301 -1.2299 -0.3292
   45MOL   H11427482   4.156   3.292   1.741 -0.6787  1.4105 -0.1000
   45MOL   H11527483   4.004   3.430   1.524  1.3711 -2.4544 -0.9435
   45MOL   H11627484   3.946   3.401   1.689 -0.4985  0.5516 -1.4763
   45MOL   H11727485   4.172   3.591   1.605 -0.0123 -1.9523 -1.1906
   45MOL   H11827486   4.149   3.533   1.769  0.2929  1.2619  0.0510
   45MOL   H11927487   3.930   3.664   1.614 -0.1133  0.7262  0.3586
   45MOL   H12027488   3.923   3.609   1.780  1.8932 -0.6100  1.4464
   45MOL   H12127489   4.066   3.850   1.671  4.0167  0.5733  0.3415
   45MOL   H12227490   4.145   3.780   1.796 -0.7937  1.9893  1.2423
   45MOL   H12327491   3.995   3.834   1.836  1.3628  1.6047 -0.6474
   45MOL   H12427492   4.738   3.045   1.314 -2.0493  0.1388 -0.5677
   45MOL   H12527493   4.690   3.207   1.331  0.9369 -0.9153 -1.9467
   45MOL   C12627494   4.895   3.183   1.381  0.6886  0.1188  0.1257
   45MOL   O12727495   4.876   3.307   1.441  0.0807 -0.0951 -0.3409
   45MOL   C12827496   4.995   3.363   1.504 -0.0333  0.0784 -0.8593
   45MOL   C12927497   4.958   3.480   1.578  0.6637 -0.5160  0.0406
   45MOL   C13027498   5.077   3.539   1.663 -0.0718  0.2194 -0.4457
   45MOL   C13127499   5.030   3.661   1.736  0.6525 -0.2683  0.3659
   45MOL   C13227500   5.144   3.727   1.816  0.6291 -0.7325  0.4560
   45MOL   C13327501   5.095   3.850   1.894 -0.1185  0.2170  0.5671
   45MOL   C13427502   5.009   3.817   2.017  0.5229  0.1275 -0.1123
   45MOL   C13527503   4.942   3.944   2.076 -0.5448  0.1064  0.7899
   45MOL   C13627504   4.961   3.183   1.244 -0.2359 -0.7952 -0.0329
   45MOL   H13727505   4.952   3.119   1.448  2.4522 -0.3375 -1.7522
   45MOL   H13827506   5.070   3.387   1.429 -0.8198  1.6895 -1.1574
   45MOL   H13927507   5.031   3.290   1.576 -1.9380  0.1601  0.2134
   45MOL   H14027508   4.884   3.453   1.653 -0.4777 -0.3557 -1.0059
   45MOL   H14127509   4.917   3.560   1.517  1.7998 -0.6001 -0.8519
   45MOL   H14227510   5.118   3.466   1.733 -1.7931  0.6517  1.0439
   45MOL   H14327511   5.163   3.570   1.602  0.7214  0.1093  0.6015
   45MOL   H14427512   4.984   3.731   1.666  1.0847 -0.6864 -0.3406
   45MOL   H14527513   4.962   3.628   1.814 -1.5473 -1.0406 -1.8112
   45MOL   H14627514   5.206   3.660   1.874 -1.0062 -0.7675  2.2013
   45MOL   H14727515   5.210   3.763   1.737 -2.9596  1.6598 -1.6056
   45MOL   H14827516   5.037   3.920   1.833 -1.5083 -2.5285 -1.3901
   45MOL   H14927517   5.189   3.895   1.927  1.5974 -1.2484 -2.0472
   45MOL   H15027518   4.931   3.741   2.010  1.4531 -0.9812  1.2203
   45MOL   H15127519   5.082   3.778   2.087 -0.7980  1.0475  1.8365
   45MOL   H15227520   4.854   3.909   2.130 -0.8159 -2.1247 -1.0580
   45MOL   H15327521   4.910   4.010   1.995  1.4717 -0.0973 -0.2162
   45MOL   H15427522   5.010   3.997   2.143  2.2737 -0.4374 -1.5307
   45MOL   H15527523   4.903   3.249   1.180 -0.7322 -0.9503  0.2564
   45MOL   H15627524   5.060   3.228   1.257 -1.0112  1.1026 -0.5569
   45MOL   C15727525   4.974   3.052   1.171  0.1033  0.1507 -0.1636
   45MOL   O15827526   5.055   2.965   1.248 -0.4198  0.3754 -0.2814
   45MOL   C15927527   5.015   2.827   1.244 -0.3159  0.1264  0.0378
   45MOL   C16027528   5.105   2.740   1.332 -0.6919  0.5297 -0.5764
   45MOL   C16127529   5.045   2.626   1.414  0.6257  0.3004  0.4802
   45MOL   C16227530   5.136   2.560   1.511 -1.0003 -0.2625  0.1561
   45MOL   C16327531   5.068   2.461   1.603  0.1336  0.0434 -0.7718
   45MOL   C16427532   5.148   2.400   1.721  0.5169 -0.3053  0.1197
   45MOL   C16527533   5.060   2.309   1.810  0.0756  0.3918  0.3327
   45MOL   C16627534   5.139   2.217   1.904 -0.2812 -0.2320  0.2594
   45MOL   C16727535   5.026   3.059   1.026  0.1891 -0.4301 -0.9280
   45MOL   H16827536   4.874   3.011   1.160 -0.8010  1.8762  1.2802
   45MOL   H16927537   5.025   2.770   1.152  0.0447  2.7728 -1.6011
   45MOL   H17027538   4.924   2.817   1.302 -0.2394  1.4137  0.4084
   45MOL   H17127539   5.161   2.804   1.400  0.7108  0.3497 -1.5355
   45MOL   H17227540   5.182   2.703   1.265 -0.1192  0.9465 -0.1525
   45MOL   H17327541   4.963   2.677   1.464  0.9270  1.9627 -0.6608
   45MOL   H17427542   5.001   2.555   1.345  1.4756  0.9821 -0.8071
   45MOL   H17527543   5.212   2.501   1.460 -0.2452  3.1587 -2.9282
   45MOL   H17627544   5.186   2.641   1.565 -1.5512 -0.2276  0.6166
   45MOL   H17727545   4.985   2.508   1.654 -0.3883 -3.4200  1.7257
   45MOL   H17827546   5.034   2.371   1.552 -0.7112 -0.4193  0.6094
   45MOL   H17927547   5.196   2.477   1.781 -0.3345  0.3782 -0.0709
   45MOL   H18027548   5.229   2.341   1.678  1.7132  0.1102  1.7598
   45MOL   H18127549   4.989   2.364   1.872 -1.5428 -0.9462 -0.2941
   45MOL   H18227550   5.002   2.243   1.745 -1.0262  1.5433  0.1278
   45MOL   H18327551   5.202   2.278   1.970 -1.0106  1.9581 -1.0128
   45MOL   H18427552   5.197   2.135   1.861 -1.9178 -0.4946 -1.5135
   45MOL   H18527553   5.058   2.176   1.964  0.3553 -0.2158  1.1503
   45MOL   H18627554   5.002   2.964   0.977 -1.6366  0.7614 -2.4016
   45MOL   H18727555   4.969   3.130   0.966 -0.3984 -1.1029 -1.1787
   45MOL   C18827556   5.179   3.095   1.018  0.6430 -0.3262 -0.4813
   45MOL   O18927557   5.221   3.160   0.898  0.2381  0.7306 -0.2943
   45MOL   C19027558   5.244   3.304   0.920 -0.3413  0.0781  0.1781
   45MOL   C19127559   5.282   3.366   0.781 -0.0595  0.2818 -0.2836
   45MOL   C19227560   5.296   3.520   0.775  0.0737 -0.8915 -0.0901
   45MOL   C19327561   5.173   3.606   0.817 -0.0824  0.9088  0.5069
   45MOL   C19427562   5.032   3.547   0.787 -0.6880  0.8794 -0.4767
   45MOL   C19527563   4.920   3.613   0.875  0.4456 -0.0776  0.8579
   45MOL   C19627564   4.777   3.562   0.834 -0.3025  0.4067  0.4740
   45MOL   C19727565   4.688   3.568   0.956 -0.6612 -0.3418  0.3373
   45MOL   C19827566   5.264   2.969   1.013 -0.1660 -0.0235 -0.5879
   45MOL   H19927567   5.220   3.152   1.102 -1.4740  0.1881  0.2198
   45MOL   H20027568   5.153   3.349   0.961 -0.9501 -0.1531 -0.9028
   45MOL   H20127569   5.322   3.316   0.995 -0.8352 -1.5990  0.9734
   45MOL   H20227570   5.210   3.337   0.705 -2.3656  0.7821  1.6488
   45MOL   H20327571   5.380   3.326   0.756 -0.2067 -1.9095  2.4534
   45MOL   H20427572   5.386   3.552   0.829  0.7148  3.2306 -3.3558
   45MOL   H20527573   5.300   3.544   0.669 -1.8439  1.5901  0.3530
   45MOL   H20627574   5.181   3.616   0.925 -0.5513  3.3107  0.3507
   45MOL   H20727575   5.173   3.708   0.779 -1.9809  0.5386 -0.5541
   45MOL   H20827576   5.004   3.579   0.687  0.1593  0.1783 -0.9449
   45MOL   H20927577   5.026   3.440   0.807  0.2691  1.1857  1.5233
   45MOL   H21027578   4.922   3.721   0.866 -1.0781 -0.0908  0.1740
   45MOL   H21127579   4.934   3.593   0.981  0.6628 -0.4149  0.7672
   45MOL   H21227580   4.733   3.608   0.746  1.4975 -0.0271 -0.6627
   45MOL   H21327581   4.780   3.458   0.804 -0.0235  1.1022 -2.0138
   45MOL   H21427582   4.599   3.509   0.932 -0.9740  1.1141 -2.2220
   45MOL   H21527583   4.654   3.668   0.983 -1.1181 -0.5710  0.6298
   45MOL   H21627584   4.734   3.524   1.045  1.3037  0.1603 -0.4026
   45MOL   H21727585   5.216   2.882   1.058  1.1050 -2.0727 -3.0800
   45MOL   H21827586   5.273   2.945   0.907 -0.5957  0.6350 -0.7770
   45MOL   C21927587   5.407   2.980   1.068 -0.3399  0.0357 -0.1504
   45MOL   O22027588   5.491   2.874   1.015  0.0696 -0.0123 -0.0678
   45MOL   C22127589   5.538   2.902   0.884  0.7777 -0.0298  0.1694
   45MOL   C22227590   5.588   2.780   0.806  0.3674 -0.2351 -0.1978
   45MOL   C22327591   5.658   2.830   0.674  0.4630  0.3590 -0.1742
   45MOL   C22427592   5.727   2.709   0.605 -0.1998 -0.3371 -0.2225
   45MOL   C22527593   5.803   2.744   0.477  0.5433  0.4319 -0.7537
   45MOL   C22627594   5.863   2.621   0.401 -0.0779 -0.2220 -0.2499
   45MOL   C22727595   5.959   2.666   0.287 -0.3794 -0.4284  0.4149
   45MOL   C22827596   6.021   2.558   0.196 -0.2565 -0.0438 -0.5364
   45MOL   C22927597   5.409   2.976   1.216  0.5424  0.0594 -0.5069
   45MOL   H23027598   5.451   3.077   1.044 -0.2223  0.0925  0.2762
   45MOL   H23127599   5.628   2.964   0.893  1.3706 -1.0759  1.7086
   45MOL   H23227600   5.462   2.943   0.817  0.5865  1.1719  1.1066
   45MOL   H23327601   5.503   2.713   0.794  0.0118  0.3006 -0.6778
   45MOL   H23427602   5.661   2.723   0.864 -0.4012  0.1649  1.1833
   45MOL   H23527603   5.590   2.876   0.602  0.0460 -1.7329 -1.1773
   45MOL   H23627604   5.733   2.903   0.701  0.2290  1.2654 -1.8771
   45MOL   H23727605   5.783   2.656   0.681  1.1520  0.1498 -0.8721
   45MOL   H23827606   5.654   2.633   0.576  0.7813 -1.0053 -0.9803
   45MOL   H23927607   5.728   2.787   0.411 -2.3142 -0.9109  1.4823
   45MOL   H24027608   5.882   2.817   0.496  0.2562  0.6765 -0.4911
   45MOL   H24127609   5.777   2.561   0.369 -0.4738  0.4948 -0.5475
   45MOL   H24227610   5.912   2.562   0.478 -0.6215 -0.0562  0.2302
   45MOL   H24327611   5.902   2.734   0.223 -2.4654 -0.9360  1.7058
   45MOL   H24427612   6.044   2.720   0.329  1.1247  0.4388 -3.4923
   45MOL   H24527613   6.101   2.614   0.147 -1.3029  1.0975 -0.9728
   45MOL   H24627614   5.956   2.524   0.115 -0.2620 -0.9884 -0.1290
   45MOL   H24727615   6.072   2.480   0.251 -2.1301 -0.4444  0.6703
   45MOL   H24827616   5.364   3.070   1.245 -0.1821 -0.0041 -1.3797
   45MOL   H24927617   5.340   2.902   1.257  1.5099  0.2295  1.4884
   45MOL   C25027618   5.548   2.948   1.275 -0.7623 -0.4237 -0.3968
   45MOL   O25127619   5.527   2.898   1.407  0.1167 -0.4256  0.0828
   45MOL   C25227620   5.532   2.756   1.418  0.2354 -0.1435  0.3560
   45MOL   C25327621   5.499   2.713   1.562 -0.2698 -1.2756 -0.2999
   45MOL   C25427622   5.623   2.730   1.652  0.0466  0.1911  0.9055
   45MOL   C25527623   5.598   2.698   1.801  0.8162  0.6917 -0.5641
   45MOL   C25627624   5.723   2.723   1.885  0.4589 -0.0916  0.0223
   45MOL   C25727625   5.699   2.694   2.032  0.0306  0.4623  0.0601
   45MOL   C25827626   5.819   2.730   2.116 -0.0138 -0.9368  0.1429
   45MOL   C25927627   5.956   2.681   2.071  0.0063 -0.2824 -0.4768
   45MOL   C26027628   5.629   3.077   1.282  0.9298  0.5756  0.1504
   45MOL   H26127629   5.614   2.877   1.225 -0.8529 -0.0365 -1.0908
   45MOL   H26227630   5.627   2.709   1.394  1.2307  1.9009  0.1874
   45MOL   H26327631   5.463   2.709   1.349  2.1792 -0.1359 -1.6392
   45MOL   H26427632   5.485   2.605   1.553  1.5951 -1.3554 -2.6752
   45MOL   H26527633   5.404   2.754   1.595  0.2624 -0.9587  0.8559
   45MOL   H26627634   5.703   2.665   1.616  1.0702  1.1777  1.3588
   45MOL   H26727635   5.660   2.832   1.645  3.2243 -0.7458  2.8218
   45MOL   H26827636   5.506   2.736   1.846  0.8426 -0.7288  0.7375
   45MOL   H26927637   5.576   2.591   1.798  1.6515  0.5148 -0.4625
   45MOL   H27027638   5.813   2.678   1.843  0.5330  1.2643 -1.3286
   45MOL   H27127639   5.754   2.828   1.882 -0.9244  0.3434  0.6402
   45MOL   H27227640   5.677   2.589   2.047 -1.4958  0.5830 -1.2474
   45MOL   H27327641   5.622   2.760   2.071 -0.2914 -0.6859  1.4196
   45MOL   H27427642   5.815   2.839   2.123  3.9021 -0.6276 -1.2218
   45MOL   H27527643   5.807   2.691   2.217 -3.2718 -0.5025 -0.0045
   45MOL   H27627644   5.977   2.724   1.972 -1.1923 -1.3254 -1.2025
   45MOL   H27727645   5.962   2.572   2.072 -2.5091 -0.4845 -2.1088
   45MOL   H27827646   6.038   2.718   2.132  1.1089 -0.6632 -1.7025
   45MOL   H27927647   5.629   3.121   1.183 -0.8349  0.9711  0.3239
   45MOL   H28027648   5.571   3.145   1.344  2.6597  0.4338  1.9725
   45MOL   C28127649   5.763   3.062   1.343 -0.3656  0.1522 -0.5461
   45MOL   O28227650   5.834   3.182   1.367 -0.2267  0.8619  0.4308
   45MOL   C28327651   5.801   3.254   1.492  0.6998 -0.0148  0.1593
   45MOL   C28427652   5.933   3.312   1.554  0.1841 -0.6841 -0.4721
   45MOL   C28527653   6.035   3.206   1.574  0.0259  0.2261 -0.6982
   45MOL   C28627654   6.175   3.252   1.614  0.1962 -0.2945 -0.1742
   45MOL   C28727655   6.283   3.142   1.631  0.3192  0.4535 -0.1131
   45MOL   C28827656   6.412   3.189   1.704 -0.7684  0.4685  0.6234
   45MOL   C28927657   6.490   3.066   1.734 -0.0187  0.5273 -0.1637
   45MOL   C29027658   6.616   3.110   1.815  0.7548 -0.0601 -0.3582
   45MOL   C29127659   5.871   2.969   1.265 -0.4624  0.2357  0.0053
   45MOL   H29227660   5.760   3.008   1.438  2.1835  0.5318 -0.2075
   45MOL   H29327661   5.761   3.184   1.565  0.6543  0.8518  0.9694
   45MOL   H29427662   5.729   3.333   1.471 -0.5310 -0.9868  0.7091
   45MOL   H29527663   5.922   3.376   1.642  1.0560 -0.2047 -0.7048
   45MOL   H29627664   5.965   3.388   1.483 -2.8234  0.3603 -0.8093
   45MOL   H29727665   6.001   3.138   1.652 -1.5493  0.3724 -1.2347
   45MOL   H29827666   6.043   3.143   1.486  3.0393 -0.8070  0.2597
   45MOL   H29927667   6.205   3.320   1.535  0.2833  0.3272  0.3902
   45MOL   H30027668   6.167   3.321   1.698 -1.6866 -3.4669  2.3672
   45MOL   H30127669   6.248   3.058   1.692  1.7802 -1.0443 -1.2901
   45MOL   H30227670   6.311   3.104   1.533  0.8302 -0.6092  0.4307
   45MOL   H30327671   6.384   3.256   1.786 -2.4934  2.7154 -1.7394
   45MOL   H30427672   6.467   3.258   1.639 -1.7700 -2.6172 -3.6486
   45MOL   H30527673   6.428   2.998   1.793  0.0859  0.5153 -0.0688
   45MOL   H30627674   6.519   3.007   1.647 -0.4356 -0.9811  0.7060
   45MOL   H30727675   6.677   3.164   1.742 -1.2706 -0.9277 -2.7486
   45MOL   H30827676   6.660   3.023   1.863  0.4057  0.8188  1.6033
   45MOL   H30927677   6.584   3.175   1.897 -1.6465 -0.7712 -0.7039
   45MOL   H31027678   5.943   2.955   1.346 -1.0086 -1.4440  0.2010
   45MOL   H31127679   5.833   2.869   1.247 -0.2505  0.1954 -0.2309
   45MOL   C31227680   5.947   3.038   1.150 -0.5354 -0.0396 -0.1269
   45MOL   O31327681   6.004   2.930   1.073 -0.1515  0.2016 -0.5243
   45MOL   C31427682   5.916   2.903   0.968 -0.0439  0.6293  0.3487
   45MOL   C31527683   5.969   2.779   0.888 -0.2133 -0.4562 -0.5270
   45MOL   C31627684   6.108   2.801   0.813  0.0089 -0.2905 -0.3622
   45MOL   C31727685   6.155   2.693   0.709 -0.5979  0.2206  0.3163
   45MOL   C31827686   6.294   2.717   0.661  0.1030  0.3935  0.3852
   45MOL   C31927687   6.357   2.609   0.570 -0.6961 -0.3075  0.0412
   45MOL   C32027688   6.297   2.614   0.425 -0.1206 -0.2782  0.7531
   45MOL   C32127689   6.380   2.533   0.315  0.2022 -0.4013  0.3682
   45MOL   C32227690   6.075   3.118   1.197  1.0800  0.4509  0.4168
   45MOL   H32327691   5.879   3.102   1.093 -1.4508  1.7181  2.8342
   45MOL   H32427692   5.908   2.984   0.897  2.5500 -0.3951 -1.1650
   45MOL   H32527693   5.821   2.884   1.018  0.2606 -0.9471  0.3843
   45MOL   H32627694   5.889   2.773   0.813  1.2783  0.3873 -2.2283
   45MOL   H32727695   5.965   2.688   0.948 -0.8169  1.3984  2.3462
   45MOL   H32827696   6.124   2.894   0.758 -1.7450 -1.0553 -2.2360
   45MOL   H32927697   6.185   2.808   0.890 -1.8233  1.3259  1.3875
   45MOL   H33027698   6.156   2.602   0.769  0.5898 -0.8265 -1.2435
   45MOL   H33127699   6.090   2.672   0.624  1.5913 -2.8075 -0.7086
   45MOL   H33227700   6.300   2.818   0.621  2.0948  0.9940  2.1384
   45MOL   H33327701   6.360   2.710   0.747  0.6909  1.6056  0.0334
   45MOL   H33427702   6.332   2.512   0.614 -1.2623 -0.2090 -0.0649
   45MOL   H33527703   6.465   2.610   0.554 -0.5670  1.2442  0.8541
   45MOL   H33627704   6.193   2.581   0.422 -0.4598  0.8334 -2.3937
   45MOL   H33727705   6.290   2.716   0.388  0.6224 -0.8102 -0.9384
   45MOL   H33827706   6.335   2.535   0.216  1.8459 -0.0014 -0.3791
   45MOL   H33927707   6.393   2.428   0.343 -0.1905 -0.7380 -0.6952
   45MOL   H34027708   6.479   2.577   0.305  0.2412 -0.3085  1.1473
   45MOL   H34127709   6.039   3.204   1.253  1.7141  0.5119  0.7312
   45MOL   H34227710   6.121   3.056   1.274  0.2974  1.7418  1.9624
   45MOL   C34327711   6.184   3.146   1.089 -0.2314 -0.2918 -0.9813
   45MOL   O34427712   6.295   3.217   1.146  0.2187 -0.3876  0.6445
   45MOL   C34527713   6.395   3.137   1.205 -0.0232 -0.1931  0.0232
   45MOL   C34627714   6.492   3.225   1.283  0.1709  0.3743  0.4509
   45MOL   C34727715   6.604   3.149   1.357 -0.0876 -0.7013 -0.1177
   45MOL   C34827716   6.713   3.255   1.413  0.5468  0.5643  0.0109
   45MOL   C34927717   6.832   3.203   1.492 -0.1115  0.2663 -0.5216
   45MOL   C35027718   6.921   3.314   1.558 -0.0657  0.1708  1.0790
   45MOL   C35127719   7.044   3.240   1.634  0.4252 -1.0773 -0.2492
   45MOL   C35227720   7.170   3.320   1.619  0.1473 -0.2692 -0.7518
   45MOL   C35327721   6.126   3.231   0.980  0.5657 -0.4156 -0.5684
   45MOL   H35427722   6.231   3.058   1.045  1.4626 -0.2343  0.6447
   45MOL   H35527723   6.450   3.069   1.140 -1.0629 -0.3595 -0.6931
   45MOL   H35627724   6.347   3.069   1.276 -0.1791 -0.2714 -0.1585
   45MOL   H35727725   6.428   3.280   1.351 -0.8549 -1.2728  0.8520
   45MOL   H35827726   6.535   3.293   1.209  1.2954 -1.6072 -0.7497
   45MOL   H35927727   6.564   3.087   1.437  0.2314 -1.8705 -0.8452
   45MOL   H36027728   6.654   3.082   1.287  0.6944  1.8956 -2.1426
   45MOL   H36127729   6.753   3.308   1.327  0.5028  0.5855  0.0038
   45MOL   H36227730   6.658   3.324   1.477  1.5426  1.1321  0.2564
   45MOL   H36327731   6.799   3.133   1.569  1.0643  0.5271  0.2305
   45MOL   H36427732   6.900   3.139   1.435 -1.4505  1.0242 -3.0524
   45MOL   H36527733   6.864   3.378   1.626 -0.4570 -0.3910  1.2816
   45MOL   H36627734   6.960   3.376   1.478 -2.3503 -1.3618 -1.2965
   45MOL   H36727735   7.019   3.220   1.738  1.4446 -3.1238 -0.3716
   45MOL   H36827736   7.064   3.139   1.598  0.8070 -0.5165 -1.6493
   45MOL   H36927737   7.190   3.326   1.512  0.1048  0.0021 -0.7425
   45MOL   H37027738   7.257   3.272   1.663 -0.0463 -2.4075 -2.5609
   45MOL   H37127739   7.160   3.422   1.656  2.3442 -0.1790 -0.3692
   45MOL   H37227740   6.046   3.175   0.930 -1.8989  0.1463  2.5633
   45MOL   H37327741   6.073   3.314   1.025  1.5177 -0.8376  1.3906
   45MOL   C37427742   6.228   3.292   0.875 -0.0105 -0.1793  1.0438
   45MOL   O37527743   6.169   3.377   0.780  0.3875 -0.3894 -0.9325
   45MOL   C37627744   6.123   3.508   0.833  0.1467  1.0372  0.6885
   45MOL   C37727745   6.178   3.623   0.768 -0.4465 -0.6736 -0.1404
   45MOL   C37827746   6.130   3.757   0.826  0.0220  0.6682  0.1603
   45MOL   C37927747   6.204   3.878   0.768  0.0448  0.3657  0.6477
   45MOL   C38027748   6.349   3.896   0.817  0.5239 -0.1071  0.2823
   45MOL   C38127749   6.399   4.040   0.787 -0.0671 -0.5184  0.1904
   45MOL   C38227750   6.530   4.076   0.865  0.4046 -0.0783 -0.8890
   45MOL   C38327751   6.555   4.225   0.844 -0.3816 -0.5834 -0.2865
   45MOL   C38427752   6.307   3.184   0.798  0.1767 -0.0337  0.4374
   45MOL   H38527753   6.300   3.356   0.927  0.3542 -0.6881  1.1594
   45MOL   H38627754   6.151   3.520   0.938  0.8007  0.5473  0.5756
   45MOL   H38727755   6.015   3.516   0.840  0.1746  0.4287  1.9576
   45MOL   H38827756   6.156   3.626   0.661  0.7650  0.8920 -0.3661
   45MOL   H38927757   6.287   3.619   0.766 -0.3166  1.9895 -1.2358
   45MOL   H39027758   6.025   3.760   0.798  0.4134 -0.9074 -1.5560
   45MOL   H39127759   6.134   3.772   0.934  0.5780 -1.7597  0.5098
   45MOL   H39227760   6.204   3.871   0.659 -1.9370 -1.7311  0.7495
   45MOL   H39327761   6.142   3.966   0.783 -2.4428 -1.2780  0.1620
   45MOL   H39427762   6.354   3.880   0.925  0.1951  0.8885  0.4571
   45MOL   H39527763   6.410   3.824   0.762 -0.9182  0.0635 -1.5673
   45MOL   H39627764   6.324   4.117   0.798  0.7100  0.4979 -1.5345
   45MOL   H39727765   6.425   4.056   0.683 -0.2272  1.3750  0.4280
   45MOL   H39827766   6.523   4.056   0.971  1.3729 -0.4396 -0.8915
   45MOL   H39927767   6.614   4.015   0.832  0.8403 -0.6790  1.2710
   45MOL   H40027768   6.641   4.244   0.909 -1.6189 -1.6543  1.7085
   45MOL   H40127769   6.482   4.289   0.894 -1.1605 -0.8099 -1.1336
   45MOL   H40227770   6.582   4.267   0.747  0.5476  0.6734  0.4908
   45MOL   H40327771   6.368   3.127   0.868  1.2075  1.4444  0.7745
   45MOL   H40427772   6.237   3.116   0.750  1.6283 -1.0259 -0.2996
   45MOL   C40527773   6.396   3.239   0.682 -0.4980  0.0756  0.0116
   45MOL   O40627774   6.452   3.122   0.638 -0.1467  0.0106  0.4088
   45MOL   C40727775   6.425   3.096   0.498  0.0498 -0.0658 -0.5142
   45MOL   C40827776   6.487   2.972   0.436 -0.2100  0.0885  0.5109
   45MOL   C40927777   6.640   2.970   0.426  0.7005 -0.2838 -0.5355
   45MOL   C41027778   6.709   2.943   0.553 -0.9274 -0.2191 -0.7444
   45MOL   C41127779   6.864   2.957   0.537  0.0642  0.6701  0.8191
   45MOL   C41227780   6.939   2.957   0.674 -0.1658  0.2111 -0.4915
   45MOL   C41327781   7.097   2.943   0.656  0.7520 -0.2591  0.7684
   45MOL   C41427782   7.157   2.911   0.792 -0.4537 -0.4113  0.0395
   45MOL   C41527783   6.506   3.338   0.731  0.2404 -0.7328  0.1531
   45MOL   H41627784   6.328   3.283   0.609 -0.5397 -1.2758 -0.7787
   45MOL   H41727785   6.443   3.177   0.428  0.2684  0.4695  0.1542
   45MOL   H41827786   6.319   3.071   0.496  0.6987 -3.1239 -0.1564
   45MOL   H41927787   6.460   2.962   0.331  1.5120  4.9896 -0.5307
   45MOL   H42027788   6.458   2.885   0.495  0.7962  0.4543  1.5753
   45MOL   H42127789   6.657   2.883   0.363 -3.0001 -2.9012  1.8646
   45MOL   H42227790   6.679   3.061   0.380  1.5229 -1.9584 -3.2830
   45MOL   H42327791   6.673   3.008   0.633  4.3254  0.4321  1.3314
   45MOL   H42427792   6.682   2.841   0.582  1.1766 -0.2540  1.3326
   45MOL   H42527793   6.903   2.867   0.489 -1.1528 -0.5539  2.0432
   45MOL   H42627794   6.899   3.047   0.487  0.4910 -0.1279 -0.3353
   45MOL   H42727795   6.888   2.880   0.732 -2.5550  1.1183 -1.3554
   45MOL   H42827796   6.900   3.047   0.721  0.2886 -0.0599  0.4153
   45MOL   H42927797   7.119   2.874   0.575 -1.6982  1.5327 -1.4846
   45MOL   H43027798   7.134   3.035   0.610  0.3445  0.1639  1.2827
   45MOL   H43127799   7.149   2.991   0.866  0.6894 -1.9587  1.8763
   45MOL   H43227800   7.266   2.909   0.787 -0.4791 -2.2988  0.0749
   45MOL   H43327801   7.134   2.813   0.834  2.5691 -1.0228  0.3280
   45MOL   H43427802   6.455   3.427   0.767 -0.2836 -0.7779 -0.4809
   45MOL   H43527803   6.558   3.288   0.814  1.5094 -0.0065 -0.1824
   45MOL   C43627804   6.592   3.388   0.611 -0.2696 -0.2068  0.3467
   45MOL   O43727805   6.726   3.430   0.635  0.4385 -0.0234 -0.2420
   45MOL   C43827806   6.827   3.334   0.655 -0.2824  0.4598 -0.1714
   45MOL   C43927807   6.957   3.413   0.677 -0.4852  0.3428 -0.7066
   45MOL   C44027808   7.077   3.322   0.696 -0.4168  0.1958 -0.0771
   45MOL   C44127809   7.208   3.394   0.710  0.1745  0.4398  0.3414
   45MOL   C44227810   7.320   3.327   0.789  0.4382 -0.4487 -0.1960
   45MOL   C44327811   7.454   3.400   0.769 -0.6072 -0.9026  0.3758
   45MOL   C44427812   7.536   3.350   0.889  0.1795  0.3479  0.0223
   45MOL   C44527813   7.677   3.408   0.883 -0.3368  0.0306  0.0127
   45MOL   C44627814   6.524   3.504   0.541 -0.6424  0.1730  0.0710
   45MOL   H44727815   6.603   3.302   0.545  0.9250 -1.1771  1.7662
   45MOL   H44827816   6.805   3.261   0.733  1.2620  0.1106 -0.0448
   45MOL   H44927817   6.833   3.275   0.564  0.6677  0.1292  0.0952
   45MOL   H45027818   6.948   3.471   0.769 -2.1478  0.3896 -0.8791
   45MOL   H45127819   6.964   3.484   0.594 -2.2710 -0.5936 -1.7033
   45MOL   H45227820   7.049   3.247   0.769  0.3954  1.2534  1.3456
   45MOL   H45327821   7.085   3.253   0.612 -1.4755  0.6911 -0.5900
   45MOL   H45427822   7.236   3.423   0.609  0.0496 -0.9490 -0.1003
   45MOL   H45527823   7.191   3.490   0.759 -0.9226  0.4930 -0.1509
   45MOL   H45627824   7.294   3.319   0.895  0.3903 -0.9910 -0.2452
   45MOL   H45727825   7.330   3.224   0.754 -1.9551  0.1808 -2.8768
   45MOL   H45827826   7.446   3.509   0.769  1.7170 -0.7087 -0.3036
   45MOL   H45927827   7.485   3.380   0.667  1.4350 -1.2710  1.0534
   45MOL   H46027828   7.478   3.362   0.981 -0.4580 -0.1121 -0.3207
   45MOL   H46127829   7.550   3.242   0.883 -0.2845  0.1987  1.3084
   45MOL   H46227830   7.677   3.514   0.907 -1.1284 -0.1774  0.9852
   45MOL   H46327831   7.728   3.397   0.787  0.2007 -0.4171  0.3535
   45MOL   H46427832   7.736   3.367   0.964  1.7674  1.4031 -0.7913
   45MOL   H46527833   6.425   3.477   0.506 -0.2009 -0.3737 -0.7538
   45MOL   H46627834   6.494   3.585   0.608  0.2191  0.7799 -0.2697
   45MOL   C46727835   6.597   3.573   0.427  0.7992 -0.3237 -0.6445
   45MOL   O46827836   6.493   3.648   0.356 -0.5356  0.2887 -0.0771
   45MOL   C46927837   6.476   3.784   0.403  0.7578  0.4843 -0.6838
   45MOL   C47027838   6.377   3.868   0.310 -0.1217 -0.0194  0.3603
   45MOL   C47127839   6.240   3.796   0.286  0.4275 -0.0843 -0.2245
   45MOL   C47227840   6.137   3.869   0.196  0.1403  0.2024 -0.4440
   45MOL   C47327841   6.189   3.907   0.057  0.2572  0.4202  0.9323
   45MOL   C47427842   6.229   3.793   7.739 -0.1468  0.7691 -0.5600
   45MOL   C47527843   6.229   3.828   7.586  0.1956 -0.3924  0.0048
   45MOL   C47627844   6.269   3.691   7.514  0.4101 -0.5633 -0.5340
   45MOL   C47727845   6.660   3.476   0.329 -0.0423 -0.5706  0.0794
   45MOL   H47827846   6.681   3.625   0.473 -1.8580  1.9739  1.8230
   45MOL   H47927847   6.569   3.841   0.397  1.0785  0.2282  1.5301
   45MOL   H48027848   6.427   3.785   0.500  0.2504  1.2283 -0.9443
   45MOL   H48127849   6.428   3.895   0.218  3.6090 -0.8536  2.0719
   45MOL   H48227850   6.354   3.961   0.362 -0.3529  0.9162 -1.3937
   45MOL   H48327851   6.267   3.696   0.252  1.5529 -0.6301  2.2265
   45MOL   H48427852   6.194   3.781   0.383 -0.1225 -0.2223 -0.5069
   45MOL   H48527853   6.048   3.807   0.197  0.9351 -0.9520  0.1603
   45MOL   H48627854   6.111   3.957   0.255  0.2226  0.1394 -0.3128
   45MOL   H48727855   6.115   3.972   0.009 -0.4443  0.5340  2.1469
   45MOL   H48827856   6.279   3.968   0.060  1.5639 -1.5194  1.9525
   45MOL   H48927857   6.162   3.711   7.763  0.4572  0.4853  0.1535
   45MOL   H49027858   6.330   3.769   7.771 -0.3222 -0.7284 -1.0725
   45MOL   H49127859   6.126   3.853   7.561  1.1284  1.7891 -1.9621
   45MOL   H49227860   6.290   3.918   7.572  1.3047 -0.9322  1.2402
   45MOL   H49327861   6.293   3.695   7.408  2.3743 -2.5964 -0.2075
   45MOL   H49427862   6.187   3.619   7.513 -0.4023  0.3384  0.0874
   45MOL   H49527863   6.352   3.641   7.564  0.5997 -2.3464 -2.5487
   45MOL   H49627864   6.734   3.417   0.383  0.3688  0.1120  0.2680
   45MOL   H49727865   6.585   3.405   0.295  1.1086 -1.3545 -0.8335
   45MOL   C49827866   6.741   3.533   0.215  0.0363  0.3634  0.2658
   45MOL   O49927867   6.849   3.601   0.270 -0.1314  0.4324 -0.4442
   45MOL   C50027868   6.980   3.543   0.241  0.4960 -0.3794 -1.1430
   45MOL   C50127869   7.081   3.658   0.272 -0.0255  0.2462  0.0650
   45MOL   C50227870   7.061   3.721   0.413 -0.9586  0.6855 -0.4317
   45MOL   C50327871   7.156   3.830   0.451  0.1875 -0.2078  0.4110
   45MOL   C50427872   7.110   3.880   0.587 -0.2463 -0.4867 -0.2473
   45MOL   C50527873   7.204   3.981   0.642 -0.4114  0.2858 -0.5084
   45MOL   C50627874   7.142   4.047   0.763  0.4328  0.0539 -0.0483
   45MOL   C50727875   7.055   4.171   0.738  0.1186 -0.6984  0.9916
   45MOL   C50827876   6.660   3.634   0.125  0.5230  0.1413 -0.0141
   45MOL   H50927877   6.773   3.442   0.162  1.5095  0.8310  0.3170
   45MOL   H51027878   6.991   3.513   0.137  0.7058 -0.3328 -1.1342
   45MOL   H51127879   6.999   3.456   0.304  0.4650  1.7300  1.9113
   45MOL   H51227880   7.053   3.739   0.206  1.0589  0.7748  0.2509
   45MOL   H51327881   7.183   3.630   0.249  0.1535  1.3269 -0.4670
   45MOL   H51427882   6.960   3.762   0.421 -0.7036  1.6626 -1.9032
   45MOL   H51527883   7.073   3.645   0.490 -1.6868 -1.4238 -2.3219
   45MOL   H51627884   7.264   3.818   0.444  0.0061 -1.5740 -0.0197
   45MOL   H51727885   7.134   3.916   0.388  1.9257 -1.0322 -1.3675
   45MOL   H51827886   7.009   3.915   0.570  0.2794  1.6925  1.0086
   45MOL   H51927887   7.125   3.797   0.656 -0.9299 -0.1332  0.3277
   45MOL   H52027888   7.216   4.060   0.568 -0.5455  0.5949 -0.2012
   45MOL   H52127889   7.297   3.936   0.677  0.9345  3.4572  0.2098
   45MOL   H52227890   7.076   3.977   0.814 -0.0624  0.5005 -0.0745
   45MOL   H52327891   7.217   4.067   0.839 -0.0699 -0.0753  0.4895
   45MOL   H52427892   7.008   4.215   0.826 -0.8015 -0.3265  0.3236
   45MOL   H52527893   6.975   4.145   0.669 -0.8258 -0.0407  1.8257
   45MOL   H52627894   7.121   4.249   0.700  1.0101 -2.4540 -1.1719
   45MOL   H52727895   6.573   3.581   0.088 -0.4442  2.1934 -0.7771
   45MOL   H52827896   6.640   3.726   0.180 -1.7701 -1.3118  1.6489
   45MOL   C52927897   6.738   3.681   7.771 -0.4388  0.3342 -0.1977
   45MOL   O53027898   6.675   3.797   7.720  0.5690 -0.5017 -0.2878
   45MOL   C53127899   6.697   3.923   0.014  0.5498 -0.3531 -0.0231
   45MOL   C53227900   6.700   4.036   7.683  0.4988 -0.8072  0.5267
   45MOL   C53327901   6.586   4.002   7.574 -0.5687  0.2926  0.2622
   45MOL   C53427902   6.605   4.118   7.474 -0.0450  0.2592 -0.0464
   45MOL   C53527903   6.499   4.140   7.370  0.9478  0.3716 -0.4853
   45MOL   C53627904   6.474   4.022   7.274 -0.6338  0.0863 -0.3970
   45MOL   C53727905   6.341   4.036   7.202 -0.2649  0.6581 -0.7623
   45MOL   C53827906   6.331   4.150   7.100  0.3193  0.2545  0.0665
   45MOL   C53927907   6.744   3.576   7.656 -0.9087  0.1484  0.0641
   45MOL   H54027908   6.837   3.710   0.032 -0.7362  0.3603  0.6350
   45MOL   H54127909   6.638   3.943   0.104 -0.0122  1.0184 -0.6738
   45MOL   H54227910   6.801   3.905   0.037  0.5453 -0.6576 -0.2480
   45MOL   H54327911   6.793   4.033   7.625 -0.5974 -0.8533 -1.2740
   45MOL   H54427912   6.696   4.132   7.733  1.2335  0.2174 -1.3198
   45MOL   H54527913   6.583   3.903   7.530 -3.9100 -0.1776  1.4397
   45MOL   H54627914   6.493   4.019   7.628 -0.9056  1.1295 -0.5744
   45MOL   H54727915   6.595   4.211   7.531  0.6565 -0.8210  1.8911
   45MOL   H54827916   6.705   4.111   7.430 -0.3875 -1.4744 -0.6048
   45MOL   H54927917   6.407   4.166   7.420  0.7492  0.6272 -0.9835
   45MOL   H55027918   6.521   4.231   7.315  1.2491  0.8022  0.3338
   45MOL   H55127919   6.488   3.931   7.332  0.2319 -0.2024 -1.0535
   45MOL   H55227920   6.559   4.014   7.206 -0.5417 -2.0118 -0.0735
   45MOL   H55327921   6.323   3.941   7.153  0.7218  0.5964 -1.0043
   45MOL   H55427922   6.261   4.049   7.276  1.0415 -1.5196  1.0806
   45MOL   H55527923   6.427   4.163   7.049  0.3170 -0.2053 -0.0571
   45MOL   H55627924   6.299   4.241   7.150  0.1976  0.2407  0.0122
   45MOL   H55727925   6.259   4.125   7.022 -1.4194 -2.7512  2.5077
   45MOL   H55827926   6.742   3.472   7.691  2.3023  0.2772  0.7573
   45MOL   H55927927   6.654   3.589   7.597 -1.5099 -1.7755  0.5205
   45MOL   C56027928   6.874   3.579   7.564 -0.0598  0.0283  0.7218
   45MOL   O56127929   6.996   3.560   7.637  0.3117 -0.1821  0.7765
   45MOL   C56227930   7.123   3.538   7.575  0.3609  0.4895  0.0442
   45MOL   C56327931   7.208   3.511   7.702 -0.0297  0.2491 -0.6342
   45MOL   C56427932   7.356   3.472   7.663 -0.0967  0.4892 -0.8711
   45MOL   C56527933   7.422   3.357   7.745  0.6562  0.2254 -0.1166
   45MOL   C56627934   7.556   3.312   7.683 -0.2537  0.1343  0.4552
   45MOL   C56727935   7.634   3.191   7.754  0.1622 -0.5243  0.5123
   45MOL   C56827936   7.560   3.063   7.764 -0.4811 -0.2116 -0.4917
   45MOL   C56927937   7.645   2.942   0.009 -0.2850 -0.3247  0.1744
   45MOL   C57027938   6.873   3.705   7.477 -0.6990 -0.1359  0.5026
   45MOL   H57127939   6.875   3.489   7.502 -2.8888 -0.7153  1.6792
   45MOL   H57227940   7.151   3.627   7.518  1.2907  0.3799  0.3209
   45MOL   H57327941   7.117   3.452   7.509 -1.0893  1.3911 -1.0237
   45MOL   H57427942   7.161   3.437   7.767  0.1883  1.3760  0.8251
   45MOL   H57527943   7.204   3.596   7.770  0.3493 -0.1620 -0.0939
   45MOL   H57627944   7.351   3.446   7.557 -2.0950 -0.2887 -0.6181
   45MOL   H57727945   7.416   3.563   7.660  2.3932 -1.1308 -1.2246
   45MOL   H57827946   7.432   3.393   0.073 -0.5481 -1.0603  0.4734
   45MOL   H57927947   7.354   3.272   7.751  0.0219  0.8840  4.7398
   45MOL   H58027948   7.539   3.277   7.582 -0.1989 -1.4825  0.9913
   45MOL   H58127949   7.617   3.401   7.672 -0.7797  0.5273  0.7054
   45MOL   H58227950   7.668   3.223   0.078  2.4095  0.8294 -0.6532
   45MOL   H58327951   7.720   3.163   7.692 -1.4770 -1.4965 -1.3660
   45MOL   H58427952   7.497   3.058   0.078 -0.2037  0.6184 -0.2350
   45MOL   H58527953   7.489   3.048   7.682 -0.8375  0.4940 -0.3203
   45MOL   H58627954   7.727   2.937   7.712 -1.1850 -1.3819 -0.7883
   45MOL   H58727955   7.595   2.846   0.024  0.1172 -0.7876 -1.3860
   45MOL   H58827956   7.696   2.965   0.103  0.9264 -0.9034 -0.3328
   45MOL   H58927957   6.832   3.791   7.531  0.6694  2.4679 -2.4528
   45MOL   H59027958   6.975   3.732   7.450 -1.5724  0.5722 -2.2144
   45MOL   C59127959   6.792   3.681   7.344  0.2913  0.0116 -0.4119
   45MOL   O59227960   6.878   3.592   7.260 -0.1252 -0.2336 -0.7030
   45MOL   C59327961   6.815   3.472   7.211  0.5908 -0.0558 -0.0734
   45MOL   C59427962   6.871   3.435   7.076  0.2148  1.0052 -0.5118
   45MOL   C59527963   6.839   3.536   6.961 -0.1002  0.1645 -1.0507
   45MOL   C59627964   6.892   3.476   6.824  0.0958 -0.2542 -0.4907
   45MOL   C59727965   6.791   3.499   6.710 -0.1309  0.0021  0.3444
   45MOL   C59827966   6.851   3.477   6.567 -0.6008 -0.5630  0.0773
   45MOL   C59927967   6.743   3.472   6.455  0.4424  0.3657 -0.6932
   45MOL   C60027968   6.800   3.422   6.320 -0.5547  0.4176  0.0217
   45MOL   C60127969   6.765   3.815   7.274  0.2762 -0.3221  0.1639
   45MOL   H60227970   6.700   3.624   7.358 -0.0670 -0.5841 -4.4452
   45MOL   H60327971   6.706   3.478   7.216  0.4524 -1.1793 -1.3358
   45MOL   H60427972   6.844   3.397   7.285 -0.1426 -0.2615  0.0184
   45MOL   H60527973   6.849   3.334   7.043  0.1534  0.7455  0.2998
   45MOL   H60627974   6.978   3.442   7.092  0.1548 -0.4670  0.6705
   45MOL   H60727975   6.735   3.566   6.956 -0.3730 -0.2812  1.3932
   45MOL   H60827976   6.885   3.633   6.981  0.6201 -0.9940  3.2835
   45MOL   H60927977   6.987   3.520   6.795 -0.4175 -0.5986 -2.8061
   45MOL   H61027978   6.918   3.371   6.826  0.2470 -0.2064  0.2860
   45MOL   H61127979   6.711   3.426   6.722 -1.0070  0.5782 -1.7255
   45MOL   H61227980   6.742   3.596   6.706 -2.6330 -1.1163  2.7742
   45MOL   H61327981   6.903   3.382   6.573  2.1214  0.9175  1.3548
   45MOL   H61427982   6.931   3.551   6.553 -0.1433 -1.1259 -0.2938
   45MOL   H61527983   6.666   3.402   6.488  1.8893 -0.5252  0.9118
   45MOL   H61627984   6.698   3.571   6.445 -0.7115 -0.1952 -1.1561
   45MOL   H61727985   6.730   3.438   6.237  0.4614 -0.4280 -1.0236
   45MOL   H61827986   6.834   3.318   6.320 -0.7753  0.3445 -0.0585
   45MOL   H61927987   6.888   3.481   6.295  1.2880 -2.1926  0.0507
   45MOL   H62027988   6.859   3.846   7.229  0.7316  1.0014  2.0100
   45MOL   H62127989   6.691   3.803   7.195  0.2561 -0.6178  0.2265
   45MOL   H62227990   6.734   3.891   7.345 -2.5497 -3.1969  2.1065
   46MOL     C127991   4.781   5.794   6.991  0.2541  0.2994  0.1277
   46MOL     O227992   4.694   5.687   7.024 -0.9060  0.5332  0.0656
   46MOL     C327993   4.757   5.575   7.078  0.6374 -0.0833  0.4925
   46MOL     C427994   4.649   5.473   7.130  0.2606 -0.1026 -0.3227
   46MOL     C527995   4.570   5.402   7.025 -0.8581  0.3895  0.6939
   46MOL     C627996   4.465   5.303   7.092  0.4541 -0.0667  0.6011
   46MOL     C727997   4.394   5.211   6.996  0.0676  0.2235 -0.0945
   46MOL     C827998   4.272   5.145   7.069 -0.4725  0.0934  0.4892
   46MOL     C927999   4.182   5.087   6.959 -0.7206  0.6491 -0.2741
   46MOL    C1028000   4.050   5.056   7.024 -0.2685 -0.2731  0.4599
   46MOL    C1128001   4.697   5.911   6.953  0.3895  0.3118 -0.2743
   46MOL    H1228002   4.846   5.822   7.074  1.1412 -3.0978  0.6617
   46MOL    H1328003   4.816   5.609   7.162  0.3039 -2.9695  1.9643
   46MOL    H1428004   4.823   5.526   7.007  1.4236  3.4487 -1.3424
   46MOL    H1528005   4.578   5.519   7.200  2.1557  2.5151 -0.0326
   46MOL    H1628006   4.706   5.396   7.182  0.8446 -0.5083 -1.5481
   46MOL    H1728007   4.519   5.469   6.956 -0.6414  0.7496  0.8814
   46MOL    H1828008   4.643   5.337   6.976 -0.8948  1.9271 -1.4852
   46MOL    H1928009   4.502   5.250   7.180  0.2026 -0.7505  0.2954
   46MOL    H2028010   4.392   5.373   7.132 -0.6138 -1.1449  0.5594
   46MOL    H2128011   4.344   5.273   6.923  0.7764 -0.5834 -1.2882
   46MOL    H2228012   4.449   5.135   6.940  0.4213  2.0089 -2.2383
   46MOL    H2328013   4.224   5.211   7.141 -1.1751 -1.0687  1.0940
   46MOL    H2428014   4.311   5.068   7.135 -0.2769  1.2901  1.7850
   46MOL    H2528015   4.163   5.166   6.887  0.0425  1.7960  0.7589
   46MOL    H2628016   4.221   4.994   6.917  0.1434  1.1920 -0.6649
   46MOL    H2728017   3.969   5.012   6.966 -0.7452 -0.8387  1.5394
   46MOL    H2828018   4.008   5.149   7.062 -1.2251 -1.1983  1.7326
   46MOL    H2928019   4.067   4.985   7.105  0.0073 -2.7073 -1.6580
   46MOL    H3028020   4.615   5.877   6.890 -0.0006 -1.8821  1.3538
   46MOL    H3128021   4.646   5.950   7.041  0.8598  2.7362 -1.0210
   46MOL    H3228022   4.834   5.759   6.902 -0.6169  0.5128 -0.4773
   46MOL    C3328023   4.760   6.029   6.881  0.0921 -0.8085 -0.5357
   46MOL    O3428024   4.731   6.137   6.965 -0.0346 -0.0872 -0.2051
   46MOL    C3528025   4.829   6.244   6.964  0.2442  0.5774  0.5092
   46MOL    C3628026   4.762   6.374   7.019  0.6550  0.4227 -0.2424
   46MOL    C3728027   4.668   6.443   6.916  0.1526 -0.7163 -0.6392
   46MOL    C3828028   4.581   6.553   6.964  0.1563 -0.2917 -0.7512
   46MOL    C3928029   4.657   6.660   7.057 -0.2857  0.0329  0.3800
   46MOL    C4028030   4.563   6.778   7.090  0.4854 -0.0837  0.2475
   46MOL    C4128031   4.635   6.889   7.172  0.1653 -0.0225 -0.0374
   46MOL    C4228032   4.558   7.021   7.155  0.4186  0.1530 -0.1278
   46MOL    C4328033   4.700   6.072   6.746  0.5998 -0.0744  0.1687
   46MOL    H4428034   4.867   6.010   6.870  0.1295 -0.4912 -0.7119
   46MOL    H4528035   4.873   6.273   6.869 -0.6157 -0.7617 -0.3211
   46MOL    H4628036   4.917   6.202   7.013 -0.6069  0.5637  2.0563
   46MOL    H4728037   4.847   6.439   7.040 -0.5480  1.2117  2.2773
   46MOL    H4828038   4.706   6.362   7.112  1.2798 -2.9320 -0.2079
   46MOL    H4928039   4.730   6.487   6.838 -1.4543  0.1313 -1.4552
   46MOL    H5028040   4.602   6.372   6.866 -0.3152 -0.5921 -0.2049
   46MOL    H5128041   4.546   6.612   6.879  1.3098  1.9637  0.2902
   46MOL    H5228042   4.499   6.521   7.029 -0.0553  0.1019 -0.8232
   46MOL    H5328043   4.695   6.611   7.147  2.4273 -1.4684 -1.5143
   46MOL    H5428044   4.755   6.685   7.016  0.2216 -0.0639  1.5008
   46MOL    H5528045   4.478   6.754   7.154  0.7039 -1.1656  0.1469
   46MOL    H5628046   4.532   6.824   6.997 -0.2017 -1.6729 -0.3327
   46MOL    H5728047   4.657   6.863   7.275  0.6105  2.3877  0.5038
   46MOL    H5828048   4.732   6.900   7.125 -0.3951 -2.5521 -1.9348
   46MOL    H5928049   4.557   7.053   7.051 -1.2066 -2.6487 -1.0212
   46MOL    H6028050   4.606   7.094   7.220 -2.3069  0.0948  2.0373
   46MOL    H6128051   4.453   7.015   7.182  0.0285  0.1016 -1.5969
   46MOL    H6228052   4.591   6.075   6.756  0.5042  0.9477 -1.0984
   46MOL    H6328053   4.725   6.172   6.710  0.9531 -0.4996 -0.7826
   46MOL    C6428054   4.754   5.979   6.628  0.4048  0.4075 -0.7281
   46MOL    O6528055   4.891   5.985   6.623 -0.1032  0.1599 -0.0747
   46MOL    C6628056   4.952   5.875   6.566 -0.3126 -0.1067 -0.0743
   46MOL    C6728057   5.092   5.911   6.513 -0.4829  0.5116  0.2505
   46MOL    C6828058   5.153   5.786   6.455  0.9772  0.0112  0.0950
   46MOL    C6928059   5.296   5.783   6.430  0.3069 -0.6095 -0.0805
   46MOL    C7028060   5.340   5.877   6.316  0.3415 -0.3810  0.9139
   46MOL    C7128061   5.326   5.820   6.174  0.3959 -0.3650  0.1686
   46MOL    C7228062   5.354   5.924   6.060  0.4422 -0.5004 -0.0508
   46MOL    C7328063   5.314   5.849   5.928  0.3120  0.4070  0.0205
   46MOL    C7428064   4.693   6.004   6.483  0.0028 -0.1945 -0.0102
   46MOL    H7528065   4.723   5.879   6.659  0.9780  1.1568  2.4846
   46MOL    H7628066   4.905   5.845   6.472  0.2563 -2.7351  0.4244
   46MOL    H7728067   4.947   5.793   6.638  0.7563  0.0192  0.1473
   46MOL    H7828068   5.149   5.954   6.595  0.5847  0.5325 -0.4962
   46MOL    H7928069   5.072   5.982   6.432 -0.0049  0.2715 -0.0772
   46MOL    H8028070   5.147   5.704   6.526 -0.9478  0.5291  0.5674
   46MOL    H8128071   5.109   5.749   6.362 -1.0589 -0.7230  1.3348
   46MOL    H8228072   5.351   5.814   6.519  0.2120 -0.7067  0.0124
   46MOL    H8328073   5.315   5.679   6.403  0.5780 -0.4302 -0.5687
   46MOL    H8428074   5.294   5.976   6.315 -0.0369 -0.5440  1.8578
   46MOL    H8528075   5.446   5.897   6.327  0.4112 -1.6158  2.6349
   46MOL    H8628076   5.221   5.790   6.163 -0.0839  1.4880 -0.6490
   46MOL    H8728077   5.374   5.723   6.167  0.2499 -0.4800  0.7692
   46MOL    H8828078   5.285   6.005   6.084  1.7383  0.5019  0.3641
   46MOL    H8928079   5.457   5.959   6.065  0.3490 -0.2046 -0.1960
   46MOL    H9028080   5.220   5.894   5.895 -0.6347 -0.2781  1.7618
   46MOL    H9128081   5.297   5.743   5.915 -1.0551  0.7515 -1.1307
   46MOL    H9228082   5.379   5.882   5.847 -0.8486 -0.2223 -1.1727
   46MOL    H9328083   4.727   6.101   6.448 -1.4826  1.1237  2.1018
   46MOL    H9428084   4.722   5.927   6.411 -1.7740  0.3098 -1.3072
   46MOL    C9528085   4.539   6.006   6.481  0.9103 -0.0982  0.1729
   46MOL    O9628086   4.505   5.871   6.522  0.7542 -0.1921  0.1245
   46MOL    C9728087   4.373   5.857   6.562  0.1308 -0.0639 -0.6509
   46MOL    C9828088   4.380   5.730   6.656 -0.5336 -0.4768 -0.1451
   46MOL    C9928089   4.246   5.658   6.697 -0.8530  0.1746 -0.0716
   46MOL   C10028090   4.259   5.544   6.812  0.2847 -0.6559  0.8600
   46MOL   C10128091   4.120   5.481   6.840  0.0618 -0.6618  0.3742
   46MOL   C10228092   4.019   5.580   6.897  0.2101 -0.1937 -0.3372
   46MOL   C10328093   3.902   5.505   6.958 -0.2454 -0.4949  0.2402
   46MOL   C10428094   3.807   5.606   7.020  0.0426 -0.3758  0.4395
   46MOL   C10528095   4.488   6.031   6.335  0.6693 -0.4086  0.0785
   46MOL   H10628096   4.497   6.076   6.552 -0.8988 -2.8224  1.8841
   46MOL   H10728097   4.306   5.833   6.479  0.0189 -2.2772  0.0357
   46MOL   H10828098   4.328   5.946   6.605  0.0233 -0.3681 -0.1206
   46MOL   H10928099   4.436   5.764   6.743  0.0509 -1.4049 -0.1519
   46MOL   H11028100   4.437   5.654   6.602 -0.2549  0.4230 -1.1218
   46MOL   H11128101   4.176   5.736   6.725  1.3108  2.5004 -0.8963
   46MOL   H11228102   4.206   5.625   6.601 -1.0087  0.0459  0.0371
   46MOL   H11328103   4.335   5.469   6.789  1.4057  0.9864 -0.9243
   46MOL   H11428104   4.296   5.597   6.899 -0.2605  0.8010  0.2215
   46MOL   H11528105   4.088   5.430   6.749  2.3962 -0.7834 -0.3977
   46MOL   H11628106   4.135   5.396   6.905 -0.8596 -0.7512  0.4763
   46MOL   H11728107   3.990   5.655   6.822  0.2779 -0.2358 -0.4042
   46MOL   H11828108   4.071   5.635   6.976 -2.3510  0.6086  0.8490
   46MOL   H11928109   3.866   5.447   6.873  2.2090 -1.4341 -0.2161
   46MOL   H12028110   3.939   5.427   7.025  0.8042  0.1637  0.4471
   46MOL   H12128111   3.857   5.680   7.081  0.9104 -1.6111  1.2538
   46MOL   H12228112   3.722   5.569   7.077 -0.9966  0.9239 -0.2548
   46MOL   H12328113   3.749   5.646   6.937  2.2779 -1.1475 -1.5716
   46MOL   H12428114   4.543   5.977   6.258  0.5180 -0.6307  0.1297
   46MOL   H12528115   4.390   5.984   6.334 -0.3324  1.6250  0.3619
   46MOL   C12628116   4.472   6.174   6.275  0.3370 -0.6350  0.5122
   46MOL   O12728117   4.603   6.227   6.241  0.5139 -0.2287 -0.7128
   46MOL   C12828118   4.593   6.313   6.125 -0.8846 -0.6144 -0.6643
   46MOL   C12928119   4.729   6.378   6.087 -0.1375  0.2753  0.2982
   46MOL   C13028120   4.708   6.493   5.988  0.6206 -0.1233 -0.5850
   46MOL   C13128121   4.844   6.551   5.945 -0.2569 -0.0579 -0.0075
   46MOL   C13228122   4.838   6.648   5.835  0.1192  0.5181  0.1769
   46MOL   C13328123   4.971   6.729   5.820  0.7680  0.5264  0.0246
   46MOL   C13428124   4.989   6.788   5.680  0.4716 -0.0772  0.0591
   46MOL   C13528125   4.874   6.886   5.645 -0.1742 -1.2072 -0.1570
   46MOL   C13628126   4.402   6.271   6.374  0.3712  0.6092  0.3219
   46MOL   H13728127   4.411   6.166   6.185  0.3404 -2.9624  0.6816
   46MOL   H13828128   4.517   6.386   6.150  0.8268  1.8373 -2.4424
   46MOL   H13928129   4.554   6.266   6.034 -1.1547 -2.2671  0.2704
   46MOL   H14028130   4.790   6.302   6.040 -1.4317 -0.4273 -0.2588
   46MOL   H14128131   4.778   6.417   6.176  0.3989  0.6866 -0.1779
   46MOL   H14228132   4.651   6.464   5.899 -0.6401  0.3368  0.0676
   46MOL   H14328133   4.656   6.572   6.041  0.1368  0.6636 -2.1909
   46MOL   H14428134   4.897   6.589   6.032 -0.9131 -0.6075  0.6377
   46MOL   H14528135   4.915   6.478   5.906  0.1680 -0.0038  0.6577
   46MOL   H14628136   4.805   6.612   5.738 -0.5903  1.1846  0.1597
   46MOL   H14728137   4.762   6.724   5.857  1.5794  2.0522  0.0387
   46MOL   H14828138   5.044   6.648   5.824 -1.2690 -1.3320  0.2627
   46MOL   H14928139   4.989   6.797   5.903  1.3488 -1.0157  1.1865
   46MOL   H15028140   5.087   6.834   5.671  0.1033  1.0023  1.3351
   46MOL   H15128141   4.981   6.711   5.603  0.8951 -1.0518  0.9697
   46MOL   H15228142   4.857   6.936   5.740  1.7397  0.9284 -0.8709
   46MOL   H15328143   4.782   6.836   5.616 -0.2667 -0.7184 -0.7359
   46MOL   H15428144   4.889   6.961   5.567 -2.1309 -0.8820 -0.2402
   46MOL   H15528145   4.458   6.277   6.468 -0.8986  1.7039  1.0206
   46MOL   H15628146   4.384   6.375   6.348  0.8813  0.3632 -1.0508
   46MOL   C15728147   4.258   6.228   6.419  0.1335 -0.5969  0.6411
   46MOL   O15828148   4.178   6.231   6.307  0.1720  0.3914 -0.3068
   46MOL   C15928149   4.058   6.169   6.321 -0.6302  0.1663 -0.2576
   46MOL   C16028150   4.067   6.014   6.292 -0.2316  0.1445  0.6075
   46MOL   C16128151   3.937   5.931   6.278 -0.4214  1.0472  0.1613
   46MOL   C16228152   3.958   5.785   6.239 -0.3015 -0.1480 -0.1611
   46MOL   C16328153   3.990   5.764   6.092  0.4244  0.1660 -0.5485
   46MOL   C16428154   3.999   5.616   6.053 -0.5838  0.4859  0.0874
   46MOL   C16528155   4.041   5.593   5.903 -0.8040 -0.2925  0.1457
   46MOL   C16628156   4.044   5.445   5.853 -0.0680 -0.4489 -0.1846
   46MOL   C16728157   4.209   6.337   6.527  0.0171 -0.1351  0.2333
   46MOL   H16828158   4.252   6.131   6.469  0.8449 -0.4505  1.0102
   46MOL   H16928159   3.983   6.207   6.252  1.4400  1.6145 -1.8015
   46MOL   H17028160   4.007   6.175   6.417 -1.4740 -0.8556 -0.6409
   46MOL   H17128161   4.124   5.972   6.374  1.9445  0.5596 -0.6703
   46MOL   H17228162   4.116   5.996   6.197  1.4247 -0.0186  1.4828
   46MOL   H17328163   3.886   5.937   6.374 -0.6668 -0.1437  0.1124
   46MOL   H17428164   3.865   5.971   6.206 -2.6010 -2.1317  0.4611
   46MOL   H17528165   4.037   5.747   6.304 -0.2796 -1.9175 -1.1777
   46MOL   H17628166   3.866   5.735   6.269 -0.8218 -0.0943 -1.6188
   46MOL   H17728167   3.928   5.815   6.017 -0.5343  0.1724  0.2503
   46MOL   H17828168   4.093   5.801   6.092  0.5224 -0.1115 -0.4103
   46MOL   H17928169   3.898   5.579   6.068 -0.3782 -0.4236 -0.7217
   46MOL   H18028170   4.067   5.562   6.120  2.1649  0.6152 -2.4927
   46MOL   H18128171   3.981   5.640   5.825 -0.2982  1.1505  0.6094
   46MOL   H18228172   4.137   5.644   5.890  0.7059 -2.5785  2.0116
   46MOL   H18328173   3.940   5.416   5.846 -0.1009 -0.9639  2.0059
   46MOL   H18428174   4.084   5.380   5.931 -1.0048 -1.0774 -0.2258
   46MOL   H18528175   4.091   5.430   5.756  0.3902 -1.5927  0.2017
   46MOL   H18628176   4.209   6.439   6.490  0.4942  0.6686  2.3998
   46MOL   H18728177   4.104   6.311   6.541 -0.5711  1.3875 -1.1493
   46MOL   C18828178   4.280   6.329   6.664 -0.7081 -0.6069  0.1066
   46MOL   O18928179   4.228   6.208   6.728 -0.4009  0.6100 -0.1854
   46MOL   C19028180   4.305   6.165   6.839 -0.4114 -0.6354  0.0364
   46MOL   C19128181   4.253   6.025   6.882 -0.1441 -0.0949 -0.2865
   46MOL   C19228182   4.311   5.979   7.015  0.2171  0.3648 -0.1226
   46MOL   C19328183   4.274   5.840   7.063  0.0760 -0.6059  0.1798
   46MOL   C19428184   4.313   5.802   7.207  0.0251  0.1529 -1.0338
   46MOL   C19528185   4.273   5.664   7.249  0.0011  0.1239  0.3371
   46MOL   C19628186   4.312   5.638   7.395  0.2351  0.5007  0.0437
   46MOL   C19728187   4.248   5.516   7.446  0.1368  0.5269 -0.6362
   46MOL   C19828188   4.238   6.454   6.751 -0.3281  0.1957 -0.5295
   46MOL   H19928189   4.388   6.341   6.662 -0.7877  0.3342  1.1868
   46MOL   H20028190   4.411   6.172   6.818 -0.7047  0.5365 -1.1187
   46MOL   H20128191   4.284   6.240   6.917 -0.5708 -1.3313  0.6683
   46MOL   H20228192   4.269   5.948   6.806 -0.3154  0.0991 -0.5195
   46MOL   H20328193   4.144   6.026   6.882 -0.1595 -0.3970 -2.1756
   46MOL   H20428194   4.419   5.980   7.002 -0.0131  4.4871 -2.4634
   46MOL   H20528195   4.289   6.053   7.091  0.2521  0.3726 -0.1201
   46MOL   H20628196   4.166   5.823   7.068  0.0954 -0.9807 -0.7039
   46MOL   H20728197   4.328   5.771   6.999 -0.2319 -0.5756 -0.1132
   46MOL   H20828198   4.422   5.803   7.206  0.0626 -0.5974  0.8656
   46MOL   H20928199   4.276   5.876   7.278  1.8003  0.3337 -0.2670
   46MOL   H21028200   4.323   5.597   7.179 -0.6389 -0.3155  0.2976
   46MOL   H21128201   4.164   5.656   7.245  0.0794 -2.0168  1.6546
   46MOL   H21228202   4.420   5.630   7.405  0.0288 -1.7503  0.6348
   46MOL   H21328203   4.289   5.727   7.455  0.7468  0.3726  0.4332
   46MOL   H21428204   4.139   5.518   7.452  0.1884 -0.5073  0.8128
   46MOL   H21528205   4.278   5.498   7.549  2.9719  2.4643 -1.0493
   46MOL   H21628206   4.265   5.435   7.375  1.2723 -0.6659  0.9559
   46MOL   H21728207   4.133   6.462   6.777 -0.3360 -1.5660  0.0722
   46MOL   H21828208   4.290   6.454   6.846 -0.1988  1.0754 -0.6032
   46MOL   C21928209   4.272   6.591   6.687 -0.3032  0.2475  0.2387
   46MOL   O22028210   4.406   6.593   6.663  0.4032  0.0763  0.0833
   46MOL   C22128211   4.440   6.663   6.548 -0.5982 -0.3791  0.2134
   46MOL   C22228212   4.587   6.667   6.531  0.1715 -0.1258 -0.3308
   46MOL   C22328213   4.646   6.522   6.507  0.2444  0.3853  0.5177
   46MOL   C22428214   4.798   6.524   6.483  0.1238  1.2826 -0.0029
   46MOL   C22528215   4.856   6.385   6.505 -0.3572  0.9068 -0.3358
   46MOL   C22628216   5.005   6.370   6.478  0.5273  0.2508  0.1077
   46MOL   C22728217   5.051   6.391   6.338 -0.1898 -0.3757  0.2958
   46MOL   C22828218   5.198   6.346   6.311  0.1058  0.2818 -0.6525
   46MOL   C22928219   4.248   6.712   6.779  0.2026 -0.3000 -0.2734
   46MOL   H23028220   4.217   6.602   6.593 -2.1324  2.1385  1.4715
   46MOL   H23128221   4.395   6.761   6.536 -1.8323 -0.7149  2.0011
   46MOL   H23228222   4.401   6.598   6.469 -1.1972  1.0471 -0.6915
   46MOL   H23328223   4.626   6.708   6.625 -0.8774  1.5381 -0.5913
   46MOL   H23428224   4.615   6.743   6.457  1.6985 -0.3648 -0.0283
   46MOL   H23528225   4.610   6.450   6.581 -0.5908 -0.8601 -1.0915
   46MOL   H23628226   4.608   6.476   6.417 -0.4083  0.5402  0.7158
   46MOL   H23728227   4.814   6.564   6.383 -1.2202  2.3483  0.1876
   46MOL   H23828228   4.849   6.585   6.558 -0.7523  2.2780 -0.2050
   46MOL   H23928229   4.839   6.365   6.610  1.8334 -2.6393 -0.5561
   46MOL   H24028230   4.803   6.311   6.445  1.1213 -1.7251  1.4949
   46MOL   H24128231   5.041   6.270   6.505  1.5242  0.5060 -0.2900
   46MOL   H24228232   5.057   6.438   6.546  0.6880 -1.1631  1.4372
   46MOL   H24328233   4.981   6.358   6.261  1.1541  0.0138 -1.1330
   46MOL   H24428234   5.048   6.498   6.316 -0.6548 -0.5301 -0.4531
   46MOL   H24528235   5.228   6.389   6.216 -2.6031  0.1116 -1.6282
   46MOL   H24628236   5.199   6.238   6.295 -0.1890  0.4379 -1.7537
   46MOL   H24728237   5.266   6.364   6.394 -2.1301  0.2952  1.2337
   46MOL   H24828238   4.313   6.698   6.865  0.2952  2.5041  0.1795
   46MOL   H24928239   4.283   6.798   6.721  2.6532 -2.9806 -2.9390
   46MOL   C25028240   4.105   6.740   6.825  0.0188  0.1128 -0.2690
   46MOL   O25128241   4.056   6.642   6.912  0.1965 -0.0516  0.4369
   46MOL   C25228242   4.084   6.642   7.049  0.1049 -0.0133 -0.5909
   46MOL   C25328243   4.053   6.497   7.113  0.1104 -0.5413 -0.9664
   46MOL   C25428244   3.902   6.459   7.091  0.3430  0.6525  0.1094
   46MOL   C25528245   3.850   6.352   7.181  0.5266  0.2126 -0.2447
   46MOL   C25628246   3.944   6.230   7.190  0.2685  0.1399  0.5156
   46MOL   C25728247   3.879   6.104   7.260 -0.1942 -0.1272  0.2423
   46MOL   C25828248   3.964   5.977   7.253  1.3631 -0.2150 -0.2013
   46MOL   C25928249   3.914   5.861   7.349  0.7508 -0.8468  0.1589
   46MOL   C26028250   4.016   6.753   6.700 -0.1743 -0.3303 -0.4945
   46MOL   H26128251   4.118   6.834   6.879  1.8788  0.9915 -2.1614
   46MOL   H26228252   4.034   6.719   7.108 -0.5257 -0.8495 -0.0265
   46MOL   H26328253   4.191   6.658   7.057  0.1202 -0.1341 -0.5561
   46MOL   H26428254   4.059   6.502   7.221 -0.3787 -1.3718 -0.9039
   46MOL   H26528255   4.133   6.430   7.081  2.0799  0.4884  1.6200
   46MOL   H26628256   3.840   6.548   7.103  1.2882  1.0714  2.1443
   46MOL   H26728257   3.881   6.429   6.988 -1.2785 -0.2720  0.7064
   46MOL   H26828258   3.856   6.391   7.283 -0.8814  0.2756 -0.1781
   46MOL   H26928259   3.749   6.321   7.152  0.2716 -0.1775  0.9887
   46MOL   H27028260   3.974   6.197   7.090  1.1289 -1.7338  1.3681
   46MOL   H27128261   4.040   6.249   7.239  0.6235  0.0015 -0.1200
   46MOL   H27228262   3.792   6.081   7.199  1.0423  0.4515 -1.8006
   46MOL   H27328263   3.842   6.135   7.357 -2.3912 -0.2716 -0.5256
   46MOL   H27428264   3.965   5.933   7.154 -0.0065  0.3283 -0.4710
   46MOL   H27528265   4.068   6.008   7.267  1.4321  0.1623 -1.5066
   46MOL   H27628266   3.948   5.876   7.452 -1.9927  0.8299  0.8774
   46MOL   H27728267   3.942   5.765   7.305 -1.5214 -1.3115 -0.3037
   46MOL   H27828268   3.806   5.857   7.360  0.6121 -1.5966 -1.4336
   46MOL   H27928269   4.020   6.656   6.649  1.4531 -0.8834  0.6548
   46MOL   H28028270   3.913   6.774   6.727  0.5255  3.3688 -0.5332
   46MOL   C28128271   4.051   6.878   6.611  0.1312 -0.0498  0.4873
   46MOL   O28228272   4.081   6.992   6.688 -0.3334 -0.5327 -0.7576
   46MOL   C28328273   4.144   7.092   6.608  0.1446  0.0921  0.8842
   46MOL   C28428274   4.207   7.194   6.704 -0.8011  0.5043 -0.8617
   46MOL   C28528275   4.331   7.147   6.784  0.6834 -0.1721  0.4309
   46MOL   C28628276   4.388   7.247   6.888  0.1770  0.0706 -0.1507
   46MOL   C28728277   4.450   7.373   6.828  0.8165 -0.2223  0.1848
   46MOL   C28828278   4.585   7.354   6.756  0.3351 -0.0537 -0.0511
   46MOL   C28928279   4.653   7.483   6.720  0.6232  0.0676 -0.2724
   46MOL   C29028280   4.785   7.462   6.633  0.5257  0.5075  0.3672
   46MOL   C29128281   3.932   6.913   6.511  0.1036  0.0001  0.3656
   46MOL   H29228282   4.133   6.850   6.543  0.0847 -0.3105  0.5380
   46MOL   H29328283   4.076   7.144   6.540 -1.8285 -2.4075  0.8445
   46MOL   H29428284   4.232   7.061   6.551 -1.5132 -0.7112 -1.3150
   46MOL   H29528285   4.127   7.227   6.770 -0.3325  2.5953 -1.2998
   46MOL   H29628286   4.238   7.286   6.654 -0.3720  0.3744 -0.8357
   46MOL   H29728287   4.302   7.055   6.835 -0.9360 -0.6391 -1.2930
   46MOL   H29828288   4.412   7.123   6.715 -0.3399 -0.3611 -0.7017
   46MOL   H29928289   4.312   7.271   6.963  0.2360 -1.6708  0.4988
   46MOL   H30028290   4.475   7.205   6.938 -0.2184  0.8965  1.2762
   46MOL   H30128291   4.385   7.431   6.762  2.0028 -1.0900 -1.7865
   46MOL   H30228292   4.469   7.434   6.917  0.0871  0.0941  0.1270
   46MOL   H30328293   4.575   7.292   6.666 -1.1624  0.8415 -0.5201
   46MOL   H30428294   4.640   7.297   6.831  2.4215  3.2339  1.0327
   46MOL   H30528295   4.584   7.545   6.663  3.7826  0.9173 -3.3776
   46MOL   H30628296   4.679   7.539   6.810  1.4352 -2.0276  0.8188
   46MOL   H30728297   4.851   7.401   6.695  0.8307  2.0800  1.6174
   46MOL   H30828298   4.838   7.556   6.642 -0.4084  0.7082  5.0986
   46MOL   H30928299   4.764   7.419   6.535  0.9858 -0.8501  0.8505
   46MOL   H31028300   3.863   6.973   6.570  0.1568 -0.7507  1.1925
   46MOL   H31128301   3.973   6.986   6.441 -0.7040  0.2234  0.1135
   46MOL   C31228302   3.874   6.796   6.430 -0.0705 -0.3273 -0.1927
   46MOL   O31328303   3.979   6.745   6.342  0.0737  0.5170  0.7608
   46MOL   C31428304   3.964   6.603   6.314 -0.3213 -0.3332  0.0111
   46MOL   C31528305   4.058   6.559   6.203 -0.6929 -0.4653 -0.1134
   46MOL   C31628306   4.206   6.581   6.228 -0.3279 -0.5722  0.1063
   46MOL   C31728307   4.260   6.715   6.183 -0.0006  0.1161 -0.4241
   46MOL   C31828308   4.415   6.712   6.177 -0.2788 -0.0335  0.1132
   46MOL   C31928309   4.466   6.854   6.173  0.3080 -0.7536 -0.1177
   46MOL   C32028310   4.607   6.880   6.114  0.7777  0.3081 -0.1579
   46MOL   C32128311   4.720   6.818   6.209  0.0482  0.0937  0.4383
   46MOL   C32228312   3.753   6.838   6.341  0.0157 -0.3788 -0.0034
   46MOL   H32328313   3.842   6.713   6.491 -1.8335  0.6210  0.1976
   46MOL   H32428314   3.864   6.572   6.282 -0.3637 -1.5188  1.2629
   46MOL   H32528315   3.998   6.557   6.406  0.8217  0.4834  0.0038
   46MOL   H32628316   4.033   6.585   6.100  1.2846 -0.2407 -0.5553
   46MOL   H32728317   4.053   6.450   6.206 -2.5008 -0.3937 -0.1830
   46MOL   H32828318   4.225   6.577   6.336  1.2940 -0.0823 -0.1501
   46MOL   H32928319   4.251   6.494   6.181 -1.0947 -0.3021 -1.1314
   46MOL   H33028320   4.207   6.739   6.091 -0.4163  0.0217 -0.2104
   46MOL   H33128321   4.236   6.793   6.256 -1.7995 -0.5388 -0.2992
   46MOL   H33228322   4.462   6.655   6.257  2.4527  0.4003 -1.1315
   46MOL   H33328323   4.454   6.664   6.088  0.1018 -1.6547  1.1375
   46MOL   H33428324   4.440   6.898   6.270 -0.5113 -0.3718 -0.4974
   46MOL   H33528325   4.404   6.908   6.101 -0.9792  1.0268  2.2291
   46MOL   H33628326   4.621   6.838   6.014  0.2434 -0.4501  0.0851
   46MOL   H33728327   4.618   6.989   6.114 -0.7639  0.4789 -1.2071
   46MOL   H33828328   4.721   6.710   6.192  2.2751  0.4102 -1.6680
   46MOL   H33928329   4.718   6.854   6.312  2.1664 -0.2183  0.5964
   46MOL   H34028330   4.815   6.846   6.165 -0.9812  2.5745 -0.2704
   46MOL   H34128331   3.784   6.927   6.287 -0.4964  0.4514  1.0534
   46MOL   H34228332   3.730   6.760   6.269  1.8301 -2.9640  2.1099
   46MOL   C34328333   3.622   6.878   6.414  0.3173  0.0817  0.8866
   46MOL   O34428334   3.579   6.746   6.456  0.2369 -0.2825  0.1436
   46MOL   C34528335   3.556   6.736   6.598 -0.2819  0.1419  0.3132
   46MOL   C34628336   3.520   6.597   6.640  0.4076 -0.2776 -0.0845
   46MOL   C34728337   3.630   6.502   6.614  0.2968 -0.0030 -0.1933
   46MOL   C34828338   3.735   6.491   6.723  0.3722  0.2057 -0.1086
   46MOL   C34928339   3.842   6.378   6.700 -0.3123  0.0339  0.2014
   46MOL   C35028340   3.797   6.238   6.745 -0.5320 -0.1256 -0.1393
   46MOL   C35128341   3.885   6.119   6.694 -0.4020 -0.0015  0.5330
   46MOL   C35228342   3.845   5.982   6.746 -0.8479 -0.0700 -0.3493
   46MOL   C35328343   3.515   6.944   6.319 -0.0754 -0.8581  0.2691
   46MOL   H35428344   3.653   6.933   6.503  2.0560 -0.6643  0.7775
   46MOL   H35528345   3.473   6.805   6.614 -0.8040 -0.2407 -0.6721
   46MOL   H35628346   3.643   6.764   6.657 -0.2621 -0.4659  0.5792
   46MOL   H35728347   3.423   6.576   6.593  0.9091  0.6887 -1.6074
   46MOL   H35828348   3.490   6.599   6.744  1.0434 -0.6169  0.1037
   46MOL   H35928349   3.580   6.407   6.596  2.3041 -0.9663 -0.8406
   46MOL   H36028350   3.679   6.517   6.517  0.1191 -2.1038 -0.6334
   46MOL   H36128351   3.794   6.582   6.713 -0.3406  0.5879 -0.8169
   46MOL   H36228352   3.701   6.477   6.826  0.3083 -0.3183 -0.1987
   46MOL   H36328353   3.872   6.375   6.596  0.0630 -3.1789  0.3667
   46MOL   H36428354   3.934   6.413   6.747 -1.3729  2.0152  0.8786
   46MOL   H36528355   3.700   6.215   6.701 -0.9569  2.2032 -0.4731
   46MOL   H36628356   3.789   6.240   6.854  0.2160  2.0186 -0.1146
   46MOL   H36728357   3.862   6.112   6.587  0.5539 -0.1646  0.3325
   46MOL   H36828358   3.989   6.150   6.698 -0.8614  1.5738  0.5915
   46MOL   H36928359   3.746   5.952   6.712 -1.2275  1.1254 -0.3264
   46MOL   H37028360   3.836   5.990   6.855  0.2757  0.7520 -0.3152
   46MOL   H37128361   3.916   5.906   6.717  1.1438  1.9125 -0.7733
   46MOL   H37228362   3.499   6.867   6.243 -0.4160 -1.8222  1.3015
   46MOL   H37328363   3.414   6.946   6.361 -1.5431  2.2427 -3.0913
   46MOL   C37428364   3.558   7.084   6.267  0.5000 -0.3076  0.3819
   46MOL   O37528365   3.552   7.175   6.377  0.0205 -0.0567  0.1601
   46MOL   C37628366   3.643   7.283   6.365 -0.2949 -0.4985 -0.0472
   46MOL   C37728367   3.607   7.384   6.477 -0.3940 -0.5057 -0.2432
   46MOL   C37828368   3.711   7.492   6.501  0.4959 -0.5112 -0.6506
   46MOL   C37928369   3.761   7.566   6.376  0.0811 -0.1876 -0.1122
   46MOL   C38028370   3.649   7.628   6.281 -0.2760  0.2709 -0.2459
   46MOL   C38128371   3.694   7.742   6.195 -0.0335  0.3797  0.2376
   46MOL   C38228372   3.585   0.033   6.107  0.6037 -0.2059  0.3186
   46MOL   C38328373   3.558   7.711   5.986  0.1665  0.0626  0.7407
   46MOL   C38428374   3.468   7.131   6.150  0.9098  0.0336 -0.3268
   46MOL   H38528375   3.656   7.084   6.218  0.6478  0.8551  0.6591
   46MOL   H38628376   3.644   7.338   6.271  2.3469 -0.3554  0.0406
   46MOL   H38728377   3.743   7.243   6.377  0.8028  2.2365  0.2129
   46MOL   H38828378   3.601   7.327   6.570 -1.5189  1.0888  0.7007
   46MOL   H38928379   3.518   7.442   6.450  0.6777  1.9089  1.2869
   46MOL   H39028380   3.664   7.569   6.562  0.8241 -1.2152  0.5089
   46MOL   H39128381   3.792   7.448   6.559  0.1639 -0.2148  0.0382
   46MOL   H39228382   3.829   7.649   6.397 -0.3989  0.3333 -0.5988
   46MOL   H39328383   3.824   7.500   6.317  0.7784  1.7487 -1.5642
   46MOL   H39428384   3.591   7.553   6.228 -0.9806  0.5794  0.0770
   46MOL   H39528385   3.571   7.666   6.348  1.2478  0.1391  1.6511
   46MOL   H39628386   3.772   7.705   6.128 -0.6361  0.5351 -0.5478
   46MOL   H39728387   3.739   0.047   6.255 -0.6909  1.0183 -0.1076
   46MOL   H39828388   3.488   0.059   6.151  0.7119  0.1700  0.3348
   46MOL   H39928389   3.623   0.129   6.072  0.2133  0.5782  1.9977
   46MOL   H40028390   3.483   7.760   5.924  0.0803  1.1310  1.6713
   46MOL   H40128391   3.516   7.616   6.021  0.1535 -1.1753 -2.4775
   46MOL   H40228392   3.651   7.688   5.935 -0.3191 -1.0396  0.3268
   46MOL   H40328393   3.365   7.119   6.185  1.3635 -1.8443  0.4079
   46MOL   H40428394   3.471   7.240   6.141  2.2486  0.0778  0.5869
   46MOL   C40528395   3.499   7.094   6.006  0.6352 -0.1892 -0.3488
   46MOL   O40628396   3.458   7.201   5.921  0.3585 -0.2315 -0.1607
   46MOL   C40728397   3.562   7.301   5.904  0.7850  0.0892  0.4599
   46MOL   C40828398   3.527   7.366   5.764 -0.0628  0.6153 -0.5311
   46MOL   C40928399   3.385   7.423   5.757  0.2903 -0.1381 -0.1821
   46MOL   C41028400   3.358   7.501   5.622 -0.1383  0.0438 -0.0809
   46MOL   C41128401   3.404   7.648   5.623  0.2185  0.2378  0.5730
   46MOL   C41228402   3.454   7.705   5.484 -0.2356 -0.1909 -0.6014
   46MOL   C41328403   3.490   0.078   5.496  0.2562  0.0686  0.3073
   46MOL   C41428404   3.587   0.129   5.602 -0.1880 -0.1670 -0.3928
   46MOL   C41528405   3.424   6.974   5.958 -0.8032  0.1710  0.5949
   46MOL   H41628406   3.605   7.070   6.000  0.2545 -2.3856  0.9044
   46MOL   H41728407   3.664   7.266   5.913  0.8882 -0.4580 -2.3570
   46MOL   H41828408   3.553   7.377   5.982  0.7113  1.3854 -0.7838
   46MOL   H41928409   3.526   7.286   5.690 -1.1630  0.3273 -0.2163
   46MOL   H42028410   3.609   7.432   5.737  0.1530  0.8464  0.6885
   46MOL   H42128411   3.314   7.341   5.769  1.0469 -1.0874 -1.9306
   46MOL   H42228412   3.372   7.493   5.840  1.9860 -1.6449  1.4072
   46MOL   H42328413   3.416   7.444   5.550 -0.6615 -0.9884  0.3082
   46MOL   H42428414   3.254   7.498   5.592 -0.3165  0.5568  0.4632
   46MOL   H42528415   3.322   7.715   5.650 -1.3088 -1.1895 -0.4310
   46MOL   H42628416   3.487   7.653   5.693  1.7475 -1.1333 -1.1122
   46MOL   H42728417   3.381   7.686   5.405  0.4870 -0.0364 -1.3083
   46MOL   H42828418   3.545   7.649   5.463  1.1364  1.2928  1.2989
   46MOL   H42928419   3.540   0.103   5.402 -0.9363 -0.9206 -0.6061
   46MOL   H43028420   3.400   0.140   5.498  0.5904  0.5647  0.2074
   46MOL   H43128421   3.550   0.111   5.703 -0.8085 -0.4006 -0.6586
   46MOL   H43228422   3.608   0.235   5.588  0.8941 -0.6547 -2.6753
   46MOL   H43328423   3.679   0.072   5.601  0.6879  1.2304 -0.5093
   46MOL   H43428424   3.415   6.896   6.033 -0.8739  0.4769  0.9078
   46MOL   H43528425   3.320   7.000   5.935  0.1746  1.7158 -2.4138
   46MOL   C43628426   3.496   6.916   5.829  0.5938  0.2786  0.0428
   46MOL   O43728427   3.403   6.895   5.725  0.1163  0.3761  0.5490
   46MOL   C43828428   3.352   7.005   5.655  0.3132 -0.4973 -0.1741
   46MOL   C43928429   3.252   6.952   5.553 -0.0575 -0.8939 -0.1252
   46MOL   C44028430   3.299   6.892   5.419 -0.2883  0.0828 -0.3439
   46MOL   C44128431   3.191   6.826   5.330  0.0989 -0.1562 -0.0065
   46MOL   C44228432   3.227   6.782   5.188  1.0494  0.3684  0.3767
   46MOL   C44328433   3.101   6.713   5.122  0.0718 -0.1581  0.3346
   46MOL   C44428434   3.141   6.666   4.985  0.4213 -0.8610 -0.3230
   46MOL   C44528435   3.018   6.613   4.906 -0.3568  0.4844 -0.3935
   46MOL   C44628436   3.570   6.779   5.855 -0.1275 -0.1055 -0.0874
   46MOL   H44728437   3.569   6.982   5.781  2.3191 -0.5459  1.4830
   46MOL   H44828438   3.309   7.072   5.729  0.5347 -1.7587  1.1209
   46MOL   H44928439   3.431   7.057   5.600  0.9987 -1.1823  0.1484
   46MOL   H45028440   3.180   7.029   5.525  1.9110  0.0857 -2.7053
   46MOL   H45128441   3.194   6.874   5.602  0.9807 -1.8943 -0.4450
   46MOL   H45228442   3.354   6.967   5.361  1.7410  0.4696  2.0084
   46MOL   H45328443   3.381   6.824   5.444  0.8678  1.3978 -0.4509
   46MOL   H45428444   3.160   6.740   5.389  1.4144 -1.4746 -1.1674
   46MOL   H45528445   3.112   6.901   5.329  0.9243  0.7099 -0.8277
   46MOL   H45628446   3.275   6.861   5.130  0.2634  0.1935 -0.5281
   46MOL   H45728447   3.305   6.707   5.206  1.2716  0.7729  1.1247
   46MOL   H45828448   3.026   6.791   5.116  0.1142 -0.1645 -0.3438
   46MOL   H45928449   3.046   6.635   5.173  1.1737  0.9326  3.2704
   46MOL   H46028450   3.156   6.754   4.923 -0.1077 -0.5634 -0.0332
   46MOL   H46128451   3.232   6.606   4.988  1.5807  0.8418 -0.9251
   46MOL   H46228452   2.960   6.703   4.883 -0.7541 -0.2583 -2.3524
   46MOL   H46328453   2.967   6.534   4.961  1.2157 -1.0501 -1.0924
   46MOL   H46428454   3.037   6.570   4.808  1.4480  0.4091 -0.0296
   46MOL   H46528455   3.512   6.700   5.903 -1.7324 -1.2895 -3.7880
   46MOL   H46628456   3.598   6.740   5.757  0.4092 -1.8502  0.7371
   46MOL   C46728457   3.696   6.788   5.934 -0.3035  0.3050 -0.1259
   46MOL   O46828458   3.789   6.870   5.865 -0.5054  0.7048 -0.2101
   46MOL   C46928459   3.902   6.907   5.939  0.7524 -0.4654 -0.7707
   46MOL   C47028460   3.921   7.060   5.932 -0.3110  0.9336 -0.0594
   46MOL   C47128461   4.041   7.124   5.998  0.3619 -0.5345  0.1207
   46MOL   C47228462   4.032   7.135   6.145 -0.1384  0.3289 -0.5709
   46MOL   C47328463   4.146   7.222   6.218  0.3941 -0.8403 -0.3016
   46MOL   C47428464   4.268   7.140   6.270 -0.1362 -0.3554  0.5118
   46MOL   C47528465   4.366   7.228   6.344 -1.0327  0.0308 -0.0041
   46MOL   C47628466   4.490   7.145   6.390 -0.2933 -0.0722  0.5170
   46MOL   C47728467   3.763   6.648   5.944 -0.5974 -0.3141 -0.2718
   46MOL   H47828468   3.680   6.820   6.037 -1.4527 -1.8348  0.4107
   46MOL   H47928469   3.995   6.856   5.912  0.2686 -3.2528  2.4594
   46MOL   H48028470   3.887   6.885   6.045 -0.9393  1.5353 -0.5706
   46MOL   H48128471   3.829   7.106   5.969 -1.4779 -0.7058 -0.8497
   46MOL   H48228472   3.935   7.083   5.826  1.6372 -4.7891 -1.2084
   46MOL   H48328473   4.128   7.061   5.980  0.7781  0.4553 -1.3737
   46MOL   H48428474   4.057   7.219   5.949  1.1441 -1.8612 -2.2748
   46MOL   H48528475   3.936   7.182   6.169 -0.0906 -0.0657  0.4257
   46MOL   H48628476   4.026   7.040   6.198  1.4935  0.0478 -0.8456
   46MOL   H48728477   4.171   7.307   6.154  1.3770  0.6559  2.0151
   46MOL   H48828478   4.097   7.274   6.300  0.2332 -1.5713  0.0691
   46MOL   H48928479   4.320   7.091   6.188 -0.9861  0.3109 -0.4464
   46MOL   H49028480   4.247   7.057   6.337 -2.0363 -0.4249 -0.1355
   46MOL   H49128481   4.412   7.300   6.277 -1.5996  1.2675  0.9108
   46MOL   H49228482   4.313   7.278   6.426 -0.1415 -1.5039  1.5518
   46MOL   H49328483   4.548   7.217   6.449 -1.4659  0.1085  1.4655
   46MOL   H49428484   4.545   7.111   6.302  0.8764  3.4650 -0.2139
   46MOL   H49528485   4.470   7.069   6.465  1.2162 -0.0562  0.9577
   46MOL   H49628486   3.813   6.640   5.848 -0.5375 -0.3145 -0.2406
   46MOL   H49728487   3.841   6.664   6.018 -0.9609 -0.7929  0.2182
   46MOL   C49828488   3.686   6.518   5.980  0.1421  0.3645 -0.2049
   46MOL   O49928489   3.610   6.541   6.096 -0.8734 -0.6204 -0.4009
   46MOL   C50028490   3.484   6.470   6.107 -0.0749 -0.2140  0.5485
   46MOL   C50128491   3.409   6.529   6.233 -0.2513 -0.1815  0.3110
   46MOL   C50228492   3.261   6.519   6.224  0.8497 -0.5557 -0.4394
   46MOL   C50328493   3.182   6.536   6.352 -0.2075 -0.3119  0.1420
   46MOL   C50428494   3.191   6.417   6.450 -0.5767  0.5765  0.1702
   46MOL   C50528495   3.095   6.422   6.567  0.5837 -0.9399 -0.5830
   46MOL   C50628496   3.140   6.512   6.680  0.6820 -0.5451 -0.3994
   46MOL   C50728497   3.079   6.466   6.815 -0.1762  0.2394  0.0601
   46MOL   C50828498   3.768   6.385   6.003 -0.5475  0.2512  0.1897
   46MOL   H50928499   3.621   6.505   5.894  0.1706  1.4051 -0.3918
   46MOL   H51028500   3.508   6.364   6.113 -1.1244 -0.5040 -0.1760
   46MOL   H51128501   3.427   6.477   6.014 -0.5927 -0.2268  0.8634
   46MOL   H51228502   3.434   6.630   6.264 -0.9896 -0.7511  2.8835
   46MOL   H51328503   3.447   6.461   6.309  1.5419 -0.4276 -0.7695
   46MOL   H51428504   3.225   6.595   6.155  1.8799  0.6183  0.2788
   46MOL   H51528505   3.237   6.422   6.179  0.4742 -0.4289 -0.5141
   46MOL   H51628506   3.220   6.632   6.389 -1.3928  1.4632 -3.0283
   46MOL   H51728507   3.076   6.553   6.329  0.6359  2.4082 -2.0890
   46MOL   H51828508   3.165   6.331   6.389 -0.2835  0.1326  0.6587
   46MOL   H51928509   3.295   6.405   6.480 -1.0690  0.6611  2.0145
   46MOL   H52028510   3.085   6.325   6.615  1.0401 -0.2603  0.9287
   46MOL   H52128511   2.993   6.443   6.534 -0.1216  0.2631  2.2136
   46MOL   H52228512   3.248   6.498   6.690  0.7455 -0.6890 -1.2529
   46MOL   H52328513   3.132   6.617   6.650  0.4783 -0.3680  0.2603
   46MOL   H52428514   3.086   6.360   6.841 -1.4695 -0.7951 -3.4927
   46MOL   H52528515   2.981   6.513   6.816  0.2142  1.0281  1.7402
   46MOL   H52628516   3.135   6.515   6.895 -0.4987  2.8043 -1.2542
   46MOL   H52728517   3.873   6.410   5.986  0.0194 -1.4497  1.0562
   46MOL   H52828518   3.770   6.364   6.110  0.2493 -2.1433 -0.2414
   46MOL   C52928519   3.729   6.267   5.906 -0.9340  0.0643 -0.0880
   46MOL   O53028520   3.619   6.207   5.965  0.2191  0.1980  0.0695
   46MOL   C53128521   3.527   6.135   5.887 -0.1742  0.4248 -0.4539
   46MOL   C53228522   3.458   6.022   5.970 -0.4676  0.1866 -0.4865
   46MOL   C53328523   3.568   5.931   6.029  0.2930  0.2900 -0.1067
   46MOL   C53428524   3.515   5.798   6.077  0.3532  0.8338 -0.3136
   46MOL   C53528525   3.477   5.802   6.230  0.0698 -0.2094  0.1969
   46MOL   C53628526   3.438   5.664   6.284 -0.4420  0.1125  0.3300
   46MOL   C53728527   3.391   5.656   6.434  0.0313  0.3822 -0.4162
   46MOL   C53828528   3.347   5.516   6.474  0.0059  0.1925 -0.2178
   46MOL   C53928529   3.840   6.162   5.898  0.3706 -0.2038 -0.2169
   46MOL   H54028530   3.705   6.315   5.811  1.2179 -0.8293 -1.1156
   46MOL   H54128531   3.453   6.205   5.847 -1.5878 -0.4138  0.6619
   46MOL   H54228532   3.569   6.080   5.804  2.6645 -0.8030  1.7225
   46MOL   H54328533   3.386   5.962   5.915 -1.0525  0.8109 -0.3984
   46MOL   H54428534   3.399   6.070   6.048  0.5673 -1.9671  1.6775
   46MOL   H54528535   3.630   5.913   5.941 -1.2324 -0.1228 -1.1355
   46MOL   H54628536   3.637   5.984   6.094 -0.4293  0.7346  0.2989
   46MOL   H54728537   3.433   5.768   6.012 -0.0012  1.4097 -0.1359
   46MOL   H54828538   3.595   5.725   6.064 -1.9866 -1.9787  0.4594
   46MOL   H54928539   3.564   5.843   6.281 -2.2971  1.9844  2.6940
   46MOL   H55028540   3.402   5.881   6.239  0.5844  0.1892  0.9687
   46MOL   H55128541   3.527   5.602   6.274 -2.0538 -2.5733  1.9433
   46MOL   H55228542   3.364   5.610   6.224  2.1082 -2.8458 -0.2727
   46MOL   H55328543   3.482   5.674   6.492  1.6198  1.8849 -3.2313
   46MOL   H55428544   3.322   5.737   6.457  1.6794  1.1097  2.2708
   46MOL   H55528545   3.250   5.483   6.437  0.8080 -2.0542 -0.4201
   46MOL   H55628546   3.331   5.506   6.581 -0.5937  0.3774 -0.2860
   46MOL   H55728547   3.423   5.441   6.449 -0.5332 -1.0299  1.7011
   46MOL   H55828548   3.903   6.171   5.987 -0.8394 -1.1686  0.7562
   46MOL   H55928549   3.791   6.065   5.909 -2.9356  1.3650 -0.7238
   46MOL   C56028550   3.925   6.167   5.775 -0.1704 -0.4868  0.7938
   46MOL   O56128551   3.837   6.167   5.667 -0.1438 -0.0896 -0.6310
   46MOL   C56228552   3.899   6.196   5.539  0.0869  0.1788  0.8880
   46MOL   C56328553   3.787   6.272   5.453  0.1234 -0.1439  0.6357
   46MOL   C56428554   3.742   6.400   5.504  0.0756  0.7443  0.0507
   46MOL   C56528555   3.688   6.496   5.392  0.6093  0.3767 -0.5884
   46MOL   C56628556   3.643   6.633   5.451  0.2789  0.1965 -0.0138
   46MOL   C56728557   3.753   6.733   5.476  0.3161  0.2533  0.5787
   46MOL   C56828558   3.693   6.877   5.480  0.3512 -0.0754  0.7533
   46MOL   C56928559   3.804   6.984   5.481  0.2140 -0.2400  0.4261
   46MOL   C57028560   4.042   6.072   5.768  1.1172 -0.0450 -0.5078
   46MOL   H57128561   3.977   6.261   5.755 -0.0278 -0.4093  1.5326
   46MOL   H57228562   3.927   6.102   5.493 -2.0180  0.1491 -0.4267
   46MOL   H57328563   3.989   6.256   5.544 -0.3451  0.7387  2.2018
   46MOL   H57428564   3.709   6.199   5.431 -1.2906  0.9484  1.9464
   46MOL   H57528565   3.818   6.295   5.351 -0.2767 -0.2496  0.4883
   46MOL   H57628566   3.662   6.398   5.578 -0.1328 -1.8658 -0.2124
   46MOL   H57728567   3.822   6.459   5.549 -0.8847  1.1937  1.2017
   46MOL   H57828568   3.774   6.515   5.328 -1.6893  2.0891 -3.3007
   46MOL   H57928569   3.607   6.449   5.337  0.0315  1.7039 -0.8856
   46MOL   H58028570   3.559   6.662   5.387 -0.9727 -1.7458  0.7037
   46MOL   H58128571   3.592   6.628   5.547  1.3488 -0.1231  0.5406
   46MOL   H58228572   3.836   6.727   5.406  0.7941 -0.2580  1.1803
   46MOL   H58328573   3.796   6.710   5.574  1.8699 -1.9716 -0.5723
   46MOL   H58428574   3.633   6.889   5.390 -0.6058 -0.5723  1.3132
   46MOL   H58528575   3.624   6.887   5.565 -0.6472  2.5068 -0.3017
   46MOL   H58628576   3.758   7.082   5.494  2.5084  0.7714  1.3487
   46MOL   H58728577   3.868   6.971   5.394 -0.2259  0.2865  0.0252
   46MOL   H58828578   3.866   6.968   5.570  1.1575  1.7050  0.1477
   46MOL   H58928579   4.005   5.970   5.782 -1.4701  1.0482  0.9644
   46MOL   H59028580   4.091   6.072   5.670 -0.1602  1.9244 -1.1774
   46MOL   C59128581   4.154   6.101   5.870  0.6054  0.2119 -0.5855
   46MOL   O59228582   4.214   6.225   5.837 -0.0059  0.7083 -0.0252
   46MOL   C59328583   4.243   6.315   5.943  0.2732 -0.7900  0.2703
   46MOL   C59428584   4.337   6.423   5.883 -0.1166  0.4954 -0.0354
   46MOL   C59528585   4.254   6.542   5.833  0.8220  0.9366 -0.3064
   46MOL   C59628586   4.344   6.653   5.780 -0.2281  0.2287 -0.6188
   46MOL   C59728587   4.256   6.770   5.750 -0.1504 -0.1089  0.3844
   46MOL   C59828588   4.324   6.886   5.660  0.2024 -0.0683  0.1146
   46MOL   C59928589   4.457   6.947   5.709  0.1451  0.1556 -0.3976
   46MOL   C60028590   4.513   7.042   5.601  0.4426  0.1549 -0.3749
   46MOL   C60128591   4.246   5.986   5.864 -0.2650  0.6103 -0.2966
   46MOL   H60228592   4.109   6.107   5.969  0.9765  0.2091 -0.4173
   46MOL   H60328593   4.292   6.251   6.016  1.2740  1.4780  1.6666
   46MOL   H60428594   4.151   6.349   5.990 -0.1796 -2.0198  0.2712
   46MOL   H60528595   4.398   6.381   5.804 -0.8280 -0.8460  0.1154
   46MOL   H60628596   4.408   6.452   5.960 -0.0759  0.0272  0.1028
   46MOL   H60728597   4.181   6.514   5.757  0.3207 -0.7601  0.7801
   46MOL   H60828598   4.186   6.573   5.912  1.2130  0.0757  0.3770
   46MOL   H60928599   4.414   6.686   5.857 -0.5794 -0.5475  0.0346
   46MOL   H61028600   4.416   6.625   5.703  0.1582 -1.4227  0.3125
   46MOL   H61128601   4.170   6.729   5.698 -0.3362 -0.3985  0.9126
   46MOL   H61228602   4.230   6.821   5.843  4.2964 -0.3521  1.8853
   46MOL   H61328603   4.243   6.955   5.632  0.2685 -0.1736 -0.3341
   46MOL   H61428604   4.350   6.853   5.559  0.3417 -0.7543  0.3745
   46MOL   H61528605   4.452   6.996   5.806  0.0868  1.2590 -0.9540
   46MOL   H61628606   4.528   6.866   5.724  1.4362  0.9390 -2.1650
   46MOL   H61728607   4.433   7.104   5.560 -2.0078 -0.7125  2.8480
   46MOL   H61828608   4.547   6.996   5.509 -0.8055  1.8081 -1.7069
   46MOL   H61928609   4.596   7.099   5.642 -0.3470 -0.4562  2.1681
   46MOL   H62028610   4.333   6.009   5.927  0.5200 -1.0488 -0.7399
   46MOL   H62128611   4.203   5.897   5.909 -1.1572  0.1110 -2.0752
   46MOL   H62228612   4.281   5.961   5.764  1.4358  1.5072  0.0375
   47MOL     C128613   3.802   7.235   4.980 -0.4825 -0.8501 -0.0333
   47MOL     O228614   3.752   7.328   5.078  0.6050  0.7879 -0.1696
   47MOL     C328615   3.740   7.285   5.212  0.0114 -0.3310  0.0657
   47MOL     C428616   3.770   7.411   5.299 -0.1105 -0.7927 -0.1840
   47MOL     C528617   3.811   7.393   5.443  0.4550 -0.1041 -0.6623
   47MOL     C628618   3.833   7.526   5.522  0.8206 -0.2214  0.5940
   47MOL     C728619   3.891   7.505   5.661  0.2110 -0.3180 -0.3149
   47MOL     C828620   3.883   7.634   5.744 -0.9096 -0.3628 -0.1449
   47MOL     C928621   3.943   7.595   5.880 -0.6629  0.3248  0.7114
   47MOL    C1028622   4.015   7.714   5.952  0.3059  0.0501  0.5729
   47MOL    C1128623   3.774   7.304   4.844 -0.2608 -1.1383  0.1359
   47MOL    H1228624   3.905   7.204   4.998  0.1037 -0.0284 -1.9137
   47MOL    H1328625   3.820   7.216   5.240  0.4221  0.3254  0.5266
   47MOL    H1428626   3.643   7.247   5.247 -0.5147  0.5710 -0.3907
   47MOL    H1528627   3.680   7.471   5.289 -1.3368 -2.5833 -0.0854
   47MOL    H1628628   3.844   7.465   5.240  0.3162 -0.1667  0.9098
   47MOL    H1728629   3.725   7.345   5.489 -0.9423  2.9090 -0.0480
   47MOL    H1828630   3.886   7.314   5.455 -0.9285 -1.8715 -3.0855
   47MOL    H1928631   3.885   7.602   5.464 -1.7156  1.0008 -0.1609
   47MOL    H2028632   3.735   7.574   5.530  0.0391 -1.3693 -1.6108
   47MOL    H2128633   3.851   7.420   5.717  0.2462 -0.5278 -0.6065
   47MOL    H2228634   3.996   7.480   5.647  0.1772 -0.4422 -0.3459
   47MOL    H2328635   3.779   7.664   5.760 -1.8581 -0.7780 -4.8672
   47MOL    H2428636   3.935   7.719   5.701 -1.7721  0.4263  0.3398
   47MOL    H2528637   3.877   7.549   5.953 -0.7685  0.5832  0.7805
   47MOL    H2628638   4.008   7.509   5.867 -3.0729 -1.1114 -2.4665
   47MOL    H2728639   4.061   7.683   6.046  3.0888  0.5083 -0.5887
   47MOL    H2828640   3.972   0.040   5.956  0.0782  0.0494 -1.3710
   47MOL    H2928641   4.106   7.732   5.894 -0.0287  3.9566  1.1330
   47MOL    H3028642   3.840   7.391   4.842 -0.4934 -0.9361 -4.1725
   47MOL    H3128643   3.814   7.237   4.768  1.3980  1.5663 -1.4571
   47MOL    H3228644   3.732   7.152   4.988 -1.7232  0.2859  1.4199
   47MOL    C3328645   3.629   7.342   4.813  0.3159  0.2196  0.1923
   47MOL    O3428646   3.562   7.213   4.798 -0.4150  0.1911  0.1019
   47MOL    C3528647   3.453   7.204   4.890 -0.0668  0.6059  0.8109
   47MOL    C3628648   3.372   7.075   4.852 -0.2630 -0.1355 -0.5114
   47MOL    C3728649   3.275   7.090   4.739  0.4119 -0.5395 -0.2083
   47MOL    C3828650   3.201   6.958   4.718  0.3026 -0.0166 -0.0790
   47MOL    C3928651   3.136   6.938   4.576 -0.3306  0.5520 -0.3033
   47MOL    C4028652   3.066   6.805   4.569  0.0390 -1.0413  1.0002
   47MOL    C4128653   3.012   6.770   4.426 -0.0199  0.0817 -0.3343
   47MOL    C4228654   3.130   6.721   4.333 -0.5668 -0.3047 -0.1354
   47MOL    C4328655   3.623   7.421   4.679 -0.3805  0.1038  0.1528
   47MOL    H4428656   3.602   7.405   4.898 -0.8234 -1.0329  0.7811
   47MOL    H4528657   3.396   7.297   4.894  2.0681  2.0205 -0.4088
   47MOL    H4628658   3.501   7.203   4.988 -0.0602 -1.0218  0.7888
   47MOL    H4728659   3.323   7.023   4.935 -1.4877  0.2983 -0.9557
   47MOL    H4828660   3.433   6.992   4.816  2.3952  0.6702  1.8920
   47MOL    H4928661   3.202   7.165   4.769 -0.0844 -1.1471  0.0920
   47MOL    H5028662   3.327   7.129   4.651  1.1440  1.2692  1.0017
   47MOL    H5128663   3.270   6.873   4.719  0.2408 -0.0696 -0.2113
   47MOL    H5228664   3.130   6.957   4.801 -1.6389  2.2453 -1.6653
   47MOL    H5328665   3.053   7.008   4.562  0.0840  0.8992 -1.0741
   47MOL    H5428666   3.206   6.959   4.495 -1.3889 -0.2492 -1.4438
   47MOL    H5528667   2.997   6.801   4.654 -0.9185  1.6429  0.3901
   47MOL    H5628668   3.138   6.726   4.592 -0.2813 -1.2150  1.4208
   47MOL    H5728669   2.936   6.695   4.449 -0.6247  0.8162  0.1085
   47MOL    H5828670   2.967   6.856   4.378  0.9389  1.0282  0.4426
   47MOL    H5928671   3.081   6.719   4.235 -0.4759  2.1438 -0.2525
   47MOL    H6028672   3.173   6.626   4.365 -0.2043 -0.3492 -0.7337
   47MOL    H6128673   3.212   6.793   4.328  0.5790 -1.5880 -0.2817
   47MOL    H6228674   3.709   7.487   4.668  1.8039 -2.5896  0.5900
   47MOL    H6328675   3.649   7.357   4.594 -0.3949  0.1741  0.0947
   47MOL    C6428676   3.487   7.492   4.651 -0.6367 -0.2263 -0.4631
   47MOL    O6528677   3.461   7.474   4.515  0.7776  0.3811 -0.1653
   47MOL    C6628678   3.370   7.368   4.491 -0.2651  0.1776  0.6402
   47MOL    C6728679   3.312   7.391   4.346 -0.5142 -0.3933  0.2796
   47MOL    C6828680   3.173   7.325   4.326  0.3604  0.4669  0.4692
   47MOL    C6928681   3.104   7.318   4.183  0.2684 -0.1816 -0.1865
   47MOL    C7028682   2.983   7.226   4.171  0.4541  0.6795  0.4366
   47MOL    C7128683   3.008   7.076   4.190  0.3020 -0.7749 -0.8320
   47MOL    C7228684   2.888   6.992   4.144  0.2253  0.2410  0.2671
   47MOL    C7328685   2.765   7.007   4.232  0.8962 -0.2027  0.3257
   47MOL    C7428686   3.511   7.643   4.662 -0.0799 -0.4668 -0.7035
   47MOL    H7528687   3.403   7.474   4.717 -0.4165  0.3519 -0.0216
   47MOL    H7628688   3.280   7.374   4.552  0.0173  2.5905  0.8534
   47MOL    H7728689   3.417   7.269   4.492 -0.2812  0.1587 -0.1395
   47MOL    H7828690   3.373   7.356   4.263  0.4489 -0.6797  1.0979
   47MOL    H7928691   3.308   7.499   4.344  3.9816 -0.1531 -0.0626
   47MOL    H8028692   3.181   7.227   4.372 -1.2657 -0.3754 -0.9900
   47MOL    H8128693   3.111   7.373   4.401  2.1152  1.2060  1.4767
   47MOL    H8228694   3.061   7.416   4.168  0.3817 -0.1288 -0.1656
   47MOL    H8328695   3.176   7.294   4.105  0.4263 -0.6272  0.0892
   47MOL    H8428696   2.914   7.251   4.251 -2.1885  0.1847 -1.5948
   47MOL    H8528697   2.932   7.248   4.077  2.1087  2.0468 -0.1457
   47MOL    H8628698   3.019   7.057   4.296 -1.3310  1.5242 -0.2043
   47MOL    H8728699   3.101   7.055   4.138 -0.1463 -0.0351 -1.9578
   47MOL    H8828700   2.861   7.013   4.041  0.1724 -2.5675 -0.3500
   47MOL    H8928701   2.915   6.886   4.142 -0.5398  0.0558 -0.8041
   47MOL    H9028702   2.777   6.952   4.326 -0.0967  2.2871  1.9796
   47MOL    H9128703   2.691   6.951   4.175  0.3371 -1.7219  2.4841
   47MOL    H9228704   2.730   7.111   4.236  0.4339 -0.3057 -0.8061
   47MOL    H9328705   3.583   7.666   4.583  0.1568  0.4627 -0.2238
   47MOL    H9428706   3.418   7.696   4.641 -0.4444 -0.8925 -0.1570
   47MOL    C9528707   3.571   7.703   4.794  0.3082 -0.4989 -0.2344
   47MOL    O9628708   3.483   7.672   4.900 -0.2654  0.2197 -0.2200
   47MOL    C9728709   3.563   7.666   5.022  0.9247  0.2245 -0.0255
   47MOL    C9828710   3.465   7.629   5.136  0.4568  0.4238 -0.1091
   47MOL    C9928711   3.380   7.499   5.103  0.1899 -0.1309 -0.3225
   47MOL   C10028712   3.271   7.474   5.207  0.9259  0.6390 -0.4026
   47MOL   C10128713   3.167   7.373   5.151 -0.0238  0.1163  0.0343
   47MOL   C10228714   3.034   7.363   5.224 -0.3359  0.3134  0.3480
   47MOL   C10328715   2.919   7.288   5.144 -0.2308 -0.2202 -0.9396
   47MOL   C10428716   2.934   7.139   5.132 -0.0765  0.9926 -0.3973
   47MOL   C10528717   3.570   0.085   4.780  0.3524 -0.5348  0.2676
   47MOL   H10628718   3.672   7.663   4.800  0.8536  0.8993  0.1897
   47MOL   H10728719   3.601   7.768   5.032 -1.7731  1.2653  0.0755
   47MOL   H10828720   3.644   7.593   5.021 -1.2422 -2.2759 -2.2397
   47MOL   H10928721   3.400   7.712   5.162  0.1204 -0.1946  1.0613
   47MOL   H11028722   3.512   7.604   5.231 -0.6157 -2.2045 -0.2384
   47MOL   H11128723   3.337   7.511   5.004 -2.4695 -0.1344  0.7706
   47MOL   H11228724   3.454   7.419   5.096 -1.1368 -1.3703 -0.5119
   47MOL   H11328725   3.314   7.433   5.299  1.7248  0.2498 -0.9488
   47MOL   H11428726   3.226   7.571   5.229  1.0643  0.6932 -0.3539
   47MOL   H11528727   3.143   7.400   5.048 -2.9723 -0.3090  0.5592
   47MOL   H11628728   3.216   7.276   5.143  0.4035  0.2822  0.6286
   47MOL   H11728729   2.985   7.460   5.217  2.3793  1.6176 -1.8056
   47MOL   H11828730   3.043   7.332   5.328  0.5050  0.5634  0.3495
   47MOL   H11928731   2.824   7.305   5.193  0.2276 -0.7213  0.1441
   47MOL   H12028732   2.919   7.324   5.041  0.5350 -0.0864 -0.8968
   47MOL   H12128733   2.904   7.076   5.216  2.4360 -0.2732 -0.4185
   47MOL   H12228734   3.040   7.116   5.126  0.1306  1.6973  0.5032
   47MOL   H12328735   2.878   7.089   5.053 -0.7649  2.1289 -0.6444
   47MOL   H12428736   3.465   0.115   4.774  0.4060 -0.6053 -1.1619
   47MOL   H12528737   3.590   0.134   4.876  0.3132 -0.3540  0.1844
   47MOL   C12628738   3.660   0.151   4.667  0.4116  0.4489  0.5047
   47MOL   O12728739   3.793   0.158   4.716 -0.2448 -0.1108 -0.1095
   47MOL   C12828740   3.894   0.191   4.623 -0.7140 -0.6348 -0.0202
   47MOL   C12928741   4.039   0.188   4.675 -0.0736  0.5754  0.4525
   47MOL   C13028742   4.068   0.284   4.790  0.1484  0.1855  0.4126
   47MOL   C13128743   4.217   0.279   4.833  0.3835 -0.1204 -0.1203
   47MOL   C13228744   4.264   0.364   4.953  0.2994 -0.0251  0.5019
   47MOL   C13328745   4.418   0.386   4.949 -0.2194  0.4047 -0.2339
   47MOL   C13428746   4.470   0.477   5.060 -0.3917 -0.2275 -0.0525
   47MOL   C13528747   4.619   0.479   5.078 -0.2734 -0.3449  0.0715
   47MOL   C13628748   3.604   0.291   4.630 -0.6128  0.3573  0.4483
   47MOL   H13728749   3.673   0.099   4.573  1.3693  0.3586  0.6758
   47MOL   H13828750   3.867   0.287   4.578  0.7034 -0.5947 -0.8136
   47MOL   H13928751   3.888   0.115   4.545 -1.1206  0.0402 -0.6577
   47MOL   H14028752   4.107   0.208   4.593 -3.1131 -0.6166 -2.5084
   47MOL   H14128753   4.068   0.090   4.713 -1.3200  0.3844  0.9496
   47MOL   H14228754   4.060   0.388   4.757  2.2611  0.0123 -0.7523
   47MOL   H14328755   4.001   0.280   4.875  2.1330  0.3339  2.0152
   47MOL   H14428756   4.235   0.177   4.867 -0.0189 -0.3655 -0.6351
   47MOL   H14528757   4.279   0.304   4.747 -0.8257 -0.2055 -1.0261
   47MOL   H14628758   4.210   0.458   4.956  1.7214  0.8121  0.3409
   47MOL   H14728759   4.235   0.310   5.043 -1.1846 -1.4898 -0.8112
   47MOL   H14828760   4.450   0.422   4.851 -0.1492 -1.5672 -0.9641
   47MOL   H14928761   4.466   0.289   4.963  1.6618  1.1037 -1.6801
   47MOL   H15028762   4.431   0.577   5.043  0.7646  0.0438 -1.1517
   47MOL   H15128763   4.428   0.448   5.156 -1.1273  1.2183  0.0683
   47MOL   H15228764   4.652   0.545   5.158 -1.5593 -0.1022  0.4010
   47MOL   H15328765   4.668   0.505   4.984  0.8798 -1.6739  0.2769
   47MOL   H15428766   4.656   0.382   5.110 -0.3830 -0.8415 -1.2754
   47MOL   H15528767   3.587   0.361   4.712 -0.7914  0.7321  0.0955
   47MOL   H15628768   3.669   0.343   4.560 -1.9807  1.4207 -0.0488
   47MOL   C15728769   3.477   0.284   4.550 -0.6932 -0.7616 -1.1813
   47MOL   O15828770   3.492   0.372   4.436 -0.0073 -0.3931 -0.9534
   47MOL   C15928771   3.550   0.317   4.317 -0.0278  0.1574 -0.7419
   47MOL   C16028772   3.507   0.401   4.192  0.4586 -0.1093  0.5310
   47MOL   C16128773   3.578   0.533   4.186 -0.2161  1.2302  0.2150
   47MOL   C16228774   3.535   0.613   4.064 -0.2901 -0.4291  1.0071
   47MOL   C16328775   3.624   0.734   4.044 -0.0896 -0.4372  0.4679
   47MOL   C16428776   3.567   0.821   3.934 -0.0901  0.6647 -0.3062
   47MOL   C16528777   3.624   0.966   3.934  0.2169  0.0874 -0.1474
   47MOL   C16628778   3.607   1.039   4.063  0.0083  0.2302  0.4698
   47MOL   C16728779   3.364   0.334   4.639 -0.1850  0.4653 -0.3581
   47MOL   H16828780   3.457   0.183   4.516 -0.4838 -0.2119 -3.0132
   47MOL   H16928781   3.504   0.219   4.303  0.5918 -0.2700  0.1818
   47MOL   H17028782   3.659   0.316   4.320 -0.0178 -2.8018 -0.1061
   47MOL   H17128783   3.400   0.411   4.210  0.1452 -1.9762 -0.1436
   47MOL   H17228784   3.525   0.342   4.103 -0.8563  1.2942 -0.6912
   47MOL   H17328785   3.550   0.599   4.268  1.2089 -0.3007  1.9473
   47MOL   H17428786   3.686   0.519   4.189 -0.5390 -0.9979  3.3297
   47MOL   H17528787   3.542   0.557   3.971  0.4973  1.9322 -0.3965
   47MOL   H17628788   3.431   0.646   4.073 -0.4471 -0.5186 -0.3745
   47MOL   H17728789   3.616   0.780   4.142 -0.6782 -0.5316  0.4691
   47MOL   H17828790   3.728   0.706   4.032 -0.5198 -2.6498  1.7041
   47MOL   H17928791   3.459   0.817   3.945 -0.5665  0.5954 -4.3053
   47MOL   H18028792   3.585   0.775   3.837  0.0563 -1.1126  0.5434
   47MOL   H18128793   3.726   0.970   3.897  0.1201  2.1250 -0.2404
   47MOL   H18228794   3.577   1.039   3.868 -0.3400 -1.0233 -0.9832
   47MOL   H18328795   3.510   1.025   4.110 -0.0144  0.3561  0.4610
   47MOL   H18428796   3.616   1.146   4.042  1.0414  0.0640  0.0225
   47MOL   H18528797   3.687   1.013   4.132 -1.1979 -0.4902  1.6016
   47MOL   H18628798   3.368   0.296   4.741  0.5030  3.1769  0.6600
   47MOL   H18728799   3.371   0.443   4.646 -0.4229  0.5837 -1.8782
   47MOL   C18828800   3.226   0.291   4.595  0.4313 -0.3100  0.3762
   47MOL   O18928801   3.203   0.152   4.620 -0.0016  0.1893  0.6230
   47MOL   C19028802   3.136   0.122   4.747  0.0453 -0.4163 -0.6483
   47MOL   C19128803   3.137   7.742   4.774 -0.3342 -0.6480  0.0434
   47MOL   C19228804   3.040   7.658   4.693  0.1789  0.5377 -0.6182
   47MOL   C19328805   3.019   7.519   4.748  0.3282 -0.3333 -0.1600
   47MOL   C19428806   2.906   7.445   4.672 -0.1031 -0.0152  0.2119
   47MOL   C19528807   2.893   7.292   4.705  0.2947  0.0845  0.7146
   47MOL   C19628808   2.785   7.226   4.622  0.0086 -1.2122  0.0214
   47MOL   C19728809   2.765   7.075   4.653  0.0786  0.2991 -0.0879
   47MOL   C19828810   3.200   0.311   4.447  0.6250 -0.0645 -0.2493
   47MOL   H19928811   3.156   0.340   4.663  0.4305 -1.9833  1.6235
   47MOL   H20028812   3.175   0.171   4.836  0.3866 -1.5328 -0.1738
   47MOL   H20128813   3.033   0.156   4.754 -0.2129 -1.0492 -1.3190
   47MOL   H20228814   3.123   7.727   4.881 -0.7034  2.2489  0.4425
   47MOL   H20328815   3.238   7.709   4.747 -0.6537  0.1711 -2.2644
   47MOL   H20428816   2.945   7.708   4.711  0.3148  0.3793  0.5498
   47MOL   H20528817   3.067   7.656   4.587  0.4478 -0.7653 -0.5366
   47MOL   H20628818   3.109   7.465   4.719  1.0010  1.3396 -1.2726
   47MOL   H20728819   3.020   7.512   4.857 -2.4817 -0.4549 -0.1081
   47MOL   H20828820   2.814   7.496   4.697 -0.0709  0.2448 -0.1908
   47MOL   H20928821   2.916   7.449   4.563 -0.1232  1.9740  0.2713
   47MOL   H21028822   2.871   7.293   4.812 -2.5018 -0.6535  0.2076
   47MOL   H21128823   2.992   7.252   4.686  0.2111  0.6175 -0.8519
   47MOL   H21228824   2.691   7.273   4.648  0.5377 -0.7112  1.0730
   47MOL   H21328825   2.799   7.243   4.515  2.2153  1.4780  0.6834
   47MOL   H21428826   2.673   7.037   4.608 -1.3343  1.1516  1.9954
   47MOL   H21528827   2.763   7.053   4.760 -0.0126 -0.2460 -0.2043
   47MOL   H21628828   2.840   7.016   4.601 -2.1470 -1.3573 -1.5054
   47MOL   H21728829   3.225   0.413   4.415  0.5841  0.1297  0.3428
   47MOL   H21828830   3.262   0.245   4.387  0.3899 -1.9189  1.5186
   47MOL   C21928831   3.053   0.282   4.403  0.2119 -0.0859 -0.2378
   47MOL   O22028832   3.037   0.175   4.313 -0.2452  0.7663  0.2063
   47MOL   C22128833   3.044   0.046   4.369 -0.2457  0.3597 -0.2232
   47MOL   C22228834   3.058   7.729   4.255  0.1324  0.0271  0.1494
   47MOL   C22328835   3.195   7.756   4.179  0.2010  0.0047  0.7908
   47MOL   C22428836   3.203   7.681   4.048 -0.4734 -0.0791  0.0881
   47MOL   C22528837   3.347   7.671   4.005  0.1815  0.1250 -0.0888
   47MOL   C22628838   3.381   7.573   3.893 -0.1261  0.0468 -0.5538
   47MOL   C22728839   3.525   7.582   3.837  0.1597  0.1875 -0.5328
   47MOL   C22828840   3.546   7.503   3.710 -0.2287 -0.0580  0.9125
   47MOL   C22928841   2.983   0.397   4.316 -0.5748  1.0744  0.2176
   47MOL   H23028842   2.993   0.253   4.489 -2.7963  2.8710 -1.2113
   47MOL   H23128843   2.962   0.033   4.439  0.7796  0.0323  0.9504
   47MOL   H23228844   3.137   0.031   4.424 -0.4469  2.4986  0.7686
   47MOL   H23328845   2.976   7.729   4.183  1.2507 -1.0809 -1.1541
   47MOL   H23428846   3.053   7.629   4.299  0.4008 -0.6034 -1.2195
   47MOL   H23528847   3.220   0.086   4.164 -1.8254  0.4082 -0.0159
   47MOL   H23628848   3.270   7.709   4.242  1.9458 -0.0753 -1.2916
   47MOL   H23728849   3.167   7.579   4.063  1.8178 -0.6854  1.7887
   47MOL   H23828850   3.143   7.730   3.971 -0.5027 -1.7970 -0.9907
   47MOL   H23928851   3.392   7.766   3.978  1.5295 -0.2852  0.6497
   47MOL   H24028852   3.403   7.641   4.094 -0.7940  0.5927  0.6907
   47MOL   H24128853   3.313   7.578   3.808  2.2588 -0.9271 -2.5710
   47MOL   H24228854   3.371   7.467   3.917 -0.9308  0.1569 -0.3723
   47MOL   H24328855   3.559   7.685   3.827 -0.8181  0.6373  0.6372
   47MOL   H24428856   3.581   7.535   3.917 -1.5667 -0.6263  0.2376
   47MOL   H24528857   3.505   7.403   3.719 -2.1700  0.6111 -0.2790
   47MOL   H24628858   3.653   7.485   3.698 -0.2367 -1.2354  2.4768
   47MOL   H24728859   3.513   7.537   3.612  0.1074 -1.5768  0.2622
   47MOL   H24828860   2.878   0.376   4.302 -0.3016  0.8853 -1.6145
   47MOL   H24928861   2.988   0.481   4.386 -1.3754  2.0018 -0.8230
   47MOL   C25028862   3.050   0.412   4.178 -0.3485  0.1294  0.8846
   47MOL   O25128863   3.041   0.548   4.158 -0.1992  0.2387  0.4278
   47MOL   C25228864   3.146   0.620   4.216 -0.2121  0.0507 -0.1823
   47MOL   C25328865   3.111   0.768   4.214  0.2976  0.7531  0.0478
   47MOL   C25428866   3.224   0.848   4.277  0.4175 -0.1100  0.6294
   47MOL   C25528867   3.172   0.998   4.287  0.1488  0.0290 -0.1622
   47MOL   C25628868   3.278   1.075   4.368 -0.5981  0.2649 -0.5048
   47MOL   C25728869   3.261   1.230   4.379  0.5132 -0.4470  0.6046
   47MOL   C25828870   3.381   1.298   4.434 -0.0961  0.3806  0.0926
   47MOL   C25928871   3.368   1.451   4.424  0.0074  0.0381  0.7075
   47MOL   C26028872   2.970   0.355   4.057 -0.4453  0.1406 -0.1416
   47MOL   H26128873   3.152   0.374   4.175 -1.1047 -1.8543 -0.5570
   47MOL   H26228874   3.229   0.601   4.148  1.8305  0.2392  2.1571
   47MOL   H26328875   3.166   0.584   4.317 -0.7291  2.0996  0.6850
   47MOL   H26428876   3.013   0.782   4.258 -0.9998  0.0269 -2.5063
   47MOL   H26528877   3.088   0.787   4.110 -1.9301 -2.6860 -0.1919
   47MOL   H26628878   3.242   0.805   4.376  1.8397 -2.4420 -0.6070
   47MOL   H26728879   3.313   0.852   4.216 -1.0113 -0.1026 -1.5083
   47MOL   H26828880   3.159   1.043   4.189  0.1386  2.6444  1.0089
   47MOL   H26928881   3.080   0.989   4.344  0.1348  0.0342 -0.1848
   47MOL   H27028882   3.278   1.033   4.468  1.6753  1.8745  0.2323
   47MOL   H27128883   3.370   1.052   4.314 -0.7877  0.0414 -0.7320
   47MOL   H27228884   3.178   1.250   4.446  1.4411 -0.0046  1.6533
   47MOL   H27328885   3.234   1.266   4.280  1.5921 -0.9625  0.1125
   47MOL   H27428886   3.398   1.277   4.540  0.1375 -0.0524 -0.0308
   47MOL   H27528887   3.470   1.264   4.381  0.4706  1.0953  0.5711
   47MOL   H27628888   3.268   1.487   4.449 -0.7374 -2.0688  0.8397
   47MOL   H27728889   3.384   1.475   4.319 -1.6054 -1.6064  0.0795
   47MOL   H27828890   3.435   1.494   4.500  0.8496  2.4963 -1.3706
   47MOL   H27928891   2.954   0.249   4.072 -0.0859  0.0505 -0.3751
   47MOL   H28028892   2.871   0.400   4.052 -1.2157 -1.5153  0.1364
   47MOL   C28128893   3.048   0.386   3.919 -0.1642 -0.4297  0.6505
   47MOL   O28228894   2.945   0.357   3.821 -0.3964  0.2754  0.2293
   47MOL   C28328895   2.874   0.474   3.781 -0.4562 -0.0284 -0.4925
   47MOL   C28428896   2.777   0.424   3.667  0.4069 -0.3011 -0.5616
   47MOL   C28528897   2.858   0.355   3.561 -0.1235  0.2067  0.3111
   47MOL   C28628898   2.767   0.283   3.456 -0.9326 -0.2198 -0.8431
   47MOL   C28728899   2.840   0.231   3.334 -0.2793  0.8420 -0.0839
   47MOL   C28828900   2.759   0.147   3.234  0.1126 -0.6525 -0.1600
   47MOL   C28928901   2.688   0.027   3.291  0.0051 -0.0887 -0.2017
   47MOL   C29028902   2.777   7.694   3.364 -0.5049  0.5192  0.2814
   47MOL   C29128903   3.154   0.286   3.898  0.3953 -0.4290 -0.9929
   47MOL   H29228904   3.087   0.488   3.912 -0.3808 -0.3589  0.4742
   47MOL   H29328905   2.953   0.544   3.754  1.2259 -1.0235  1.6774
   47MOL   H29428906   2.820   0.528   3.859 -0.2123  0.9952 -1.0201
   47MOL   H29528907   2.726   0.511   3.627  1.4480  1.2606  1.4081
   47MOL   H29628908   2.708   0.348   3.704  0.8592 -0.4850 -0.0647
   47MOL   H29728909   2.930   0.414   3.505 -2.0709  1.9076 -0.4602
   47MOL   H29828910   2.910   0.277   3.617  0.4193  0.8955  0.7777
   47MOL   H29928911   2.712   0.200   3.502 -0.0650 -0.5968 -0.4718
   47MOL   H30028912   2.676   0.340   3.440 -0.7066  0.1942 -0.6474
   47MOL   H30128913   2.893   0.308   3.277  1.5560  0.2795  0.8385
   47MOL   H30228914   2.926   0.171   3.362  0.4834  1.5469 -0.8897
   47MOL   H30328915   2.826   0.119   3.153  2.0681 -1.4531  1.6831
   47MOL   H30428916   2.685   0.212   3.188  0.7505  1.5241  1.8113
   47MOL   H30528917   2.613   0.065   3.361  0.9746  0.2204  0.6802
   47MOL   H30628918   2.636   7.742   3.215 -0.3496 -1.4924  1.0870
   47MOL   H30728919   2.848   7.642   3.300  0.7460  2.3252  0.1705
   47MOL   H30828920   2.720   7.620   3.420 -0.2460 -0.3676 -0.6292
   47MOL   H30928921   2.826   7.752   3.442  1.7953  1.3412 -1.6981
   47MOL   H31028922   3.223   0.287   3.983  0.9567  2.5507 -1.4002
   47MOL   H31128923   3.113   0.186   3.893 -0.8757 -0.0558  1.0059
   47MOL   C31228924   3.238   0.325   3.776 -0.2002  0.2959 -0.0177
   47MOL   O31328925   3.300   0.210   3.722  0.4324 -0.2549 -0.2722
   47MOL   C31428926   3.227   0.130   3.630 -0.2249 -0.1694 -0.9211
   47MOL   C31528927   3.319   0.011   3.581 -0.1979 -0.1807 -0.6279
   47MOL   C31628928   3.267   7.705   3.468  0.0559  0.1817  0.5559
   47MOL   C31728929   3.273   0.011   3.331 -0.9926 -0.4226 -0.4425
   47MOL   C31828930   3.254   7.696   3.212 -0.5061 -0.3877 -0.3449
   47MOL   C31928931   3.231   7.765   3.077 -0.8997  0.2494  0.2565
   47MOL   C32028932   3.237   7.673   2.950  0.0675 -0.3851 -0.2863
   47MOL   C32128933   3.215   7.756   2.823  0.0806  0.4908  0.5164
   47MOL   C32228934   3.342   0.433   3.814  0.0613  0.0915  0.2246
   47MOL   H32328935   3.172   0.371   3.702 -0.3736 -1.1955 -0.7891
   47MOL   H32428936   3.195   0.194   3.547  0.6202 -0.9779 -1.8938
   47MOL   H32528937   3.138   0.079   3.666 -0.0382  0.2433  0.1359
   47MOL   H32628938   3.345   7.737   3.675 -0.5486  0.6945 -0.0769
   47MOL   H32728939   3.416   0.053   3.554 -0.0309  0.3379  0.7280
   47MOL   H32828940   3.326   7.614   3.467  1.1560  0.8839  1.3409
   47MOL   H32928941   3.162   7.682   3.488 -0.1810  2.2054  1.8288
   47MOL   H33028942   3.205   0.096   3.324  0.4971  0.7321 -1.0210
   47MOL   H33128943   3.374   0.051   3.334 -0.7251 -1.1964  1.2299
   47MOL   H33228944   3.344   7.634   3.212 -0.6128 -0.5639  1.3099
   47MOL   H33328945   3.172   7.626   3.225 -0.9401  0.3277  0.8475
   47MOL   H33428946   3.308   0.068   3.074 -1.1224  0.5843  2.2635
   47MOL   H33528947   3.136   0.044   3.084 -0.5803  0.8740 -0.1643
   47MOL   H33628948   3.331   7.617   2.955 -0.2336 -1.1346 -2.6189
   47MOL   H33728949   3.159   7.599   2.968  0.0455 -0.3694 -0.3195
   47MOL   H33828950   3.297   0.046   2.791  2.8410 -2.7090  0.7819
   47MOL   H33928951   3.132   0.049   2.842  0.0656 -0.4039  4.0590
   47MOL   H34028952   3.195   7.685   2.742  2.9428  1.5905 -1.2291
   47MOL   H34128953   3.295   0.493   3.892  1.2519  1.1896  0.1151
   47MOL   H34228954   3.435   0.396   3.856  0.6599  1.0839 -0.2132
   47MOL   C34328955   3.374   0.536   3.695  0.3398  0.3733  0.4566
   47MOL   O34428956   3.261   0.602   3.641 -0.1282 -0.3658  0.1162
   47MOL   C34528957   3.277   0.730   3.575  0.2200 -1.4200 -0.6574
   47MOL   C34628958   3.230   0.832   3.678 -0.2769 -0.4784  0.3947
   47MOL   C34728959   3.276   0.978   3.657  0.4229 -0.1023 -0.3863
   47MOL   C34828960   3.265   1.072   3.780  0.3488  0.2466  0.2623
   47MOL   C34928961   3.297   1.207   3.744 -0.0072 -0.0279  0.5775
   47MOL   C35028962   3.249   1.302   3.862 -0.3173 -0.5039  0.3445
   47MOL   C35128963   3.269   1.453   3.848  0.9496  0.5533 -0.6064
   47MOL   C35228964   3.418   1.489   3.848  0.2214  0.6204  0.4303
   47MOL   C35328965   3.467   0.475   3.586  0.2245  0.6811  0.8294
   47MOL   H35428966   3.424   0.616   3.750  1.3766 -0.3025  0.5176
   47MOL   H35528967   3.214   0.745   3.488 -1.5887  0.7028  0.9822
   47MOL   H35628968   3.381   0.753   3.552 -0.3424 -0.2306 -2.0087
   47MOL   H35728969   3.253   0.801   3.780 -1.3159  2.9097  1.7290
   47MOL   H35828970   3.121   0.830   3.686 -0.2161 -4.9806  1.4222
   47MOL   H35928971   3.378   0.976   3.617  0.7076  1.3284  0.2424
   47MOL   H36028972   3.224   1.019   3.570 -1.4607  2.1137  1.7043
   47MOL   H36128973   3.161   1.074   3.811  0.5037  1.8219  0.7454
   47MOL   H36228974   3.323   1.036   3.866  0.9887  1.4840  0.3693
   47MOL   H36328975   3.400   1.225   3.713  0.5386 -2.1069  1.1287
   47MOL   H36428976   3.250   1.239   3.651 -1.5873  0.7933  1.6346
   47MOL   H36528977   3.296   1.263   3.952 -1.0732 -0.1167  0.9205
   47MOL   H36628978   3.141   1.288   3.876 -0.1399  0.0007  2.4290
   47MOL   H36728979   3.220   1.486   3.756 -0.9931 -2.2532 -0.6237
   47MOL   H36828980   3.226   1.504   3.935  3.4043  1.8277 -0.0980
   47MOL   H36928981   3.460   1.460   3.944  2.1077  0.5435 -0.4027
   47MOL   H37028982   3.426   1.594   3.823  1.0674 -0.1570 -2.8214
   47MOL   H37128983   3.469   1.442   3.764 -0.8602  0.6083 -0.2385
   47MOL   H37228984   3.422   0.390   3.535  3.8821  0.2723 -1.8951
   47MOL   H37328985   3.482   0.541   3.500 -1.4135 -1.4010 -1.1114
   47MOL   C37428986   3.605   0.423   3.638  0.9326 -1.1262 -0.1097
   47MOL   O37528987   3.705   0.474   3.559  0.1616  0.2133  0.4511
   47MOL   C37628988   3.745   0.600   3.608 -0.7602  0.4410  0.0679
   47MOL   C37728989   3.846   0.587   3.723  0.8704  0.0674 -0.4774
   47MOL   C37828990   3.937   0.714   3.743 -0.2331 -0.1656  0.1490
   47MOL   C37928991   4.044   0.685   3.840  0.1423 -0.3761  0.0023
   47MOL   C38028992   4.093   0.817   3.904  0.5480  0.0521 -0.8798
   47MOL   C38128993   4.191   0.782   4.027  0.1076  0.3938 -0.1184
   47MOL   C38228994   4.249   0.908   4.100  0.9688  0.1784  0.0124
   47MOL   C38328995   4.366   0.856   4.191  0.2081 -0.0714  0.0682
   47MOL   C38428996   3.630   0.270   3.651 -0.4430  0.2066  0.2043
   47MOL   H38528997   3.614   0.466   3.737  1.7921 -2.5169  0.4294
   47MOL   H38628998   3.661   0.666   3.627  0.1653  1.9744 -1.0334
   47MOL   H38728999   3.792   0.650   3.523 -0.2178  2.4335  1.5075
   47MOL   H38829000   3.908   0.499   3.705 -1.4147 -1.9524  1.2415
   47MOL   H38929001   3.780   0.563   3.806  0.6200  0.3098 -0.6068
   47MOL   H39029002   3.983   0.745   3.649  0.2455 -1.5095 -0.0789
   47MOL   H39129003   3.865   0.790   3.774  0.5729 -0.0268  1.7075
   47MOL   H39229004   4.012   0.619   3.920 -0.7720  0.4882  0.3597
   47MOL   H39329005   4.127   0.629   3.796 -0.7609 -1.7007 -0.0490
   47MOL   H39429006   4.147   0.880   3.833  0.2745  0.8968 -0.3475
   47MOL   H39529007   4.010   0.874   3.946  0.5818  0.5033 -1.4254
   47MOL   H39629008   4.279   0.729   3.992  0.8474  0.3072  1.8396
   47MOL   H39729009   4.142   0.714   4.096 -0.3796 -0.3801 -1.2171
   47MOL   H39829010   4.292   0.975   4.025  1.4060 -1.4301 -1.2044
   47MOL   H39929011   4.170   0.949   4.162  2.2741 -0.3380  2.0655
   47MOL   H40029012   4.328   0.781   4.261 -0.0425  0.4054  0.4462
   47MOL   H40129013   4.418   0.931   4.250 -0.6145 -0.1319  0.8801
   47MOL   H40229014   4.441   0.819   4.121  2.0496  2.3471  0.7161
   47MOL   H40329015   3.543   0.231   3.704  2.3937 -2.4325  3.1291
   47MOL   H40429016   3.624   0.220   3.554 -1.7311 -2.3746  1.5780
   47MOL   C40529017   3.758   0.215   3.729  0.0923 -0.1818 -0.5366
   47MOL   O40629018   3.769   0.075   3.701 -0.2324  0.5969 -0.4804
   47MOL   C40729019   3.880   0.036   3.612  0.7176  0.3875 -0.0136
   47MOL   C40829020   3.897   7.653   3.605 -0.5282  0.8402  0.0342
   47MOL   C40929021   3.925   7.598   3.747 -0.0035 -0.9792 -0.5246
   47MOL   C41029022   3.953   7.453   3.761  0.3048 -0.2454 -0.3713
   47MOL   C41129023   4.004   7.421   3.906 -0.2694  0.5410 -0.5466
   47MOL   C41229024   4.068   7.280   3.928 -0.2767  0.0428 -0.7504
   47MOL   C41329025   4.105   7.247   4.075  0.6760 -0.0355  0.2415
   47MOL   C41429026   4.217   7.138   4.084 -0.3772 -0.7391  0.1307
   47MOL   C41529027   3.730   0.230   3.886 -0.0154  0.3779 -0.3851
   47MOL   H41629028   3.850   0.263   3.696  0.2673 -0.7029 -0.8208
   47MOL   H41729029   3.973   0.086   3.640  1.2455 -0.0748 -0.9125
   47MOL   H41829030   3.869   0.060   3.506 -2.3829  0.1159  0.1970
   47MOL   H41929031   3.966   7.622   3.527 -0.7914  0.2093  0.0515
   47MOL   H42029032   3.801   7.612   3.576 -0.3868 -0.3716  1.2477
   47MOL   H42129033   3.997   7.664   3.796 -1.0088  0.3961 -0.8556
   47MOL   H42229034   3.832   7.618   3.800 -0.4016  0.4160 -1.6989
   47MOL   H42329035   3.863   7.395   3.743  0.2198 -0.6747  1.4322
   47MOL   H42429036   4.029   7.417   3.691  3.3804  0.3479  2.5068
   47MOL   H42529037   4.088   7.486   3.928 -0.2073 -0.4492  2.4491
   47MOL   H42629038   3.940   7.443   3.991 -1.3189 -1.3570 -0.8138
   47MOL   H42729039   4.138   7.254   3.849  0.2920  0.0604 -0.2523
   47MOL   H42829040   3.986   7.210   3.909  0.7662 -1.4383  0.1111
   47MOL   H42929041   4.137   7.339   4.124  0.7842 -0.9662  1.9631
   47MOL   H43029042   4.015   7.211   4.125  0.8350  1.0541  1.3434
   47MOL   H43129043   4.194   7.059   4.012  0.0394 -1.5366  0.8752
   47MOL   H43229044   4.224   7.108   4.188  1.4465  2.4235  0.9813
   47MOL   H43329045   4.307   7.179   4.037 -1.0118  0.1806 -0.3112
   47MOL   H43429046   3.684   0.327   3.904 -1.0929 -0.2700  0.3656
   47MOL   H43529047   3.654   0.161   3.922  0.1972  0.0647 -0.5382
   47MOL   C43629048   3.857   0.198   3.976  0.3904 -0.2633  0.4150
   47MOL   O43729049   3.809   0.142   4.094 -0.0049 -0.0920  0.7387
   47MOL   C43829050   3.842   7.774   4.104  0.2138 -0.7996  0.2739
   47MOL   C43929051   3.750   7.710   4.209 -0.5036  0.2240  0.2331
   47MOL   C44029052   3.786   7.564   4.220 -0.6886 -0.2096  0.4180
   47MOL   C44129053   3.691   7.485   4.311  0.3083 -0.1384  0.5353
   47MOL   C44229054   3.721   7.336   4.324  0.2226 -0.1328 -0.5811
   47MOL   C44329055   3.852   7.306   4.391 -0.6751  0.2126  0.6736
   47MOL   C44429056   3.877   7.160   4.404  0.5886  0.4922  0.9261
   47MOL   C44529057   4.012   7.116   4.465 -0.0131  0.0506  0.0463
   47MOL   C44629058   3.919   0.327   4.024 -0.6758  0.5116  0.2111
   47MOL   H44729059   3.935   0.132   3.936  1.5040  0.0132  2.1007
   47MOL   H44829060   3.836   7.722   4.009 -2.2663 -1.0336  0.5212
   47MOL   H44929061   3.940   7.760   4.150  0.2178  1.1390  0.8927
   47MOL   H45029062   3.644   7.727   4.191 -0.9719 -2.8109 -0.1250
   47MOL   H45129063   3.776   7.762   4.301 -0.8488 -2.0287  1.6500
   47MOL   H45229064   3.778   7.515   4.122 -0.4333 -0.6155  0.6004
   47MOL   H45329065   3.887   7.545   4.255  0.1616  1.7485 -0.8929
   47MOL   H45429066   3.697   7.537   4.407  1.3894 -0.4264  0.6299
   47MOL   H45529067   3.589   7.488   4.271  0.0504  0.2099  1.2167
   47MOL   H45629068   3.637   7.284   4.372  1.2312 -1.6059 -0.3872
   47MOL   H45729069   3.724   7.294   4.223 -2.4402  0.0786 -0.7901
   47MOL   H45829070   3.838   7.349   4.490 -1.8432  1.4155  0.0081
   47MOL   H45929071   3.932   7.354   4.333 -0.9799 -0.7606 -0.5674
   47MOL   H46029072   3.793   7.121   4.462 -0.8739  0.8843 -0.8852
   47MOL   H46129073   3.867   7.104   4.310 -0.4557  0.7028  0.9064
   47MOL   H46229074   4.020   7.012   4.497  2.4526 -0.3693 -1.8276
   47MOL   H46329075   4.040   7.180   4.548 -0.7191 -0.8440  0.9858
   47MOL   H46429076   4.086   7.131   4.386  1.0812  0.2706  1.1045
   47MOL   H46529077   3.928   0.402   3.945  1.3710 -0.9537 -0.9975
   47MOL   H46629078   3.838   0.370   4.083 -0.8747 -1.4690  1.4299
   47MOL   C46729079   4.041   0.305   4.117  0.0270 -0.3183  0.0495
   47MOL   O46829080   4.063   0.411   4.211  0.1431  1.0535  0.4478
   47MOL   C46929081   4.011   0.384   4.338  0.2486 -0.1845 -0.2130
   47MOL   C47029082   4.049   0.508   4.424  0.4230  0.6342  0.0828
   47MOL   C47129083   4.200   0.507   4.462 -0.2037 -0.2022  0.7633
   47MOL   C47229084   4.256   0.632   4.536 -0.3343 -0.0676  0.1798
   47MOL   C47329085   4.401   0.630   4.536 -0.1450 -0.0800 -0.3578
   47MOL   C47429086   4.466   0.763   4.577 -0.6465 -0.3068 -0.4064
   47MOL   C47529087   4.619   0.767   4.572 -0.9159 -0.2588  0.1666
   47MOL   C47629088   4.685   0.688   4.684  0.8838 -0.2460 -0.0773
   47MOL   C47729089   4.168   0.309   4.030 -0.2613 -0.7012  0.6137
   47MOL   H47829090   4.048   0.207   4.162  0.7995 -0.0817  0.4580
   47MOL   H47929091   4.047   0.290   4.379  1.0425  0.3800  0.4044
   47MOL   H48029092   3.902   0.386   4.336  0.2313 -2.1429 -1.7900
   47MOL   H48129093   3.990   0.508   4.516  1.0443  1.3404  0.4812
   47MOL   H48229094   4.027   0.598   4.366  1.1600  0.5466 -0.3445
   47MOL   H48329095   4.224   0.415   4.516  0.4860 -0.2692  0.3490
   47MOL   H48429096   4.254   0.491   4.369 -1.0704  1.6008 -0.0759
   47MOL   H48529097   4.218   0.729   4.503 -0.0501 -0.5815 -1.7461
   47MOL   H48629098   4.215   0.628   4.636  1.3207  4.7630  1.1755
   47MOL   H48729099   4.431   0.550   4.604  4.9426  1.5399 -0.4354
   47MOL   H48829100   4.442   0.592   4.442  2.2064  1.4213  0.0085
   47MOL   H48929101   4.423   0.784   4.675  2.7243 -1.4231  1.3889
   47MOL   H49029102   4.439   0.846   4.512 -1.2011 -0.4005 -0.2953
   47MOL   H49129103   4.648   0.721   4.478 -0.2746 -0.4874  0.4755
   47MOL   H49229104   4.650   0.872   4.573 -1.2458 -0.1521 -0.5725
   47MOL   H49329105   4.791   0.706   4.699  0.9736 -1.1229  0.3220
   47MOL   H49429106   4.679   0.581   4.666 -2.3931 -0.2841  0.8553
   47MOL   H49529107   4.643   0.711   4.782  1.4451  0.2510  0.0506
   47MOL   H49629108   4.172   0.236   3.949 -2.7710 -1.8476  1.4549
   47MOL   H49729109   4.182   0.408   3.986 -1.3540  0.0973  2.0211
   47MOL   C49829110   4.307   0.298   4.091 -0.3660  0.2092  0.2578
   47MOL   O49929111   4.409   0.333   4.002  0.3567  0.3893  0.0985
   47MOL   C50029112   4.474   0.462   4.011 -0.1581 -0.7168  0.1265
   47MOL   C50129113   4.557   0.479   3.884  0.1739 -0.3593  0.1973
   47MOL   C50229114   4.672   0.384   3.882  0.1231  0.0933 -0.1633
   47MOL   C50329115   4.735   0.367   3.741  0.3733  0.5583 -0.5160
   47MOL   C50429116   4.654   0.314   3.622 -0.1022  0.3317 -0.5986
   47MOL   C50529117   4.711   0.197   3.537  0.3372  0.3613  0.1404
   47MOL   C50629118   4.816   0.233   3.441 -0.3400  0.6645 -0.3370
   47MOL   C50729119   4.832   0.130   3.331  0.0854  0.3393 -0.5185
   47MOL   C50829120   4.340   0.160   4.154  0.1869  0.3525 -0.6493
   47MOL   H50929121   4.313   0.370   4.172 -1.9690  0.8458 -0.1696
   47MOL   H51029122   4.543   0.469   4.095 -1.0282 -1.9647  0.9621
   47MOL   H51129123   4.405   0.544   4.029  0.3258 -0.3414  0.2924
   47MOL   H51229124   4.586   0.584   3.879 -2.0836  0.3287  0.7978
   47MOL   H51329125   4.490   0.451   3.803  1.1907 -0.8914 -0.4591
   47MOL   H51429126   4.755   0.426   3.940  0.5958  1.5976 -1.8784
   47MOL   H51529127   4.639   0.294   3.933 -2.8674  1.9129  1.2555
   47MOL   H51629128   4.778   0.462   3.709 -0.3584  2.2325  3.1954
   47MOL   H51729129   4.817   0.295   3.742  0.8690  1.1199  1.3884
   47MOL   H51829130   4.558   0.282   3.663  0.6529  2.1881  2.8486
   47MOL   H51929131   4.619   0.396   3.559  0.1241 -0.1236 -1.3267
   47MOL   H52029132   4.625   0.156   3.483  0.2570 -1.0032  1.2645
   47MOL   H52129133   4.742   0.116   3.603  0.5556  0.2339 -0.1201
   47MOL   H52229134   4.796   0.318   3.377  1.2464  1.2358 -0.0953
   47MOL   H52329135   4.915   0.245   3.485  0.8437  0.8839 -2.9805
   47MOL   H52429136   4.905   0.164   3.257  0.8203 -1.5931 -0.6893
   47MOL   H52529137   4.742   0.119   3.271 -0.3423  1.1028 -0.0309
   47MOL   H52629138   4.853   0.028   3.364 -1.3102  0.1111 -0.3233
   47MOL   H52729139   4.270   0.128   4.231  1.2583  0.0643  0.2214
   47MOL   H52829140   4.336   0.080   4.082 -2.1026 -1.4556  1.3926
   47MOL   C52929141   4.473   0.160   4.225 -0.1051 -0.7560 -0.1791
   47MOL   O53029142   4.512   0.028   4.248 -0.4004  0.9748  0.7747
   47MOL   C53129143   4.602   7.752   4.144 -0.1886 -0.0537  0.3924
   47MOL   C53229144   4.552   7.746   3.998 -1.0206 -0.6076  0.0489
   47MOL   C53329145   4.659   7.677   3.907  0.1337  0.3394  0.2661
   47MOL   C53429146   4.798   7.735   3.926 -0.2121 -0.2727 -0.4186
   47MOL   C53529147   4.899   7.694   3.815  0.0476  0.4803 -0.4380
   47MOL   C53629148   5.049   7.724   3.842 -1.1527 -0.4607 -0.1004
   47MOL   C53729149   5.151   7.676   3.741 -0.5979 -0.0169 -0.1058
   47MOL   C53829150   5.180   0.008   3.631 -0.1281  0.3927  1.0387
   47MOL   C53929151   4.477   0.231   4.364  0.2980 -0.7521 -0.5680
   47MOL   H54029152   4.542   0.220   4.165  1.6176 -1.4752  1.0469
   47MOL   H54129153   4.690   0.042   4.151 -0.1471  0.3397 -2.9633
   47MOL   H54229154   4.632   7.648   4.159  0.8372 -0.0034 -1.1433
   47MOL   H54329155   4.535   0.071   3.956  1.1534 -0.4478 -0.4839
   47MOL   H54429156   4.461   7.689   3.978 -0.7445 -1.1702  0.4002
   47MOL   H54529157   4.660   7.568   3.915  1.4222  0.0300 -3.2855
   47MOL   H54629158   4.630   7.696   3.804 -0.8814 -1.4843  0.1899
   47MOL   H54729159   4.787   0.069   3.928  0.7726 -0.1783  1.2980
   47MOL   H54829160   4.847   7.714   4.021 -0.8132  0.3319  0.0401
   47MOL   H54929161   4.884   7.588   3.798 -2.3187  0.6660  0.1957
   47MOL   H55029162   4.878   7.739   3.718 -1.3398 -0.2995 -0.5096
   47MOL   H55129163   5.068   7.671   3.935 -2.5785 -0.4511  0.2112
   47MOL   H55229164   5.059   0.055   3.870 -0.4438 -0.8647  1.1861
   47MOL   H55329165   5.251   7.647   3.776  0.4316  1.1763 -1.9925
   47MOL   H55429166   5.117   7.581   3.701  0.1744  0.9150 -3.1205
   47MOL   H55529167   5.238   7.737   3.550 -1.9857 -3.0300  1.5111
   47MOL   H55629168   5.226   0.090   3.685  0.1397 -0.1717  1.6775
   47MOL   H55729169   5.088   0.048   3.588  0.5574 -0.1447 -1.0326
   47MOL   H55829170   4.430   0.329   4.361  0.1256 -0.8315 -0.4651
   47MOL   H55929171   4.405   0.181   4.429  1.5554 -1.5539  0.2348
   47MOL   C56029172   4.609   0.248   4.446  0.1923  0.0535 -0.3718
   47MOL   O56129173   4.573   0.269   4.590  0.4525 -0.4347  0.1913
   47MOL   C56229174   4.655   0.177   4.669  0.1007  0.0223  0.4830
   47MOL   C56329175   4.595   0.047   4.714  0.7190  0.2181  0.2115
   47MOL   C56429176   4.681   7.737   4.818 -0.0554 -0.2579 -0.1426
   47MOL   C56529177   4.818   7.689   4.775  0.4203 -0.5078  0.1772
   47MOL   C56629178   4.907   7.634   4.884 -0.2141 -0.3630  0.3102
   47MOL   C56729179   5.059   7.631   4.843 -0.0422  0.8531 -0.1711
   47MOL   C56829180   5.162   7.619   4.958 -0.0250  0.3313  0.3501
   47MOL   C56929181   5.308   7.630   4.917  0.6226  0.0029 -0.0083
   47MOL   C57029182   4.705   0.354   4.410 -0.4007 -0.2290  0.0659
   47MOL   H57129183   4.652   0.149   4.436 -1.5802 -0.6875 -0.8920
   47MOL   H57229184   4.678   0.240   4.755  1.1975  1.5585 -0.8977
   47MOL   H57329185   4.751   0.169   4.617  0.9229  0.3389  1.9442
   47MOL   H57429186   4.589   7.763   4.623 -1.7282 -1.5432  1.4351
   47MOL   H57529187   4.491   0.061   4.745  1.1709  0.0755  1.8322
   47MOL   H57629188   4.705   0.025   4.903  1.1503 -0.0961 -0.5880
   47MOL   H57729189   4.614   7.660   4.855 -1.3559  2.1269  2.5856
   47MOL   H57829190   4.805   7.603   4.708  2.8511  0.4983 -1.6639
   47MOL   H57929191   4.872   7.759   4.712 -0.0173 -0.9109 -0.6572
   47MOL   H58029192   4.907   7.716   4.956  0.9701  0.7945 -0.9819
   47MOL   H58129193   4.877   7.540   4.930 -0.0984 -1.0628 -1.0319
   47MOL   H58229194   5.083   7.730   4.804  2.4380  0.7798  1.0761
   47MOL   H58329195   5.075   7.548   4.773 -0.6276  0.8017 -0.2540
   47MOL   H58429196   5.140   7.701   5.027 -1.7476 -0.2907  0.5665
   47MOL   H58529197   5.147   7.525   5.012  0.2712  0.3663  0.4950
   47MOL   H58629198   5.374   7.629   5.004  0.1734 -3.9422  0.3639
   47MOL   H58729199   5.319   7.715   4.850  3.0920 -1.7290 -1.9146
   47MOL   H58829200   5.332   7.543   4.855  1.2845 -0.2888  0.6464
   47MOL   H58929201   4.642   0.432   4.367  1.2217  0.2389 -1.5372
   47MOL   H59029202   4.757   0.397   4.495  2.5824 -0.1924 -1.7088
   47MOL   C59129203   4.817   0.299   4.320  0.9060  0.1710 -0.2980
   47MOL   O59229204   4.917   0.234   4.394 -0.4980 -0.1255 -0.1813
   47MOL   C59329205   4.972   0.118   4.320  0.0609  0.3584  0.1609
   47MOL   C59429206   5.090   0.051   4.396  0.6752 -0.3914 -0.5934
   47MOL   C59529207   5.105   7.675   4.359  0.2564 -0.0739 -0.2533
   47MOL   C59629208   5.178   7.590   4.463  0.3080  0.2614 -0.3338
   47MOL   C59729209   5.326   7.612   4.439  0.0500  0.5076 -0.8723
   47MOL   C59829210   5.414   7.545   4.544  0.1231  0.0304 -0.0845
   47MOL   C59929211   5.562   7.579   4.537  0.3861 -0.3450 -0.1240
   47MOL   C60029212   5.638   7.498   4.637  0.5578 -0.4634  0.3447
   47MOL   C60129213   4.884   0.425   4.264 -0.1404 -0.3098 -0.1017
   47MOL   H60229214   4.759   0.244   4.246  0.5739 -0.2651  0.2733
   47MOL   H60329215   4.986   0.129   4.212 -1.0262 -2.1244 -0.2621
   47MOL   H60429216   4.887   0.050   4.321 -0.7023  1.3248  0.6329
   47MOL   H60529217   5.060   0.042   4.501  0.0063  1.2499 -0.6268
   47MOL   H60629218   5.188   0.095   4.373  1.4038  0.8811  4.2724
   47MOL   H60729219   5.006   7.632   4.344  1.6693 -3.9163  0.8328
   47MOL   H60829220   5.142   7.678   4.257  0.2583  0.7176 -0.2323
   47MOL   H60929221   5.141   7.623   4.560  0.1088 -0.3007 -0.2173
   47MOL   H61029222   5.148   7.485   4.459 -1.5180  0.7584  0.0502
   47MOL   H61129223   5.352   7.579   4.338 -0.4269 -1.6064 -0.3389
   47MOL   H61229224   5.346   7.719   4.437 -0.6197  0.6880  1.1393
   47MOL   H61329225   5.401   7.437   4.535  0.9218 -0.2130  1.4009
   47MOL   H61429226   5.380   7.569   4.645  2.6423  0.6594  0.6597
   47MOL   H61529227   5.594   7.570   4.433  0.0096  1.8877 -0.4593
   47MOL   H61629228   5.577   7.684   4.563 -1.8032  0.2085 -0.9469
   47MOL   H61729229   5.602   7.511   4.738 -1.6353  4.0287 -0.9136
   47MOL   H61829230   5.738   7.542   4.633  0.7558 -1.0104 -1.5198
   47MOL   H61929231   5.647   7.393   4.609 -3.4191 -0.6453 -0.5761
   47MOL   H62029232   4.955   0.393   4.188  0.6119  1.7848 -0.3301
   47MOL   H62129233   4.819   0.491   4.208 -2.0838 -0.4005  1.9573
   47MOL   H62229234   4.925   0.482   4.348  2.3928 -2.4627  0.1935
   48MOL     C129235   2.577   6.719   2.381 -0.5856 -0.2199  0.3404
   48MOL     O229236   2.534   6.589   2.350  0.2397  0.4220 -0.5566
   48MOL     C329237   2.590   6.489   2.438  0.3690 -0.0140  0.0823
   48MOL     C429238   2.572   6.350   2.384  0.4067  0.3510  0.7697
   48MOL     C529239   2.417   6.319   2.372  0.3946  0.3874 -0.3961
   48MOL     C629240   2.379   6.188   2.297  0.1525  0.7205 -0.3807
   48MOL     C729241   2.229   6.180   2.280  0.3554  0.4059  0.3034
   48MOL     C829242   2.194   6.068   2.175 -0.1100 -0.5571 -0.6445
   48MOL     C929243   2.203   6.136   2.032  0.2619 -0.2424 -0.0283
   48MOL    C1029244   2.157   6.040   1.918 -0.1000  0.7627 -0.7074
   48MOL    C1129245   2.490   6.820   2.302 -0.2825  0.4786 -0.0986
   48MOL    H1229246   2.560   6.720   2.489  3.5671 -0.8599  1.0942
   48MOL    H1329247   2.540   6.504   2.534 -1.2306  0.6988 -0.8531
   48MOL    H1429248   2.693   6.520   2.456 -0.6104  1.4057  3.7368
   48MOL    H1529249   2.627   6.282   2.449 -0.6336 -0.4552  0.8175
   48MOL    H1629250   2.614   6.338   2.285  0.8458  2.1351  0.7263
   48MOL    H1729251   2.376   6.327   2.473 -0.1388  1.1135 -0.6674
   48MOL    H1829252   2.364   6.401   2.324  0.0679 -1.2440 -2.9072
   48MOL    H1929253   2.421   6.187   2.196 -0.3979  0.6297 -0.6142
   48MOL    H2029254   2.413   6.100   2.350  0.9849 -0.3127 -2.5742
   48MOL    H2129255   2.172   6.150   2.368 -0.3219 -2.7388 -1.1628
   48MOL    H2229256   2.193   6.279   2.251 -1.6038 -0.3804  0.0012
   48MOL    H2329257   2.094   6.032   2.195 -0.5859  0.6371 -0.8055
   48MOL    H2429258   2.266   5.986   2.176  2.0780  1.2705 -1.6026
   48MOL    H2529259   2.139   6.223   2.037 -1.2960 -1.4945  2.7965
   48MOL    H2629260   2.305   6.159   1.999  0.1866  3.2499  1.9644
   48MOL    H2729261   2.178   5.935   1.939  0.4109  1.0307  0.1492
   48MOL    H2829262   2.224   6.052   1.833 -3.5636 -0.3982 -3.6935
   48MOL    H2929263   2.054   6.056   1.885 -1.1593 -0.7324  1.7366
   48MOL    H3029264   2.516   6.832   2.196  1.6263 -1.9985  0.0660
   48MOL    H3129265   2.387   6.784   2.302 -1.1641  2.9051  0.7956
   48MOL    H3229266   2.684   6.732   2.371 -0.8475  1.0001 -0.9967
   48MOL    C3329267   2.496   6.960   2.356  0.3294  0.1909  0.5832
   48MOL    O3429268   2.427   6.951   2.485 -0.1316 -0.1200 -0.9642
   48MOL    C3529269   2.460   7.045   2.582 -0.6291  0.1617  1.3395
   48MOL    C3629270   2.399   7.011   2.720 -0.0652 -0.2429 -0.3572
   48MOL    C3729271   2.443   7.116   2.824  0.4662  0.2633  0.5442
   48MOL    C3829272   2.348   7.234   2.833  0.1683 -0.2986  0.0352
   48MOL    C3929273   2.385   7.310   2.957 -0.0671  0.1154 -0.4160
   48MOL    C4029274   2.321   7.446   2.960  0.7781  0.5085  0.1395
   48MOL    C4129275   2.373   7.517   3.084  0.0394  0.5805 -0.4407
   48MOL    C4229276   2.360   7.670   3.073  0.0166  0.2492 -0.1971
   48MOL    C4329277   2.421   7.064   2.270 -0.5459  0.0277 -0.3899
   48MOL    H4429278   2.600   6.989   2.375  0.0096  0.5873  1.7412
   48MOL    H4529279   2.424   7.141   2.544  0.6946 -0.5970 -1.9537
   48MOL    H4629280   2.569   7.041   2.589 -0.4641  1.7239  0.0404
   48MOL    H4729281   2.435   6.912   2.747 -1.0199 -0.4249  0.2706
   48MOL    H4829282   2.290   7.007   2.715 -0.0222  0.1138 -2.1848
   48MOL    H4929283   2.442   7.065   2.921 -1.8240  1.3295  1.1033
   48MOL    H5029284   2.549   7.141   2.816  0.5012  0.6009  1.9270
   48MOL    H5129285   2.363   7.304   2.751  0.4362  0.0889  0.4133
   48MOL    H5229286   2.241   7.212   2.827  0.2430 -0.4601 -0.7314
   48MOL    H5329287   2.371   7.242   3.041  2.0010  2.7015  2.1280
   48MOL    H5429288   2.493   7.328   2.961  0.2673 -1.7731 -0.5743
   48MOL    H5529289   2.213   7.446   2.956  0.7618  2.9305 -0.5569
   48MOL    H5629290   2.349   7.508   2.875 -0.0593  0.8031  0.0779
   48MOL    H5729291   2.303   7.480   3.159  0.1324  0.0303 -0.6274
   48MOL    H5829292   2.475   7.479   3.098 -0.2446 -0.8210 -1.9918
   48MOL    H5929293   2.256   7.697   3.089 -0.1222 -0.7396  0.6620
   48MOL    H6029294   2.387   7.718   2.980 -0.9633  2.0195  0.4147
   48MOL    H6129295   2.414   7.719   3.154 -0.9355  0.3032  0.4187
   48MOL    H6229296   2.428   7.160   2.321 -0.7175  0.0182 -0.3483
   48MOL    H6329297   2.477   7.072   2.177 -1.3265  3.4641 -0.6411
   48MOL    C6429298   2.272   7.020   2.233 -0.5840  0.3144  0.5674
   48MOL    O6529299   2.274   6.924   2.125 -0.0315  0.0608 -0.9955
   48MOL    C6629300   2.177   6.828   2.118  0.4344 -0.1383  0.1314
   48MOL    C6729301   2.210   6.719   2.012 -0.0092  0.0799 -0.0969
   48MOL    C6829302   2.352   6.649   2.014  0.4939 -0.5139  0.1153
   48MOL    C6929303   2.369   6.522   1.923 -0.3168  0.1681 -0.3912
   48MOL    C7029304   2.506   6.454   1.938  0.1741 -0.9549  0.1309
   48MOL    C7129305   2.524   6.326   1.856  0.3609 -0.7758 -1.1340
   48MOL    C7229306   2.637   6.235   1.908  0.2870 -1.0335 -0.4021
   48MOL    C7329307   2.646   6.100   1.834 -0.8658  0.9105 -0.3255
   48MOL    C7429308   2.186   7.136   2.190  0.3527  0.4034 -0.0131
   48MOL    H7529309   2.233   6.968   2.321  1.9358 -1.5680  0.6349
   48MOL    H7629310   2.077   6.870   2.105  0.3311 -0.8454 -1.3817
   48MOL    H7729311   2.170   6.768   2.208 -1.1499 -3.5783 -2.2118
   48MOL    H7829312   2.193   6.759   1.913  0.2032  2.1914  0.6952
   48MOL    H7929313   2.133   6.647   2.039 -1.8787  1.7187 -1.0008
   48MOL    H8029314   2.432   6.723   2.009  1.0343 -1.2372 -2.3834
   48MOL    H8129315   2.371   6.603   2.112  0.9796 -0.3463  0.1042
   48MOL    H8229316   2.293   6.450   1.954 -0.7917  0.5787 -0.6011
   48MOL    H8329317   2.350   6.554   1.820  1.5814 -0.1831 -0.8615
   48MOL    H8429318   2.585   6.523   1.909  0.8658 -2.3870 -1.4844
   48MOL    H8529319   2.516   6.440   2.046  0.6067  0.3315  0.2610
   48MOL    H8629320   2.559   6.353   1.756  0.0860 -0.4227 -1.1367
   48MOL    H8729321   2.435   6.265   1.842  0.6826 -1.2178 -1.2718
   48MOL    H8829322   2.730   6.290   1.918 -1.1815  1.0921  2.1661
   48MOL    H8929323   2.602   6.205   2.007  0.7105 -0.5068 -0.0921
   48MOL    H9029324   2.677   6.120   1.731 -3.1975 -1.3089 -1.4965
   48MOL    H9129325   2.547   6.056   1.840 -0.9071  0.8750 -1.1906
   48MOL    H9229326   2.722   6.042   1.887 -1.0505  1.3241  0.3958
   48MOL    H9329327   2.240   7.207   2.127  2.0018 -0.8704 -0.0766
   48MOL    H9429328   2.108   7.119   2.116  1.3891  0.8689 -1.2345
   48MOL    C9529329   2.134   7.216   2.310 -1.0012  0.0965  0.3326
   48MOL    O9629330   2.035   7.140   2.358 -0.6641 -0.2738 -0.0912
   48MOL    C9729331   2.036   7.148   2.498 -0.0378 -0.2639 -0.4227
   48MOL    C9829332   1.931   7.050   2.544 -0.0051  0.1864  0.5456
   48MOL    C9929333   1.963   7.003   2.690  0.0629  0.3114  0.1510
   48MOL   C10029334   1.934   7.109   2.790  0.3618  0.2140 -0.5415
   48MOL   C10129335   1.976   7.085   2.938 -0.2212 -0.1793 -0.8696
   48MOL   C10229336   1.961   7.205   3.026  0.4911  0.0071  0.3174
   48MOL   C10329337   2.040   7.209   3.158  0.1488  0.3261 -0.4831
   48MOL   C10429338   2.034   7.351   3.210  0.0260  0.5833  0.0616
   48MOL   C10529339   2.077   7.346   2.263  0.1664 -0.1363 -0.1787
   48MOL   H10629340   2.223   7.223   2.372 -0.9704  0.5700  0.2369
   48MOL   H10729341   2.025   7.252   2.527  1.4790 -0.5146  1.1678
   48MOL   H10829342   2.132   7.121   2.544 -0.3694 -0.1766  0.3236
   48MOL   H10929343   1.933   6.965   2.475 -2.5186 -0.6447  1.4555
   48MOL   H11029344   1.830   7.090   2.545  0.6795  1.9697  0.3959
   48MOL   H11129345   1.916   6.912   2.726 -0.9644  0.8272  0.1395
   48MOL   H11229346   2.065   6.970   2.673 -0.7101 -2.8796  1.4189
   48MOL   H11329347   1.990   7.198   2.760  1.2319 -0.9009 -2.2667
   48MOL   H11429348   1.830   7.137   2.774  0.3224  1.1658  1.1712
   48MOL   H11529349   1.912   7.012   2.989 -1.8021  0.3317 -2.0540
   48MOL   H11629350   2.077   7.045   2.930 -1.0487 -2.1511 -1.7171
   48MOL   H11729351   1.856   7.231   3.041  0.5397  1.0728 -1.0875
   48MOL   H11829352   1.988   7.293   2.968 -1.0693 -0.0589 -0.5722
   48MOL   H11929353   2.003   7.137   3.231  3.4233 -1.6547 -0.6659
   48MOL   H12029354   2.146   7.187   3.139  0.4426  0.2713  1.1256
   48MOL   H12129355   1.936   7.368   3.256 -0.3646 -0.3335 -0.4029
   48MOL   H12229356   2.067   7.429   3.142  0.8050  0.4713  0.3061
   48MOL   H12329357   2.104   7.360   3.293 -0.1225  1.2344  0.1227
   48MOL   H12429358   2.033   7.330   2.164  1.6616  3.3239 -1.4919
   48MOL   H12529359   1.990   7.365   2.325  0.3200 -1.2823  0.3837
   48MOL   C12629360   2.174   7.462   2.236 -0.9014  0.9363 -0.2014
   48MOL   O12729361   2.233   7.492   2.366  0.1321  0.1101 -0.2998
   48MOL   C12829362   2.374   7.483   2.362  0.4379  0.1461  0.2677
   48MOL   C12929363   2.406   7.503   2.515 -0.7544 -0.0501 -0.3499
   48MOL   C13029364   2.548   7.533   2.541  0.2125 -0.5300  0.4691
   48MOL   C13129365   2.594   7.542   2.690  0.1904  0.4968 -0.0886
   48MOL   C13229366   2.751   7.561   2.698 -0.0619  0.2563 -0.4585
   48MOL   C13329367   2.803   7.577   2.841  0.4042  0.5008 -0.7692
   48MOL   C13429368   2.808   7.443   2.911  0.4438  0.0440 -0.4363
   48MOL   C13529369   2.839   7.458   3.061  0.1902 -0.0772  0.2937
   48MOL   C13629370   2.112   7.598   2.192  0.7561 -0.4699  0.2624
   48MOL   H13729371   2.253   7.430   2.169 -0.4047 -2.3582  1.8494
   48MOL   H13829372   2.423   7.564   2.308  0.2417  0.1032  0.0272
   48MOL   H13929373   2.403   7.387   2.321 -4.4066 -1.5915  0.6377
   48MOL   H14029374   2.370   7.421   2.578 -0.9923  2.0834  2.4111
   48MOL   H14129375   2.348   7.584   2.559 -0.7500 -0.7615  0.9836
   48MOL   H14229376   2.610   7.469   2.478  0.0015 -0.3274  0.0535
   48MOL   H14329377   2.569   7.631   2.498  1.3822 -1.1997 -0.5354
   48MOL   H14429378   2.544   7.627   2.735 -0.2354  0.1368  0.1195
   48MOL   H14529379   2.570   7.448   2.739 -1.9865  1.0436 -0.0600
   48MOL   H14629380   2.799   7.466   2.673 -0.0919 -0.3906  1.8120
   48MOL   H14729381   2.784   7.632   2.622  0.6191 -0.1061 -0.5046
   48MOL   H14829382   2.745   7.655   2.890  0.7448  1.5677 -2.0570
   48MOL   H14929383   2.904   7.616   2.843 -0.2274  2.1124 -0.0136
   48MOL   H15029384   2.708   7.398   2.912  0.0708  0.8551 -0.7118
   48MOL   H15129385   2.876   7.369   2.869 -1.1442 -1.1081 -1.0323
   48MOL   H15229386   2.789   7.534   3.121  0.1531 -0.2706  0.5098
   48MOL   H15329387   2.947   7.471   3.063  0.3028 -0.4791 -1.7432
   48MOL   H15429388   2.815   7.365   3.113 -0.8735  0.7906  1.3843
   48MOL   H15529389   2.018   7.607   2.245  1.5048  0.2318  1.4878
   48MOL   H15629390   2.179   7.676   2.227  0.0537  0.1660  0.1780
   48MOL   C15729391   2.097   7.602   2.047 -0.3005 -0.5509 -0.2969
   48MOL   O15829392   2.230   7.600   1.985 -0.2543 -0.6847 -0.2957
   48MOL   C15929393   2.231   7.529   1.866  0.3624  0.1502  0.1261
   48MOL   C16029394   2.380   7.518   1.832 -0.0933 -0.6567 -0.3094
   48MOL   C16129395   2.463   7.447   1.933  0.0976 -0.1052 -0.5165
   48MOL   C16229396   2.615   7.428   1.911 -0.0605  0.4740 -0.1749
   48MOL   C16329397   2.680   7.350   2.027  0.5120  1.1810  0.3824
   48MOL   C16429398   2.707   7.430   2.150  0.4799 -0.1982  0.4146
   48MOL   C16529399   2.808   7.368   2.250  0.0436 -0.4847 -0.1539
   48MOL   C16629400   2.738   7.251   2.323 -0.4337 -0.0769  0.5217
   48MOL   C16729401   2.006   7.708   1.982  0.0463 -0.1399  0.0725
   48MOL   H16829402   2.044   7.509   2.026  0.6692 -1.2026  0.1092
   48MOL   H16929403   2.179   7.579   1.786  0.9488 -3.7001 -2.8236
   48MOL   H17029404   2.193   7.427   1.863  0.3339  0.1429  0.6570
   48MOL   H17129405   2.415   7.620   1.814  2.2352 -1.3415  0.1989
   48MOL   H17229406   2.404   7.477   1.734  3.4309 -0.3526  0.3876
   48MOL   H17329407   2.444   7.495   2.029  0.3022 -0.3100 -0.3725
   48MOL   H17429408   2.421   7.347   1.950  0.5691 -0.4162 -1.1674
   48MOL   H17529409   2.622   7.381   1.813  2.2496  1.3831 -0.4753
   48MOL   H17629410   2.669   7.522   1.905 -0.0532  0.6326  1.9566
   48MOL   H17729411   2.617   7.262   2.043 -0.4508  1.9085  0.5860
   48MOL   H17829412   2.772   7.302   1.991 -0.8875  1.6809 -4.1723
   48MOL   H17929413   2.615   7.463   2.198  0.1500  0.4730 -0.6650
   48MOL   H18029414   2.755   7.522   2.117  0.4772 -0.3689 -0.0805
   48MOL   H18129415   2.899   7.340   2.197  0.2818 -2.1441  1.0841
   48MOL   H18229416   2.826   7.444   2.326 -0.3415 -0.3610 -0.1874
   48MOL   H18329417   2.730   7.163   2.259 -0.6011  1.2458 -1.3208
   48MOL   H18429418   2.640   7.284   2.356 -0.3621  2.3245 -1.4940
   48MOL   H18529419   2.806   7.221   2.403 -1.0099 -0.2071  0.9672
   48MOL   H18629420   1.974   7.662   1.888  1.2758 -3.2023  1.1073
   48MOL   H18729421   1.915   7.725   2.040 -0.8083 -0.7453 -1.0582
   48MOL   C18829422   2.070   0.069   1.948 -0.5520  0.5446 -0.8801
   48MOL   O18929423   2.066   0.151   2.063 -0.3169 -0.1040  0.2917
   48MOL   C19029424   2.195   0.203   2.102  0.1428 -0.2376  0.7358
   48MOL   C19129425   2.151   0.308   2.209 -0.0502 -0.2049  0.8646
   48MOL   C19229426   2.269   0.384   2.271 -0.0409 -0.1446  0.3970
   48MOL   C19329427   2.225   0.459   2.400 -0.3943  0.0100  0.3524
   48MOL   C19429428   2.340   0.547   2.461  0.2461  0.3278 -0.0513
   48MOL   C19529429   2.291   0.609   2.587  0.0043  0.3922 -0.4401
   48MOL   C19629430   2.394   0.712   2.643 -0.5120  0.1362  0.3848
   48MOL   C19729431   2.411   0.835   2.562 -0.0917 -0.7574  0.0398
   48MOL   C19829432   1.986   0.146   1.844 -0.5351  0.7712  0.1623
   48MOL   H19929433   2.170   0.048   1.911  0.3382  3.8182 -0.4887
   48MOL   H20029434   2.254   0.124   2.149  0.5114  0.3115  1.2128
   48MOL   H20129435   2.237   0.248   2.012  2.0884 -0.7628  1.3557
   48MOL   H20229436   2.090   0.257   2.283  0.3499 -0.7987  0.7830
   48MOL   H20329437   2.082   0.373   2.155  0.2594 -0.9796 -0.4776
   48MOL   H20429438   2.350   0.318   2.299  0.1586  0.6097  1.6566
   48MOL   H20529439   2.313   0.459   2.205 -0.7469 -0.6166 -0.6211
   48MOL   H20629440   2.143   0.523   2.368  1.0215  2.0051  0.5839
   48MOL   H20729441   2.205   0.384   2.476  1.1825 -2.6058 -1.7489
   48MOL   H20829442   2.431   0.492   2.484 -1.3501 -1.2436  2.8562
   48MOL   H20929443   2.364   0.622   2.386 -0.1951  3.4430  2.8546
   48MOL   H21029444   2.257   0.526   2.649 -0.8656  1.1229  0.0775
   48MOL   H21129445   2.196   0.661   2.570  0.2661  1.3567  0.9857
   48MOL   H21229446   2.340   0.732   2.736 -1.7015  0.2153 -0.3099
   48MOL   H21329447   2.488   0.663   2.668  0.2660 -0.5890 -3.7455
   48MOL   H21429448   2.488   0.900   2.604  0.7380 -0.0595 -2.4961
   48MOL   H21529449   2.324   0.900   2.561  0.3650 -0.1229  0.8910
   48MOL   H21629450   2.433   0.821   2.456 -1.0722 -0.2982 -0.2285
   48MOL   H21729451   1.880   0.126   1.860  0.0285 -2.0414  0.5686
   48MOL   H21829452   2.013   0.252   1.852  1.5971  0.3833 -1.5000
   48MOL   C21929453   2.001   0.102   1.700  0.3880 -0.0576 -0.2265
   48MOL   O22029454   2.110   0.170   1.637  0.2472 -0.2919  0.4302
   48MOL   C22129455   2.230   0.100   1.632  0.1251  0.1361 -0.9060
   48MOL   C22229456   2.318   0.128   1.511  0.2199 -0.4058  0.1884
   48MOL   C22329457   2.473   0.104   1.525  0.4451  0.6997 -0.2125
   48MOL   C22429458   2.548   0.102   1.390 -0.2252  0.5727 -0.1053
   48MOL   C22529459   2.702   0.086   1.390  0.9623 -0.2435  0.5315
   48MOL   C22629460   2.765   0.054   1.252 -0.1251  0.6729 -0.1393
   48MOL   C22729461   2.916   0.013   1.269  0.2115  0.3295  0.0447
   48MOL   C22829462   2.961   7.717   1.138  0.9529 -0.2550 -0.1410
   48MOL   C22929463   1.881   0.129   1.611 -0.2324 -0.6994  0.0963
   48MOL   H23029464   2.018   7.769   1.692  0.4110  0.0908 -2.2476
   48MOL   H23129465   2.208   7.769   1.650 -2.0894  1.0120  1.7446
   48MOL   H23229466   2.284   0.126   1.723 -0.3768  1.9041 -1.0966
   48MOL   H23329467   2.302   0.235   1.506 -3.8486 -1.0073 -1.0141
   48MOL   H23429468   2.277   0.071   1.427 -0.7838  0.9218 -0.2404
   48MOL   H23529469   2.519   0.190   1.573  1.1359  0.8029 -1.0346
   48MOL   H23629470   2.503   0.010   1.571 -1.2057 -0.7069 -1.8798
   48MOL   H23729471   2.513   0.015   1.335 -0.8825 -0.9561  2.6622
   48MOL   H23829472   2.519   0.196   1.343 -1.8031  0.6473  0.9764
   48MOL   H23929473   2.742   0.178   1.432 -3.8373  1.9256  0.6488
   48MOL   H24029474   2.732   0.011   1.464 -0.0532 -0.3262  0.8674
   48MOL   H24129475   2.766   0.139   1.184 -0.7344 -0.4823 -1.6393
   48MOL   H24229476   2.704   7.749   1.208  0.4644  1.7828 -3.0790
   48MOL   H24329477   2.968   0.107   1.285 -0.8350  0.7025  1.3927
   48MOL   H24429478   2.918   7.711   1.347 -1.9526  1.0315  0.8359
   48MOL   H24529479   3.060   7.676   1.160  1.3692  1.9628  2.4095
   48MOL   H24629480   2.967   0.012   1.054  1.8088 -0.9868 -0.6947
   48MOL   H24729481   2.896   7.631   1.122  1.4040 -0.8784  1.2297
   48MOL   H24829482   1.838   0.228   1.616 -2.8300 -1.9015  2.9799
   48MOL   H24929483   1.901   0.112   1.505 -1.1531  0.3687 -0.2560
   48MOL   C25029484   1.748   0.050   1.643  0.2461  0.3660 -0.3955
   48MOL   O25129485   1.784   7.690   1.634  0.8037 -0.4404  0.4193
   48MOL   C25229486   1.710   7.601   1.724  0.1558  0.3787  0.1306
   48MOL   C25329487   1.775   7.460   1.730  0.1297 -0.4426  0.1618
   48MOL   C25429488   1.681   7.370   1.820 -0.2004  0.4509  0.5794
   48MOL   C25529489   1.749   7.231   1.847 -0.4409 -0.3691  0.7370
   48MOL   C25629490   1.664   7.155   1.945 -0.0003  0.0523  0.0491
   48MOL   C25729491   1.731   7.035   2.005 -0.1095  0.4903  0.0308
   48MOL   C25829492   1.665   6.970   2.126 -0.1919 -0.2809  0.5423
   48MOL   C25929493   1.740   6.855   2.195 -0.1032  0.1256  0.5343
   48MOL   C26029494   1.634   0.061   1.534  0.7193  0.1172 -0.7223
   48MOL   H26129495   1.709   0.082   1.739 -2.2996 -0.0645 -1.2290
   48MOL   H26229496   1.613   7.595   1.675  0.1477  0.5408  0.1254
   48MOL   H26329497   1.694   7.648   1.821  0.3107 -1.9936  1.3579
   48MOL   H26429498   1.878   7.458   1.765 -0.0105  1.6888  0.7534
   48MOL   H26529499   1.773   7.425   1.626  1.1362  0.2797 -0.1059
   48MOL   H26629500   1.655   7.419   1.914  0.1198  1.9726 -0.1060
   48MOL   H26729501   1.583   7.356   1.775 -0.5570  3.8525  0.1859
   48MOL   H26829502   1.763   7.168   1.760 -2.6139 -0.4047  0.3923
   48MOL   H26929503   1.843   7.252   1.900 -0.3616  1.9537 -0.2527
   48MOL   H27029504   1.625   7.220   2.024 -0.9833 -0.2222 -0.2013
   48MOL   H27129505   1.574   7.116   1.897  0.3756  0.6942 -1.2158
   48MOL   H27229506   1.825   7.071   2.048 -0.4614 -0.3662  1.5720
   48MOL   H27329507   1.752   6.961   1.928 -2.8937  0.0654 -0.3425
   48MOL   H27429508   1.666   7.049   2.201 -3.4795  0.0137  0.3450
   48MOL   H27529509   1.564   6.931   2.113 -0.5422  1.1601 -1.2189
   48MOL   H27629510   1.831   6.882   2.249  1.4306  0.4279 -2.1227
   48MOL   H27729511   1.781   6.790   2.118 -1.3668  0.0153 -0.0592
   48MOL   H27829512   1.680   6.799   2.266 -4.3063  2.4912 -0.9614
   48MOL   H27929513   1.661   0.125   1.450  0.2455  2.5584  0.9402
   48MOL   H28029514   1.630   7.739   1.483  0.6002 -0.1560 -0.2010
   48MOL   C28129515   1.491   0.108   1.587 -0.2560 -0.2110 -0.5990
   48MOL   O28229516   1.451   0.016   1.690  0.3121 -0.5960 -0.5679
   48MOL   C28329517   1.387   0.080   1.804  0.5463 -0.1391 -0.0434
   48MOL   C28429518   1.414   7.760   1.924  0.2147 -0.9577  0.1354
   48MOL   C28529519   1.356   7.619   1.909 -0.0101  0.2892 -0.5308
   48MOL   C28629520   1.379   7.544   2.039  0.4092  0.8275  0.3982
   48MOL   C28729521   1.300   7.411   2.020 -0.4761 -0.1736  0.7349
   48MOL   C28829522   1.312   7.332   2.151 -0.0681 -0.3923  0.1853
   48MOL   C28929523   1.252   7.200   2.119  0.0914  0.4996 -0.3217
   48MOL   C29029524   1.250   7.095   2.234  0.9867 -0.4638 -0.4737
   48MOL   C29129525   1.389   0.117   1.473 -0.4084  0.5694  0.0804
   48MOL   H29229526   1.506   0.212   1.617  0.0012 -0.9571  1.9946
   48MOL   H29329527   1.278   0.089   1.802  0.5111 -0.1415  1.4751
   48MOL   H29429528   1.415   0.182   1.828  1.0359  0.4787 -3.0063
   48MOL   H29529529   1.368   0.032   2.011  0.4934  1.8536 -1.1664
   48MOL   H29629530   1.523   7.759   1.929  0.1958 -0.6482  0.5725
   48MOL   H29729531   1.250   7.622   1.886  0.0220 -0.9788 -0.8999
   48MOL   H29829532   1.404   7.573   1.823 -0.1090  1.1266 -1.0361
   48MOL   H29929533   1.486   7.521   2.038  0.1876 -0.2031 -1.2973
   48MOL   H30029534   1.350   7.589   2.134 -0.8852 -0.1545  0.4917
   48MOL   H30129535   1.196   7.433   1.994 -0.2482  0.7233  0.5449
   48MOL   H30229536   1.339   7.360   1.932  0.1823  0.5094  0.6321
   48MOL   H30329537   1.257   7.375   2.235 -1.3301 -0.5405 -0.5431
   48MOL   H30429538   1.416   7.318   2.178  0.2721 -1.4858 -1.5829
   48MOL   H30529539   1.150   7.229   2.095  0.1425 -0.1644 -1.3914
   48MOL   H30629540   1.291   7.159   2.025 -1.1377  0.2329 -0.7246
   48MOL   H30729541   1.176   7.123   2.309 -2.0131 -1.5006 -2.9135
   48MOL   H30829542   1.349   7.083   2.278  0.4132  2.3650  1.7365
   48MOL   H30929543   1.218   7.000   2.190 -4.0260 -0.3449  2.4220
   48MOL   H31029544   1.456   0.123   1.387 -0.4627 -0.4287 -0.0407
   48MOL   H31129545   1.313   0.039   1.473 -3.6458  3.5923  1.9328
   48MOL   C31229546   1.305   0.253   1.486  0.3109  0.1931  0.7257
   48MOL   O31329547   1.202   0.232   1.586 -0.3068  0.4094  0.1211
   48MOL   C31429548   1.137   0.348   1.642 -0.5333 -0.4459  0.0133
   48MOL   C31529549   1.026   0.306   1.733 -1.1117 -0.0845 -0.0892
   48MOL   C31629550   0.967   0.415   1.815 -0.2706  0.2727 -0.1247
   48MOL   C31729551   0.836   0.386   1.890  0.1951  0.1266 -0.2827
   48MOL   C31829552   0.767   0.502   1.951 -0.4695 -0.3858  0.6612
   48MOL   C31929553   0.831   0.567   2.081  0.1763 -0.4495  0.3216
   48MOL   C32029554   0.832   0.470   2.202 -0.2157 -0.8164  0.7035
   48MOL   C32129555   0.693   0.445   2.260  0.1021 -0.3020  0.4910
   48MOL   C32229556   1.243   0.282   1.345  0.4509 -0.3084 -0.9652
   48MOL   H32329557   1.362   0.343   1.512 -0.0332 -0.0480  2.3730
   48MOL   H32429558   1.090   0.410   1.566  1.0427  1.4164  0.5044
   48MOL   H32529559   1.206   0.413   1.697 -0.7439 -1.1832  1.1659
   48MOL   H32629560   1.068   0.231   1.799  1.1697  1.5891  0.4058
   48MOL   H32729561   0.952   0.256   1.670  0.8985 -1.3815 -1.4619
   48MOL   H32829562   1.044   0.454   1.881 -0.0342  1.0297 -0.8435
   48MOL   H32929563   0.941   0.499   1.750  0.6397  0.5369 -0.1406
   48MOL   H33029564   0.759   0.335   1.833 -0.4055  1.5810 -0.8018
   48MOL   H33129565   0.859   0.311   1.965 -2.1669  1.1500  1.5346
   48MOL   H33229566   0.740   0.577   1.877  2.1242 -0.3311 -0.2542
   48MOL   H33329567   0.669   0.459   1.972 -0.8653  1.6671  3.3260
   48MOL   H33429568   0.769   0.656   2.095 -0.2045 -0.9037  1.5572
   48MOL   H33529569   0.928   0.607   2.053 -0.5495  1.2854  0.2030
   48MOL   H33629570   0.879   0.373   2.181 -1.2570 -1.2588  0.4009
   48MOL   H33729571   0.897   0.515   2.277  0.2895 -0.9552  0.3532
   48MOL   H33829572   0.695   0.395   2.356  1.3466  1.8273  1.6010
   48MOL   H33929573   0.625   0.384   2.200 -2.5939 -0.3425  3.5203
   48MOL   H34029574   0.651   0.544   2.276  3.6624  1.0867  1.7750
   48MOL   H34129575   1.190   0.197   1.300 -1.0910  0.5754 -0.8663
   48MOL   H34229576   1.159   0.352   1.348  0.6966  0.0349 -2.0119
   48MOL   C34329577   1.336   0.337   1.240  0.4003 -0.4855  0.1598
   48MOL   O34429578   1.426   0.235   1.192 -0.6648  0.1752 -0.2697
   48MOL   C34529579   1.374   0.127   1.112 -0.3195  0.4523 -0.0069
   48MOL   C34629580   1.500   0.062   1.042 -0.4262 -0.2054  0.4533
   48MOL   C34729581   1.589   0.009   1.159  0.2721 -0.3173  0.4006
   48MOL   C34829582   1.740   7.768   1.133  0.9653 -0.4073 -0.5893
   48MOL   C34929583   1.819   0.124   1.094 -0.2649 -0.3527  0.2010
   48MOL   C35029584   1.970   0.095   1.058  0.2243  0.4827  0.5878
   48MOL   C35129585   2.032   0.201   0.971  0.0890 -0.0710 -0.4189
   48MOL   C35229586   1.994   0.183   0.822  0.1291  0.0776 -0.2060
   48MOL   C35329587   1.414   0.458   1.282 -0.5932 -0.3684  0.1424
   48MOL   H35429588   1.279   0.370   1.154  0.6411  2.8520  1.2291
   48MOL   H35529589   1.306   0.178   1.042 -0.6850  1.5417  1.1180
   48MOL   H35629590   1.329   0.050   1.174  0.9590  0.9344  1.5483
   48MOL   H35729591   1.556   0.127   0.974  2.4603 -3.0596 -0.0023
   48MOL   H35829592   1.489   7.740   0.993 -1.5325 -0.3179  0.9213
   48MOL   H35929593   1.588   0.089   1.234  0.6305 -1.3267  1.5041
   48MOL   H36029594   1.548   7.694   1.208  2.3144 -1.5212 -0.0402
   48MOL   H36129595   1.783   7.727   1.224 -1.2842 -0.8488  0.2979
   48MOL   H36229596   1.763   7.687   1.063  1.1928 -2.5776  1.9126
   48MOL   H36329597   1.765   0.185   1.022  0.8526  2.8462  1.9600
   48MOL   H36429598   1.822   0.183   1.186  0.6623 -0.0241 -0.0292
   48MOL   H36529599   1.982   7.774   1.008  2.3217  1.8601 -1.6558
   48MOL   H36629600   2.029   0.093   1.150  2.2813 -0.2965 -0.7133
   48MOL   H36729601   1.995   0.297   1.008 -0.5289 -0.3356 -0.3569
   48MOL   H36829602   2.141   0.202   0.978  0.0285  0.9758  0.6648
   48MOL   H36929603   1.888   0.157   0.822 -0.1575  1.2150 -1.0968
   48MOL   H37029604   2.053   0.101   0.780 -1.1513 -1.5583  1.1200
   48MOL   H37129605   2.008   0.281   0.777  3.2461 -0.2609 -0.1170
   48MOL   H37229606   1.478   0.439   1.368 -1.9035  1.7224  1.6444
   48MOL   H37329607   1.487   0.477   1.203  0.0745 -1.8941  0.3781
   48MOL   C37429608   1.339   0.590   1.314 -0.0673 -0.4083  0.5892
   48MOL   O37529609   1.284   0.638   1.186 -0.2190  0.0046 -0.4782
   48MOL   C37629610   1.149   0.683   1.188  0.4984  0.0156 -0.2475
   48MOL   C37729611   1.126   0.743   1.050 -0.1789 -0.4290  0.2911
   48MOL   C37829612   1.165   0.652   0.934 -0.6210 -0.1327 -0.2817
   48MOL   C37929613   1.090   0.516   0.934  0.5734  0.1600 -0.4680
   48MOL   C38029614   1.141   0.438   0.810  0.1467  0.3026 -0.2169
   48MOL   C38129615   1.073   0.299   0.784  0.0841 -0.1505  0.3775
   48MOL   C38229616   1.154   0.219   0.672  0.3592 -0.4255 -0.3108
   48MOL   C38329617   1.266   0.146   0.735 -0.3338  0.2580 -1.1428
   48MOL   C38429618   1.426   0.700   1.375 -0.5249  0.2687 -0.4424
   48MOL   H38529619   1.251   0.554   1.368 -0.1166 -1.2315 -0.0195
   48MOL   H38629620   1.131   0.749   1.273  0.6460 -0.6824  0.3305
   48MOL   H38729621   1.068   0.610   1.199 -0.4235  1.0872  0.1962
   48MOL   H38829622   1.177   0.838   1.036 -1.7505  0.2030 -1.3202
   48MOL   H38929623   1.019   0.755   1.037 -0.2808 -2.4352 -1.0692
   48MOL   H39029624   1.150   0.702   0.838  0.8798 -1.4655 -1.2374
   48MOL   H39129625   1.272   0.630   0.938 -0.5284  0.3928  0.1328
   48MOL   H39229626   1.115   0.464   1.026  1.3499  2.5075  0.6899
   48MOL   H39329627   0.984   0.539   0.941  0.6260  1.1543 -2.5986
   48MOL   H39429628   1.138   0.507   0.726  2.4365  1.1646  0.3756
   48MOL   H39529629   1.250   0.434   0.812  0.1281 -0.0353  0.1337
   48MOL   H39629630   0.969   0.321   0.758  0.3556  1.6439  0.7574
   48MOL   H39729631   1.061   0.245   0.879  0.0118  0.7794  0.9047
   48MOL   H39829632   1.081   0.149   0.632 -1.6212  0.9206  0.8685
   48MOL   H39929633   1.190   0.286   0.594 -0.3207 -0.0248 -0.2787
   48MOL   H40029634   1.224   0.064   0.792 -1.4866  0.5562 -1.5602
   48MOL   H40129635   1.340   0.206   0.789 -0.2249  0.7560 -1.8286
   48MOL   H40229636   1.326   0.089   0.663 -0.7012  1.2817 -2.2679
   48MOL   H40329637   1.526   0.713   1.332 -0.2423 -2.5347 -0.7338
   48MOL   H40429638   1.379   0.797   1.358 -2.0470 -0.6322 -1.4706
   48MOL   C40529639   1.441   0.680   1.531 -0.3099  0.0748  0.4092
   48MOL   O40629640   1.326   0.675   1.613 -0.0847 -0.0461 -0.3929
   48MOL   C40729641   1.228   0.776   1.593  0.1781  0.4722  0.6760
   48MOL   C40829642   1.141   0.800   1.715 -0.1333 -0.2057  0.0293
   48MOL   C40929643   1.027   0.894   1.676 -0.2754  0.5408  0.1330
   48MOL   C41029644   0.924   0.908   1.790 -0.0328  0.6307 -0.2059
   48MOL   C41129645   0.806   1.005   1.759  0.1022  0.1468  0.4872
   48MOL   C41229646   0.716   0.950   1.647 -0.1664  0.2549 -1.0088
   48MOL   C41329647   0.608   1.044   1.598 -0.6851  0.8130  1.2749
   48MOL   C41429648   0.482   1.052   1.688 -0.5659  0.4975  0.2113
   48MOL   C41529649   1.552   0.780   1.588 -0.3156 -0.0266  0.8335
   48MOL   H41629650   1.492   0.583   1.530 -1.3699 -0.4774 -0.1872
   48MOL   H41729651   1.158   0.739   1.518  0.3016 -0.7579  1.1627
   48MOL   H41829652   1.274   0.871   1.565 -0.6249  0.5926 -0.2496
   48MOL   H41929653   1.177   0.854   1.803 -0.2569  1.2974 -0.8180
   48MOL   H42029654   1.106   0.704   1.752 -0.6280 -0.1446 -0.2729
   48MOL   H42129655   1.072   0.992   1.659  0.8923 -0.0403 -0.2060
   48MOL   H42229656   0.972   0.857   1.590  1.3830  1.1781 -1.2335
   48MOL   H42329657   0.881   0.814   1.824 -2.4615  1.9857  0.6508
   48MOL   H42429658   0.981   0.941   1.877 -1.6893 -1.0337  1.5529
   48MOL   H42529659   0.748   1.005   1.851  1.8615 -0.7065  1.6043
   48MOL   H42629660   0.842   1.101   1.725  1.6640 -0.6985 -0.2991
   48MOL   H42729661   0.658   0.863   1.679 -1.3188  0.9865 -1.0468
   48MOL   H42829662   0.773   0.920   1.560  0.0807 -1.4031 -0.2907
   48MOL   H42929663   0.641   1.145   1.573  0.5605 -0.3681 -2.2039
   48MOL   H43029664   0.583   1.013   1.497  0.8226 -0.1569  1.1919
   48MOL   H43129665   0.509   1.060   1.793 -1.5337  0.9491  0.4316
   48MOL   H43229666   0.430   0.959   1.668  0.3958 -0.5044  2.2753
   48MOL   H43329667   0.418   1.135   1.657 -1.1718 -0.4445 -1.0782
   48MOL   H43429668   1.640   0.779   1.523 -2.5155 -0.1378 -2.2493
   48MOL   H43529669   1.498   0.873   1.575 -0.1560  0.0268  0.5557
   48MOL   C43629670   1.579   0.755   1.738 -0.8074  0.0888 -0.1410
   48MOL   O43729671   1.600   0.886   1.795  0.1818  0.6205  0.0618
   48MOL   C43829672   1.486   0.956   1.844 -0.2223  0.9465  0.4534
   48MOL   C43929673   1.522   1.102   1.864  0.9712 -0.8970 -0.1660
   48MOL   C44029674   1.537   1.176   1.731 -0.1132 -0.3188  0.0652
   48MOL   C44129675   1.548   1.331   1.763 -1.0214 -0.1039 -0.2036
   48MOL   C44229676   1.559   1.417   1.635 -0.1173 -0.0331 -0.8834
   48MOL   C44329677   1.554   1.570   1.666 -0.0115 -0.0952 -0.5220
   48MOL   C44429678   1.417   1.635   1.714 -0.2782  1.1522 -0.1291
   48MOL   C44529679   1.411   1.792   1.704 -0.4136  0.2839  0.3630
   48MOL   C44629680   1.707   0.681   1.768 -0.4551  0.7409 -0.7823
   48MOL   H44729681   1.497   0.703   1.788  0.8719 -1.9254  0.5891
   48MOL   H44829682   1.397   0.948   1.781  0.5515  0.9588 -0.6373
   48MOL   H44929683   1.447   0.922   1.940  1.0206  2.0467  1.3632
   48MOL   H45029684   1.615   1.117   1.920  0.2287 -0.2871  0.9126
   48MOL   H45129685   1.435   1.138   1.918  1.3927  2.6391 -1.6936
   48MOL   H45229686   1.625   1.141   1.676 -0.5400  0.1586 -0.9259
   48MOL   H45329687   1.447   1.155   1.674 -0.6686 -0.4234  0.9837
   48MOL   H45429688   1.456   1.357   1.816 -0.2087  1.6280  0.4038
   48MOL   H45529689   1.628   1.357   1.833 -1.0153  1.8081 -0.8953
   48MOL   H45629690   1.642   1.379   1.576 -0.2201  0.0212 -1.0631
   48MOL   H45729691   1.469   1.390   1.580  1.1727 -2.9949 -1.6535
   48MOL   H45829692   1.579   1.618   1.572 -0.8788 -2.2276 -1.8634
   48MOL   H45929693   1.636   1.590   1.736  0.2089  1.9536 -1.3338
   48MOL   H46029694   1.327   1.591   1.669 -0.0505 -0.8904  1.3596
   48MOL   H46129695   1.400   1.617   1.820 -0.6514 -0.5957 -0.4742
   48MOL   H46229696   1.304   1.816   1.704 -0.6780 -0.8228 -1.1577
   48MOL   H46329697   1.448   1.837   1.612 -1.1399 -0.5102 -0.3388
   48MOL   H46429698   1.454   1.842   1.790 -1.3404 -1.2404  1.7646
   48MOL   H46529699   1.785   0.731   1.711  0.6578  0.8616  0.8251
   48MOL   H46629700   1.743   0.694   1.869 -1.5158  0.3550 -0.3433
   48MOL   C46729701   1.697   0.526   1.736 -0.4799 -0.3795  0.0535
   48MOL   O46829702   1.704   0.489   1.599 -0.0423  0.4248  0.0233
   48MOL   C46929703   1.831   0.519   1.539 -0.4490 -0.8266  0.7246
   48MOL   C47029704   1.840   0.445   1.400  0.1995  0.0230 -0.0629
   48MOL   C47129705   1.988   0.396   1.371  0.1667  0.4153  0.9656
   48MOL   C47229706   2.078   0.502   1.317 -0.0157 -0.2730 -0.1552
   48MOL   C47329707   2.223   0.449   1.322 -0.1241  0.8754 -0.0243
   48MOL   C47429708   2.335   0.542   1.274 -0.3329  0.3152  0.4616
   48MOL   C47529709   2.471   0.474   1.263 -0.3563  0.5366 -0.0365
   48MOL   C47629710   2.580   0.558   1.187  0.0008  0.0338 -0.7411
   48MOL   C47729711   1.573   0.454   1.795 -0.1934 -0.3520 -0.7128
   48MOL   H47829712   1.780   0.478   1.789  0.7599  0.4347 -1.1113
   48MOL   H47929713   1.913   0.473   1.594  1.0502 -1.0925 -1.6780
   48MOL   H48029714   1.855   0.625   1.534  1.1327 -1.2914 -2.0399
   48MOL   H48129715   1.801   0.495   1.311 -0.6105 -1.2608 -0.4439
   48MOL   H48229716   1.771   0.361   1.400  1.4801 -1.0419  0.4960
   48MOL   H48329717   2.026   0.355   1.465 -0.7591  0.3750  1.3325
   48MOL   H48429718   1.983   0.317   1.296  0.1057  0.1403  1.2539
   48MOL   H48529719   2.059   0.515   1.211 -0.9863  0.7998  0.1421
   48MOL   H48629720   2.067   0.599   1.365 -1.9143  0.8761 -2.8200
   48MOL   H48729721   2.244   0.420   1.425 -0.9592  1.0029  0.1827
   48MOL   H48829722   2.224   0.357   1.264  0.8650 -0.1248  1.5390
   48MOL   H48929723   2.347   0.625   1.344  1.9944 -0.3673  0.9173
   48MOL   H49029724   2.311   0.579   1.174  0.6832 -2.9702 -1.0559
   48MOL   H49129725   2.507   0.451   1.363 -0.7581  1.6536  0.3673
   48MOL   H49229726   2.461   0.386   1.199  0.2700  0.9438 -0.7037
   48MOL   H49329727   2.636   0.624   1.254 -0.1983  0.2749 -0.8120
   48MOL   H49429728   2.527   0.615   1.111  0.4627  0.2117 -0.9336
   48MOL   H49529729   2.641   0.481   1.139  2.2735  0.7987  0.8360
   48MOL   H49629730   1.484   0.489   1.742 -1.0514  1.5434  1.8716
   48MOL   H49729731   1.577   0.350   1.763  0.1521 -1.1650  1.8773
   48MOL   C49829732   1.534   0.471   1.945  0.2202  0.0869 -0.0522
   48MOL   O49929733   1.591   0.359   2.015  0.9088 -0.0662  0.4277
   48MOL   C50029734   1.731   0.354   2.048 -1.0577 -0.1683 -0.0478
   48MOL   C50129735   1.763   0.257   2.159 -0.4286 -0.3220 -0.3239
   48MOL   C50229736   1.708   0.118   2.144 -0.5131  0.3428  0.2618
   48MOL   C50329737   1.757   0.011   2.240 -0.2687  0.0710 -0.2433
   48MOL   C50429738   1.718   7.642   2.196 -0.1031  0.6010 -0.4817
   48MOL   C50529739   1.738   7.555   2.325 -0.1397  0.6750 -0.4733
   48MOL   C50629740   1.680   7.422   2.311 -0.5433  0.0260  0.4028
   48MOL   C50729741   1.697   7.325   2.428 -0.5526 -0.2349 -0.6168
   48MOL   C50829742   1.381   0.462   1.957 -0.0982  0.6414  0.1542
   48MOL   H50929743   1.569   0.563   1.991 -0.5352  0.5849 -0.4645
   48MOL   H51029744   1.777   0.451   2.071  2.2217 -2.3889  3.2977
   48MOL   H51129745   1.784   0.315   1.962 -0.3451  0.6566  0.0115
   48MOL   H51229746   1.722   0.292   2.254 -1.3746 -0.8912 -0.5147
   48MOL   H51329747   1.872   0.252   2.165 -0.4676 -0.1658  0.6285
   48MOL   H51429748   1.600   0.124   2.161 -0.4731 -1.0417  1.0207
   48MOL   H51529749   1.727   0.085   2.042 -1.8956 -1.5500  0.6013
   48MOL   H51629750   1.866   0.018   2.235 -0.2656  1.1785  1.1887
   48MOL   H51729751   1.722   0.044   2.337 -0.5533  3.0899 -1.3001
   48MOL   H51829752   1.612   7.634   2.173 -0.4509  1.6217  0.7036
   48MOL   H51929753   1.764   7.611   2.102  1.9356 -0.3687  0.8019
   48MOL   H52029754   1.682   7.599   2.406 -0.6602  1.5226 -1.2859
   48MOL   H52129755   1.840   7.547   2.364 -0.4417  0.0612  0.1990
   48MOL   H52229756   1.575   7.427   2.282 -0.8959  1.0444  1.7932
   48MOL   H52329757   1.726   7.379   2.222 -0.9903 -1.2554  0.7777
   48MOL   H52429758   1.645   7.230   2.410 -0.3089 -0.4428 -0.2450
   48MOL   H52529759   1.633   7.365   2.507 -1.3136 -2.0106 -0.2833
   48MOL   H52629760   1.799   7.305   2.460 -1.1687  0.0060  1.6285
   48MOL   H52729761   1.337   0.530   1.884 -0.2721 -0.4341 -0.7457
   48MOL   H52829762   1.352   0.363   1.921 -0.3747  1.1167 -0.9534
   48MOL   C52929763   1.329   0.489   2.094  0.1303 -0.9308  0.0568
   48MOL   O53029764   1.189   0.449   2.078 -0.0176 -0.0015  0.3001
   48MOL   C53129765   1.171   0.307   2.110 -0.0882 -0.2872  0.4602
   48MOL   C53229766   1.185   0.278   2.261 -0.2004  0.0171 -0.3065
   48MOL   C53329767   1.147   0.135   2.306 -0.4039 -0.1357  0.4709
   48MOL   C53429768   1.263   0.033   2.328 -0.0011 -0.1631  0.1136
   48MOL   C53529769   1.313   0.001   2.472  0.5573 -0.3993 -0.6698
   48MOL   C53629770   1.437   7.680   2.478 -0.6791  0.2808  0.2901
   48MOL   C53729771   1.475   7.631   2.616 -0.7122  0.0648  0.1662
   48MOL   C53829772   1.379   7.518   2.662 -0.3800 -0.2425  0.0602
   48MOL   C53929773   1.335   0.649   2.129 -0.3080 -0.2897 -0.4911
   48MOL   H54029774   1.382   0.431   2.169  0.5377 -0.9432 -0.2372
   48MOL   H54129775   1.065   0.290   2.091 -0.4398  2.1108  0.0169
   48MOL   H54229776   1.220   0.232   2.049 -0.4107 -1.5348  1.7085
   48MOL   H54329777   1.115   0.337   2.320  0.7140  1.4262 -0.6026
   48MOL   H54429778   1.283   0.300   2.305 -0.3467 -0.7472  0.4007
   48MOL   H54529779   1.090   0.152   2.397  0.4632 -0.0983  1.0141
   48MOL   H54629780   1.072   0.098   2.236 -0.6232  0.1829  0.5372
   48MOL   H54729781   1.230   7.715   2.280 -1.9438  0.2141  0.6873
   48MOL   H54829782   1.350   0.053   2.265 -1.7144  0.5654 -2.0738
   48MOL   H54929783   1.332   0.095   2.523 -0.8396 -0.1784 -0.5249
   48MOL   H55029784   1.232   7.730   2.529  1.8190 -3.6027 -1.3212
   48MOL   H55129785   1.520   7.736   2.435 -0.9895  0.0063 -0.6972
   48MOL   H55229786   1.428   7.598   2.407 -1.7557 -0.9516  1.8342
   48MOL   H55329787   1.575   7.589   2.615 -0.9695 -0.5589  0.3441
   48MOL   H55429788   1.468   7.724   2.672 -1.7711  1.5659 -2.3903
   48MOL   H55529789   1.288   7.565   2.700 -0.4482 -1.3012  1.2433
   48MOL   H55629790   1.412   7.462   2.750 -0.4123  0.0972  0.2867
   48MOL   H55729791   1.349   7.450   2.582  0.3257  1.1968 -1.4326
   48MOL   H55829792   1.429   0.702   2.144 -1.2861  1.2848  0.2823
   48MOL   H55929793   1.286   0.686   2.039  1.1203 -4.0911 -2.9354
   48MOL   C56029794   1.259   0.675   2.257  0.0549 -0.5567 -1.0880
   48MOL   O56129795   1.207   0.814   2.259 -0.2408  0.2631  0.8119
   48MOL   C56229796   1.092   0.840   2.178 -0.4303 -0.0279  0.5507
   48MOL   C56329797   1.087   0.994   2.176 -0.5664 -0.2681  0.5262
   48MOL   C56429798   1.206   1.061   2.093 -0.8351 -0.0422  0.1628
   48MOL   C56529799   1.214   1.217   2.101  0.0592 -0.0208  0.3201
   48MOL   C56629800   1.109   1.290   2.024 -0.5412 -0.2210 -0.3604
   48MOL   C56729801   1.105   1.269   1.870  0.3338  0.0155 -1.0057
   48MOL   C56829802   0.981   1.340   1.808 -0.4795 -0.6936 -0.6860
   48MOL   C56929803   1.000   1.325   1.651 -0.2508  0.1955 -0.3184
   48MOL   C57029804   1.339   0.652   2.390 -0.1443 -0.2723  0.4258
   48MOL   H57129805   1.168   0.617   2.254  0.5015 -1.3342 -0.0116
   48MOL   H57229806   1.002   0.785   2.207 -0.3720 -0.5154 -0.1738
   48MOL   H57329807   1.110   0.809   2.075 -0.6414 -0.3476  0.6056
   48MOL   H57429808   1.077   1.025   2.281 -2.4754 -1.1458  0.6141
   48MOL   H57529809   0.994   1.023   2.128  1.3345  1.9626 -1.9567
   48MOL   H57629810   1.296   1.019   2.138 -0.5510 -0.3862 -0.7215
   48MOL   H57729811   1.201   1.023   1.991  0.2471  0.7004 -0.1777
   48MOL   H57829812   1.196   1.231   2.207  0.7021 -0.8646  0.5480
   48MOL   H57929813   1.313   1.251   2.069  0.0942  1.5315  1.9897
   48MOL   H58029814   1.007   1.269   2.056 -1.8339  2.2879 -2.6068
   48MOL   H58129815   1.125   1.397   2.037  0.3252 -0.3502 -0.3281
   48MOL   H58229816   1.105   1.163   1.843 -1.9714 -0.4690  0.7250
   48MOL   H58329817   1.200   1.307   1.834  0.5239  0.1555 -0.3600
   48MOL   H58429818   0.883   1.306   1.840  0.0013 -0.1037  1.5157
   48MOL   H58529819   0.984   1.444   1.840  0.3095 -0.4074 -1.6677
   48MOL   H58629820   0.996   1.220   1.624 -2.1962  0.2801 -0.4646
   48MOL   H58729821   1.095   1.368   1.620  0.5144 -1.4932 -0.3532
   48MOL   H58829822   0.918   1.374   1.599  0.9995 -0.6898 -3.2269
   48MOL   H58929823   1.379   0.551   2.398  1.0193  0.3177  2.3068
   48MOL   H59029824   1.431   0.709   2.381  0.1468 -0.8453 -0.2572
   48MOL   C59129825   1.266   0.680   2.521 -0.9126  0.0891 -0.3985
   48MOL   O59229826   1.372   0.695   2.620  0.1970 -0.0916  0.0603
   48MOL   C59329827   1.376   0.823   2.685 -0.1367  1.0897 -0.4416
   48MOL   C59429828   1.263   0.831   2.790  0.0287  1.1231 -0.9768
   48MOL   C59529829   1.275   0.735   2.904 -0.8908 -0.1994 -0.4875
   48MOL   C59629830   1.143   0.731   2.984 -0.0680  0.3551  0.8243
   48MOL   C59729831   1.119   0.859   3.055  0.6280  0.4330  0.2464
   48MOL   C59829832   0.982   0.858   3.123  0.0235 -0.1534  0.3223
   48MOL   C59929833   0.979   0.954   3.245 -0.5254 -0.8887 -0.4201
   48MOL   C60029834   0.840   0.972   3.311  0.0787  0.6405  0.4920
   48MOL   C60129835   1.178   0.563   2.567 -0.2832 -0.2260 -0.3135
   48MOL   H60229836   1.203   0.769   2.511 -0.7534  0.4536  1.5329
   48MOL   H60329837   1.382   0.907   2.615  3.1961  0.6330 -0.7917
   48MOL   H60429838   1.466   0.833   2.745 -1.2239  1.4810  1.1511
   48MOL   H60529839   1.173   0.830   2.729 -0.3094 -0.1302 -0.4531
   48MOL   H60629840   1.275   0.931   2.832  0.4489  0.5525  0.2696
   48MOL   H60729841   1.293   0.632   2.873 -0.0781 -0.7036  1.5573
   48MOL   H60829842   1.355   0.764   2.972 -0.9527 -0.4775 -0.2951
   48MOL   H60929843   1.062   0.717   2.914 -1.5152  2.0211  2.1279
   48MOL   H61029844   1.139   0.640   3.045  1.4540 -0.8914 -0.8688
   48MOL   H61129845   1.200   0.880   3.125  1.1955 -0.3510 -0.1581
   48MOL   H61229846   1.121   0.952   2.999 -1.0003  0.7927  0.7546
   48MOL   H61329847   0.959   0.755   3.150  0.7508 -1.2230 -2.8907
   48MOL   H61429848   0.907   0.894   3.052 -0.0755  1.9537  1.4614
   48MOL   H61529849   1.050   0.920   3.321  0.7140 -1.1331 -1.6744
   48MOL   H61629850   1.015   1.053   3.218 -3.3468  0.3518  0.2095
   48MOL   H61729851   0.757   0.937   3.249  0.2621  3.3000 -1.3260
   48MOL   H61829852   0.801   1.071   3.334 -1.0472  0.5353 -0.9049
   48MOL   H61929853   0.843   0.925   3.409 -4.7632 -2.1646 -0.5577
   48MOL   H62029854   1.117   0.517   2.490  2.0454 -1.3160 -1.5234
   48MOL   H62129855   1.245   0.483   2.597 -1.2762 -1.0864 -0.3613
   48MOL   H62229856   1.120   0.580   2.658  0.5710 -1.5057  0.4857
   49MOL     C129857   3.333   6.619   1.181 -0.1773  0.4392 -0.5539
   49MOL     O229858   3.468   6.646   1.163 -0.2146 -0.0918 -0.6317
   49MOL     C329859   3.549   6.563   1.247  0.0637 -0.6914 -0.1573
   49MOL     C429860   3.696   6.590   1.222 -0.0227  0.3387  0.1821
   49MOL     C529861   3.789   6.517   1.329 -0.2383 -0.4605  0.0189
   49MOL     C629862   3.937   6.567   1.318  0.0276  0.2243 -0.2464
   49MOL     C729863   4.043   6.493   1.407 -0.0137 -0.2250 -0.2207
   49MOL     C829864   4.187   6.541   1.380 -0.9875  0.1287 -0.4190
   49MOL     C929865   4.289   6.508   1.486 -0.1665  0.0932 -0.4730
   49MOL    C1029866   4.437   6.530   1.456 -0.2099  0.5104  0.5432
   49MOL    C1129867   3.254   6.703   1.086  0.6307 -0.3657  0.6036
   49MOL    H1229868   3.324   6.515   1.148 -1.7827 -0.0067  1.2248
   49MOL    H1329869   3.533   6.457   1.228 -0.4328 -0.9449  1.5428
   49MOL    H1429870   3.529   6.579   1.353  0.3698 -1.0887 -0.0362
   49MOL    H1529871   3.699   6.698   1.235 -1.6719  0.1449  2.3891
   49MOL    H1629872   3.718   6.560   1.119  1.0817 -1.1123  0.8193
   49MOL    H1729873   3.757   6.531   1.432 -1.0289 -0.8470 -0.1687
   49MOL    H1829874   3.796   6.410   1.308  1.6265 -0.3486  0.0049
   49MOL    H1929875   3.969   6.531   1.220 -0.3627 -1.2380  0.1464
   49MOL    H2029876   3.937   6.676   1.319 -2.4832  0.2534  2.6406
   49MOL    H2129877   4.023   6.496   1.514  3.3761  1.2426  0.4481
   49MOL    H2229878   4.034   6.386   1.389  2.2260 -0.6684  1.0194
   49MOL    H2329879   4.177   6.648   1.369  1.1121  0.4269  0.2599
   49MOL    H2429880   4.208   6.501   1.280 -1.0898  1.4959 -0.9975
   49MOL    H2529881   4.260   6.567   1.573  0.3945 -1.7996  1.0303
   49MOL    H2629882   4.266   6.405   1.511 -0.9321  0.6814  1.3727
   49MOL    H2729883   4.484   6.461   1.385  1.6643  1.8532  0.4358
   49MOL    H2829884   4.493   6.518   1.548  1.7437  0.5279 -0.6106
   49MOL    H2929885   4.459   6.632   1.424 -2.7854  1.1347  0.6774
   49MOL    H3029886   3.280   6.807   1.104 -2.3479  0.3591  0.9410
   49MOL    H3129887   3.287   6.670   0.987 -0.0645  0.4644  0.0820
   49MOL    H3229888   3.296   6.630   1.283  3.7739 -0.9840  1.1509
   49MOL    C3329889   3.102   6.699   1.100  0.0193 -0.0779 -0.0618
   49MOL    O3429890   3.042   6.581   1.035 -0.4353  0.2468 -1.2254
   49MOL    C3529891   3.022   6.471   1.117  0.3960  0.5222 -0.0790
   49MOL    C3629892   2.943   6.374   1.038 -0.4510 -0.6419 -0.2792
   49MOL    C3729893   2.895   6.253   1.122  0.0958 -0.4945 -0.7127
   49MOL    C3829894   2.812   6.147   1.036  0.4008  1.0830 -0.0117
   49MOL    C3929895   2.759   6.033   1.123  0.4661 -0.1084  0.1993
   49MOL    C4029896   2.711   5.908   1.036  0.3190  0.2194 -0.1350
   49MOL    C4129897   2.643   5.805   1.124 -0.3979 -0.6289  0.8625
   49MOL    C4229898   2.583   5.694   1.042 -0.1330  1.1429 -0.3112
   49MOL    C4329899   3.036   6.827   1.042 -0.2474 -0.9931  0.3938
   49MOL    H4429900   3.084   6.690   1.207  1.7541 -1.8305  0.1335
   49MOL    H4529901   2.977   6.502   1.212  2.7143  0.0481  1.2151
   49MOL    H4629902   3.117   6.428   1.146  0.3757  1.7240  1.8916
   49MOL    H4729903   2.991   6.339   0.947 -0.8093  0.4992 -0.9127
   49MOL    H4829904   2.854   6.426   1.001 -0.0482  0.7536  0.6878
   49MOL    H4929905   2.983   6.202   1.162  0.2916  1.3469  1.2999
   49MOL    H5029906   2.838   6.289   1.208 -1.5434 -2.5441 -0.9093
   49MOL    H5129907   2.723   6.192   0.992 -0.8947  0.7901  2.2446
   49MOL    H5229908   2.874   6.111   0.954  2.3760  1.9669  1.0587
   49MOL    H5329909   2.827   6.007   1.203 -2.4563 -0.1311  2.7831
   49MOL    H5429910   2.670   6.069   1.175 -0.1928 -1.7463  0.2364
   49MOL    H5529911   2.801   5.868   0.990 -0.2070 -0.9873 -0.1306
   49MOL    H5629912   2.643   5.945   0.959 -2.5352  0.0129  2.2139
   49MOL    H5729913   2.720   5.772   1.193  0.9965  2.8694  1.1045
   49MOL    H5829914   2.561   5.840   1.187 -1.8301 -1.3265 -0.5682
   49MOL    H5929915   2.490   5.729   0.997 -1.2696  0.2256  1.2475
   49MOL    H6029916   2.553   5.614   1.109  0.0861  1.4623  0.1770
   49MOL    H6129917   2.654   5.655   0.970 -0.1081 -2.2537  1.4787
   49MOL    H6229918   3.085   6.917   1.079  1.0992 -1.3555 -0.4984
   49MOL    H6329919   3.052   6.824   0.935 -0.2066 -1.2963  0.4081
   49MOL    C6429920   2.878   6.831   1.061 -0.1980  0.2876 -0.1660
   49MOL    O6529921   2.837   6.950   0.997 -0.3537 -0.7328 -0.3470
   49MOL    C6629922   2.740   6.931   0.888 -0.2769 -0.0780 -0.2370
   49MOL    C6729923   2.693   7.065   0.823 -0.4752  0.1062 -0.1773
   49MOL    C6829924   2.648   7.179   0.924  0.3587  0.2008 -0.4834
   49MOL    C6929925   2.601   7.311   0.869  0.0007  0.1411 -0.1555
   49MOL    C7029926   2.542   7.394   0.984 -0.1838 -0.2598  0.2643
   49MOL    C7129927   2.484   7.528   0.938 -0.4371  0.6354 -0.4916
   49MOL    C7229928   2.330   7.533   0.929  0.1607  0.2212 -0.4733
   49MOL    C7329929   2.281   7.668   0.882  0.0373 -0.2180  0.5575
   49MOL    C7429930   2.824   6.850   1.205 -0.0161  0.3975  0.7590
   49MOL    H7529931   2.839   6.735   1.029 -1.1959  0.1144  1.5231
   49MOL    H7629932   2.656   6.864   0.906  0.0381 -1.1416 -2.5365
   49MOL    H7729933   2.797   6.871   0.817  0.0433 -0.6655  0.5141
   49MOL    H7829934   2.615   7.044   0.750  2.2105  1.0136 -3.4494
   49MOL    H7929935   2.777   7.094   0.760  0.4422 -2.2058 -0.0305
   49MOL    H8029936   2.565   7.145   0.986  0.4356  0.8699 -0.0097
   49MOL    H8129937   2.736   7.203   0.984  0.5763  0.0528 -0.7449
   49MOL    H8229938   2.689   7.365   0.834  2.1557 -2.1848  1.4154
   49MOL    H8329939   2.541   7.296   0.780  0.2910 -2.1426  0.0004
   49MOL    H8429940   2.492   7.335   1.061 -0.4451  0.8351  0.9533
   49MOL    H8529941   2.622   7.425   1.052 -3.1666 -0.6337  4.1585
   49MOL    H8629942   2.520   7.555   0.839 -1.9805  0.6409 -1.0623
   49MOL    H8729943   2.504   7.609   1.009 -1.5628  1.5028 -1.1556
   49MOL    H8829944   2.301   7.448   0.866  0.4345  0.3305 -0.7473
   49MOL    H8929945   2.294   7.508   1.029 -3.7708 -1.5229 -2.2035
   49MOL    H9029946   2.338   7.752   0.921 -0.1421  0.4718 -0.6497
   49MOL    H9129947   2.176   7.689   0.902 -0.2473  0.2965 -1.3737
   49MOL    H9229948   2.289   7.676   0.774  0.2289  0.7930  0.6457
   49MOL    H9329949   2.876   6.781   1.271  2.1539  1.4407  0.1858
   49MOL    H9429950   2.848   6.951   1.237  2.5087  0.6395 -1.6731
   49MOL    C9529951   2.674   6.825   1.233  0.8049  0.2764  0.4724
   49MOL    O9629952   2.641   6.845   1.369  0.0781 -0.0624  0.2613
   49MOL    C9729953   2.620   6.981   1.411 -0.0290  0.5621 -0.3397
   49MOL    C9829954   2.599   6.975   1.563  0.1007  0.5274 -0.7312
   49MOL    C9929955   2.487   6.877   1.596 -0.0926  0.1484  0.0939
   49MOL   C10029956   2.440   6.877   1.745  0.3026  0.0282 -0.2890
   49MOL   C10129957   2.364   7.005   1.787 -0.5777  0.2733 -0.3371
   49MOL   C10229958   2.234   7.025   1.701  0.1731 -0.0772  0.2149
   49MOL   C10329959   2.171   7.167   1.730  0.5581  0.4979 -0.1374
   49MOL   C10429960   2.038   7.197   1.659 -0.3809 -0.0562 -0.0597
   49MOL   C10529961   2.646   6.676   1.205 -0.1703  0.2000  1.1504
   49MOL   H10629962   2.613   6.890   1.170  0.6399  0.0155  0.3603
   49MOL   H10729963   2.538   7.022   1.352 -1.5536 -1.1351  0.5690
   49MOL   H10829964   2.703   7.041   1.373 -0.9154  1.2693 -1.2032
   49MOL   H10929965   2.581   7.075   1.603 -1.0340  0.5669 -1.3180
   49MOL   H11029966   2.692   6.949   1.613  0.3704  0.6797 -1.1532
   49MOL   H11129967   2.401   6.893   1.531 -2.7311 -1.3974  3.0703
   49MOL   H11229968   2.525   6.781   1.560  0.9209  1.4981 -2.5860
   49MOL   H11329969   2.390   6.782   1.766  0.1105  0.6772  2.3915
   49MOL   H11429970   2.521   6.863   1.817 -0.7837 -0.5835  0.8224
   49MOL   H11529971   2.334   7.018   1.891  0.0338  0.7015 -0.2183
   49MOL   H11629972   2.436   7.086   1.777  2.5305 -2.6825 -3.4517
   49MOL   H11729973   2.164   6.942   1.710 -2.5467  2.0133 -1.0568
   49MOL   H11829974   2.263   7.038   1.597  0.3592  2.4331  0.5431
   49MOL   H11929975   2.153   7.193   1.834  3.8717  3.0195 -0.0959
   49MOL   H12029976   2.239   7.250   1.707  1.4866 -0.3290 -0.4086
   49MOL   H12129977   1.993   7.294   1.680  1.9605  0.5388  2.4186
   49MOL   H12229978   1.961   7.121   1.680 -0.7580 -0.0502 -1.3784
   49MOL   H12329979   2.056   7.201   1.551  2.0163  1.4910  0.3665
   49MOL   H12429980   2.665   6.652   1.101 -0.4425  2.5174  0.5472
   49MOL   H12529981   2.722   6.626   1.266  0.7577 -0.6694 -0.6824
   49MOL   C12629982   2.499   6.627   1.242  0.0764 -0.3919  0.3225
   49MOL   O12729983   2.476   6.493   1.241 -0.0633  0.1449  0.0657
   49MOL   C12829984   2.522   6.424   1.352  0.3187  0.7909 -0.6864
   49MOL   C12929985   2.484   6.275   1.342 -0.5045 -0.0610  0.3001
   49MOL   C13029986   2.492   6.189   1.470  1.0704 -0.3706 -0.0214
   49MOL   C13129987   2.432   6.052   1.445  0.1600 -0.0646 -0.1256
   49MOL   C13229988   2.434   5.958   1.566  0.0101 -0.5386  0.3435
   49MOL   C13329989   2.377   5.818   1.549  0.1967 -0.0148 -0.4268
   49MOL   C13429990   2.310   5.767   1.676 -0.3428  0.3033  0.7905
   49MOL   C13529991   2.272   5.618   1.655 -0.0969 -0.0385  0.4709
   49MOL   C13629992   2.398   6.682   1.137  0.5665 -0.5679  0.6659
   49MOL   H13729993   2.477   6.665   1.342 -2.0254 -0.4156 -0.1196
   49MOL   H13829994   2.481   6.469   1.442 -1.8017 -1.2428 -0.5792
   49MOL   H13929995   2.629   6.434   1.371  0.0376  1.8528  0.3905
   49MOL   H14029996   2.545   6.233   1.262  0.6265  0.9255  0.6323
   49MOL   H14129997   2.381   6.266   1.308 -0.3962  1.8970 -0.6411
   49MOL   H14229998   2.589   6.179   1.519  0.3409 -1.7481  1.1711
   49MOL   H14329999   2.435   6.242   1.546  2.6292 -0.6254  1.3600
   49MOL   H14430000   2.326   6.057   1.420 -0.0826  1.7571  1.1010
   49MOL   H14530001   2.472   6.011   1.352 -1.5463  0.7288 -1.2285
   49MOL   H14630002   2.535   5.953   1.606  0.6411 -0.0842 -1.2084
   49MOL   H14730003   2.371   6.010   1.638 -0.1220  1.0825 -0.9228
   49MOL   H14830004   2.452   5.748   1.513 -1.3532 -2.6606  1.2753
   49MOL   H14930005   2.301   5.815   1.471 -0.0300 -0.1338 -0.2023
   49MOL   H15030006   2.385   5.761   1.755 -0.7993  0.1936  1.2176
   49MOL   H15130007   2.229   5.833   1.708 -0.6294  0.5332 -0.3854
   49MOL   H15230008   2.211   5.603   1.566  3.3269 -1.3645 -1.7850
   49MOL   H15330009   2.212   5.567   1.730 -1.3232  0.6202 -0.0469
   49MOL   H15430010   2.348   5.542   1.636  1.5028  1.8032 -0.5850
   49MOL   H15530011   2.314   6.716   1.197 -0.7126 -0.9478 -0.8604
   49MOL   H15630012   2.442   6.768   1.084  0.8451 -1.8756 -1.3042
   49MOL   C15730013   2.347   6.588   1.029  0.4516  0.2549 -0.0520
   49MOL   O15830014   2.450   6.585   0.931 -0.0212 -0.1668 -0.5008
   49MOL   C15930015   2.449   6.473   0.862 -0.4925  0.0830 -0.0927
   49MOL   C16030016   2.553   6.504   0.745 -0.1550  0.5118 -0.2926
   49MOL   C16130017   2.569   6.379   0.643 -0.2042 -0.3134 -0.2245
   49MOL   C16230018   2.678   6.282   0.689 -0.2213  0.2392 -0.1382
   49MOL   C16330019   2.679   6.158   0.600 -0.1876 -0.0006 -0.4919
   49MOL   C16430020   2.793   6.068   0.653  0.7556 -0.2493  0.7615
   49MOL   C16530021   2.934   6.130   0.636  0.1023 -0.0152 -0.1030
   49MOL   C16630022   3.042   6.022   0.646 -0.0159  0.3861  0.5213
   49MOL   C16730023   2.226   6.664   0.964  0.2443 -0.3792  1.0471
   49MOL   H16830024   2.310   6.496   1.074  1.0192  0.1073  0.1120
   49MOL   H16930025   2.349   6.455   0.820 -0.6112 -2.7816  1.2726
   49MOL   H17030026   2.480   6.391   0.927  1.2523 -0.7488 -1.9382
   49MOL   H17130027   2.647   6.533   0.791  0.8140  0.6821 -2.3248
   49MOL   H17230028   2.521   6.592   0.690 -2.2682 -0.4901 -0.7284
   49MOL   H17330029   2.470   6.337   0.629 -0.1201 -1.3511  2.1719
   49MOL   H17430030   2.601   6.429   0.551  1.7118 -1.4740 -0.2267
   49MOL   H17530031   2.775   6.329   0.707  0.0073  0.1797 -1.2253
   49MOL   H17630032   2.660   6.241   0.789 -2.0811 -0.9577 -0.9372
   49MOL   H17730033   2.581   6.110   0.596  0.6282 -1.9101  1.5893
   49MOL   H17830034   2.706   6.187   0.499  2.3842  1.8093  0.6636
   49MOL   H17930035   2.786   5.988   0.579 -1.5802  0.0559  0.6105
   49MOL   H18030036   2.772   6.040   0.756  2.2837 -1.0388  0.8649
   49MOL   H18130037   2.936   6.194   0.548 -0.7942 -0.5386 -0.5033
   49MOL   H18230038   2.958   6.204   0.713  1.0355 -1.2100  0.7753
   49MOL   H18330039   3.051   5.985   0.748  0.2588 -0.3645  0.2299
   49MOL   H18430040   3.139   6.067   0.622 -0.2636 -0.3685 -2.0287
   49MOL   H18530041   3.028   5.927   0.594 -2.0205  0.8644  0.1548
   49MOL   H18630042   2.236   6.768   0.997  2.8368  0.4481 -2.1113
   49MOL   H18730043   2.233   6.663   0.856 -0.8786  2.4264  0.8941
   49MOL   C18830044   2.088   6.609   1.015  0.0929 -0.2049 -0.8925
   49MOL   O18930045   2.082   6.614   1.157  0.2608 -0.1782  0.7137
   49MOL   C19030046   2.040   6.741   1.218  0.6901  0.2477  0.0762
   49MOL   C19130047   2.015   6.733   1.376  0.3716 -0.5080  0.4088
   49MOL   C19230048   2.129   6.675   1.458  0.1612  0.3995  0.4405
   49MOL   C19330049   2.097   6.676   1.608  0.4819  1.0988 -0.2251
   49MOL   C19430050   2.035   6.541   1.658  0.4758  0.2563 -0.1957
   49MOL   C19530051   2.001   6.540   1.808 -0.6594 -0.7147 -0.5203
   49MOL   C19630052   1.912   6.429   1.845  0.0986  0.4007 -0.3298
   49MOL   C19730053   1.890   6.400   1.996  0.1237 -0.2837  0.2221
   49MOL   C19830054   2.076   6.457   0.977  0.6680 -0.3946 -0.0798
   49MOL   H19930055   2.003   6.662   0.973  0.0882  0.5602  0.0511
   49MOL   H20030056   2.117   6.816   1.203  0.0293  0.6716 -1.3130
   49MOL   H20130057   1.957   6.787   1.164  1.2667  0.6718 -0.4551
   49MOL   H20230058   1.924   6.673   1.389 -1.2746  1.5791 -1.0621
   49MOL   H20330059   1.987   6.835   1.402  0.9200 -0.6904  1.7610
   49MOL   H20430060   2.153   6.574   1.427  3.5844  0.6391  2.1001
   49MOL   H20530061   2.218   6.737   1.448  1.0451 -0.7563  1.0881
   49MOL   H20630062   2.181   6.679   1.678  0.1089 -2.2377  0.4248
   49MOL   H20730063   2.027   6.756   1.631 -0.0691  0.5298  0.0733
   49MOL   H20830064   1.944   6.533   1.599  1.0836  0.6365 -1.1958
   49MOL   H20930065   2.094   6.454   1.629  0.2844 -0.2867  0.9865
   49MOL   H21030066   1.954   6.635   1.835  1.5394  0.2600  0.0304
   49MOL   H21130067   2.090   6.530   1.870  1.3451 -0.3344 -3.2628
   49MOL   H21230068   1.817   6.441   1.792 -0.9181 -1.4795  1.0289
   49MOL   H21330069   1.938   6.332   1.804 -1.5665  0.0992 -0.7032
   49MOL   H21430070   1.837   6.488   2.033  0.4265 -0.1735  0.3910
   49MOL   H21530071   1.981   6.385   2.054 -0.1937  2.3346  1.4515
   49MOL   H21630072   1.826   6.312   2.008  0.8473 -1.2552 -2.6547
   49MOL   H21730073   2.081   6.448   0.868 -2.1377 -1.2198 -0.1809
   49MOL   H21830074   2.162   6.399   1.011  0.6262 -0.5091 -0.1714
   49MOL   C21930075   1.950   6.380   1.035 -0.5170  0.9127 -0.2794
   49MOL   O22030076   1.995   6.268   1.114  0.1131 -0.6607  0.2253
   49MOL   C22130077   2.013   6.300   1.249  0.5609 -0.3852 -0.0471
   49MOL   C22230078   2.022   6.164   1.326  0.1865 -0.1130 -0.2341
   49MOL   C22330079   2.028   6.172   1.473 -0.0547 -0.2596 -0.4880
   49MOL   C22430080   2.028   6.040   1.554 -0.0460 -0.3898  0.1047
   49MOL   C22530081   1.891   5.969   1.556  0.1437 -0.1315 -0.2840
   49MOL   C22630082   1.897   5.862   1.672 -0.2741 -0.2472 -0.4209
   49MOL   C22730083   1.791   5.751   1.668  0.1057  0.2244 -0.1745
   49MOL   C22830084   1.651   5.793   1.725  0.0213 -0.5849 -0.0974
   49MOL   C22930085   1.873   6.318   0.912 -0.3961 -0.2997  0.3623
   49MOL   H23030086   1.891   6.453   1.091  1.2121  1.2570  1.1561
   49MOL   H23130087   1.936   6.366   1.289 -0.0872 -0.7122 -0.7582
   49MOL   H23230088   2.115   6.340   1.246  0.3522 -0.0039 -2.9087
   49MOL   H23330089   2.109   6.106   1.296  0.4049 -0.6541  1.3759
   49MOL   H23430090   1.925   6.124   1.296 -0.2406  0.1168  0.8248
   49MOL   H23530091   2.127   6.209   1.500 -0.7679  0.5046  1.1327
   49MOL   H23630092   1.949   6.238   1.510 -1.0705 -0.3979 -2.3421
   49MOL   H23730093   2.113   5.977   1.528  1.3821  1.3225  0.5094
   49MOL   H23830094   2.052   6.054   1.659  1.2353 -0.3778 -0.1795
   49MOL   H23930095   1.808   6.039   1.569 -0.4760 -0.9710  0.2951
   49MOL   H24030096   1.864   5.927   1.459 -0.6188 -1.8112  0.6434
   49MOL   H24130097   1.896   5.924   1.761  1.5370  0.4539 -0.8752
   49MOL   H24230098   1.995   5.817   1.661 -0.1797 -0.5720  1.6443
   49MOL   H24330099   1.796   5.710   1.567 -3.8741 -0.9310 -0.0104
   49MOL   H24430100   1.828   5.668   1.727  0.4236  0.4607 -0.0368
   49MOL   H24530101   1.672   5.846   1.818  1.0165 -0.5820 -0.3192
   49MOL   H24630102   1.580   5.716   1.756  0.8229 -1.3945 -0.2401
   49MOL   H24730103   1.603   5.869   1.663 -2.0472  0.4430  2.6518
   49MOL   H24830104   1.941   6.252   0.858  0.2825  1.2260 -0.6597
   49MOL   H24930105   1.803   6.251   0.963  1.7929 -2.8650  0.0863
   49MOL   C25030106   1.800   6.401   0.800 -0.4184  0.8662 -0.3083
   49MOL   O25130107   1.733   6.516   0.851  0.6181  0.2014  0.0521
   49MOL   C25230108   1.638   6.481   0.955  0.5935 -0.1325 -0.2630
   49MOL   C25330109   1.576   6.616   1.014 -0.4081  0.3327 -0.0654
   49MOL   C25430110   1.681   6.719   1.058  0.6157 -0.4973  0.3654
   49MOL   C25530111   1.641   6.836   1.148  0.1750  0.0685 -0.2181
   49MOL   C25630112   1.592   6.789   1.285  0.4983  0.5381  0.2706
   49MOL   C25730113   1.573   6.908   1.375 -0.2715  0.8184  0.4052
   49MOL   C25830114   1.560   6.863   1.524  0.2178  0.3189  0.1720
   49MOL   C25930115   1.530   6.985   1.614 -0.1584 -0.5191 -0.1592
   49MOL   C26030116   1.711   6.311   0.712 -0.3230  0.4089  0.5148
   49MOL   H26130117   1.880   6.444   0.740 -1.1953  1.7506 -0.7262
   49MOL   H26230118   1.682   6.433   1.042  2.0418  0.1467 -0.8287
   49MOL   H26330119   1.554   6.426   0.914  0.5529  0.6448 -1.2512
   49MOL   H26430120   1.517   6.582   1.099  1.1724  0.0421  0.9152
   49MOL   H26530121   1.503   6.664   0.949 -1.3509  0.5979  1.1680
   49MOL   H26630122   1.755   6.660   1.112  0.7719  0.2124  0.9246
   49MOL   H26730123   1.736   6.759   0.973  0.0191 -0.7673 -0.1504
   49MOL   H26830124   1.731   6.896   1.159  0.6167 -0.7337  0.5865
   49MOL   H26930125   1.565   6.902   1.106 -0.8702 -0.8981  0.1067
   49MOL   H27030126   1.510   6.716   1.289  0.0881  0.9986  0.3173
   49MOL   H27130127   1.677   6.735   1.326 -1.1264 -1.4877  1.1014
   49MOL   H27230128   1.492   6.975   1.346 -2.2228 -1.8224 -0.4674
   49MOL   H27330129   1.666   6.965   1.369 -0.1780  1.1463  3.9863
   49MOL   H27430130   1.474   6.795   1.528 -1.0530  1.9952  3.3167
   49MOL   H27530131   1.652   6.810   1.550 -0.0147  0.5521  1.5276
   49MOL   H27630132   1.462   7.063   1.578 -0.5695  0.0080  1.6682
   49MOL   H27730133   1.627   7.033   1.626 -0.1035 -0.2582 -1.6009
   49MOL   H27830134   1.503   6.966   1.718 -0.5847 -0.1607 -0.2016
   49MOL   H27930135   1.772   6.236   0.662 -0.5657  0.8785 -0.4943
   49MOL   H28030136   1.648   6.249   0.776  0.7554 -0.1812  1.0240
   49MOL   C28130137   1.612   6.398   0.622  0.6665 -0.5758 -0.2221
   49MOL   O28230138   1.524   6.293   0.577 -0.1223 -0.1395  0.1282
   49MOL   C28330139   1.393   6.303   0.621  0.3188  0.0858 -0.0608
   49MOL   C28430140   1.326   6.164   0.588 -0.6832 -0.2502 -1.1830
   49MOL   C28530141   1.177   6.172   0.597 -0.6396  0.2104  0.1010
   49MOL   C28630142   1.123   6.028   0.604 -0.2908 -0.0619  0.0249
   49MOL   C28730143   0.974   6.012   0.582 -0.8012  0.0955  0.4677
   49MOL   C28830144   0.890   6.093   0.677 -0.2501 -0.1475 -0.1113
   49MOL   C28930145   0.872   6.034   0.814  0.1951  0.1501 -0.3033
   49MOL   C29030146   0.779   6.111   0.908  0.0143 -0.5467  0.9690
   49MOL   C29130147   1.697   6.439   0.494  0.2100 -0.1095 -0.5016
   49MOL   H29230148   1.567   6.485   0.669  0.7113  0.0216 -1.2701
   49MOL   H29330149   1.337   6.387   0.580 -1.8479 -0.0486  2.4942
   49MOL   H29430150   1.400   6.332   0.726 -0.3730 -0.9713  0.2882
   49MOL   H29530151   1.362   6.084   0.653 -4.9257  0.3995  2.1896
   49MOL   H29630152   1.354   6.147   0.484  0.8740  0.8330 -0.9584
   49MOL   H29730153   1.140   6.237   0.676  0.5428 -0.6178  1.3446
   49MOL   H29830154   1.131   6.215   0.508 -0.4696 -0.2707 -0.2238
   49MOL   H29930155   1.173   5.959   0.536 -0.5881  1.2232 -1.5209
   49MOL   H30030156   1.158   5.980   0.696  0.0488 -1.2209 -0.6931
   49MOL   H30130157   0.941   6.048   0.485 -0.3578 -0.2853  0.1741
   49MOL   H30230158   0.950   5.905   0.586  0.9754 -0.3800 -1.1407
   49MOL   H30330159   0.791   6.097   0.633  0.0589  0.6355 -0.7547
   49MOL   H30430160   0.919   6.199   0.677 -1.5552  0.2372  1.9315
   49MOL   H30530161   0.825   5.939   0.786 -0.2176 -0.4879  2.3972
   49MOL   H30630162   0.962   6.000   0.866  0.3793  0.8914 -0.1375
   49MOL   H30730163   0.801   6.078   1.010  3.3016  1.4874  1.0017
   49MOL   H30830164   0.679   6.108   0.866  0.3640  0.5013  0.0299
   49MOL   H30930165   0.783   6.219   0.892 -1.5490 -0.6527 -0.2118
   49MOL   H31030166   1.793   6.477   0.527  0.0921 -0.9676  0.8910
   49MOL   H31130167   1.714   6.348   0.436 -1.2062 -0.4716 -0.3809
   49MOL   C31230168   1.625   6.544   0.403 -0.4828  0.2065  0.6831
   49MOL   O31330169   1.581   6.466   0.288 -0.3043 -0.0354 -0.0640
   49MOL   C31430170   1.483   6.521   0.199 -0.0508  0.0896 -0.4268
   49MOL   C31530171   1.343   6.466   0.236  0.3610 -0.4778 -0.1272
   49MOL   C31630172   1.258   6.577   0.309 -0.3364 -0.5285 -0.2176
   49MOL   C31730173   1.121   6.518   0.341  0.1305  0.3520  0.2427
   49MOL   C31830174   1.053   6.612   0.439  0.0411 -0.3388  0.5549
   49MOL   C31930175   0.912   6.557   0.490 -0.2490  0.8549  0.1420
   49MOL   C32030176   0.929   6.512   0.635  0.5976 -0.0764 -0.3492
   49MOL   C32130177   0.800   6.457   0.697  0.0337  0.0627  0.0192
   49MOL   C32230178   1.701   6.671   0.365  0.0371 -0.0638 -0.3940
   49MOL   H32330179   1.534   6.568   0.459 -1.1071 -0.9983  0.2053
   49MOL   H32430180   1.514   6.499   0.097 -1.7170 -2.2204 -0.4824
   49MOL   H32530181   1.493   6.629   0.208  0.8537  0.0661 -1.1061
   49MOL   H32630182   1.349   6.382   0.305  2.2849  1.3973  2.0954
   49MOL   H32730183   1.289   6.440   0.144 -0.5910  4.0476 -0.9427
   49MOL   H32830184   1.317   6.614   0.392 -1.9806  0.6266  0.4659
   49MOL   H32930185   1.247   6.668   0.249  4.8020 -0.1246 -0.8151
   49MOL   H33030186   1.064   6.508   0.249  0.5760 -1.1279  0.1192
   49MOL   H33130187   1.137   6.418   0.381  0.3437  0.1853 -0.2573
   49MOL   H33230188   1.125   6.665   0.501  0.4088  2.2824 -1.9650
   49MOL   H33330189   1.017   6.695   0.377 -1.3237 -0.0566  1.6818
   49MOL   H33430190   0.882   6.481   0.418  0.5886  2.2970 -1.7700
   49MOL   H33530191   0.846   6.644   0.490  0.0555  1.1204 -2.6682
   49MOL   H33630192   1.003   6.432   0.642  0.8956  0.2969  0.9353
   49MOL   H33730193   0.957   6.591   0.704 -1.7140  1.4724 -1.1215
   49MOL   H33830194   0.804   6.437   0.805 -1.1538 -2.2586 -0.3277
   49MOL   H33930195   0.773   6.360   0.656  1.5014 -1.1567  1.8305
   49MOL   H34030196   0.721   6.530   0.679 -0.1269  0.8772  3.6051
   49MOL   H34130197   1.793   6.642   0.315  2.6718 -0.7264  4.5763
   49MOL   H34230198   1.643   6.739   0.303  3.0525  0.8888 -2.2634
   49MOL   C34330199   1.751   6.767   0.480 -0.2178 -0.1384  0.4437
   49MOL   O34430200   1.630   6.820   0.532 -0.4907  0.2835 -0.4753
   49MOL   C34530201   1.623   6.855   0.666 -0.2254 -0.4254 -0.2944
   49MOL   C34630202   1.483   6.831   0.717  0.3906 -0.5792 -0.3139
   49MOL   C34730203   1.374   6.911   0.645 -0.0593 -0.4681 -0.0001
   49MOL   C34830204   1.245   6.923   0.732 -0.0158  0.1993  0.5229
   49MOL   C34930205   1.157   7.043   0.693  0.1843  0.6762 -0.2963
   49MOL   C35030206   1.103   7.036   0.543 -0.6029  0.1202 -0.0684
   49MOL   C35130207   0.967   6.962   0.526 -0.1313 -0.5634  0.2944
   49MOL   C35230208   0.929   6.957   0.381  0.1884  0.1018  0.0598
   49MOL   C35330209   1.843   6.876   0.432 -0.1110 -0.6511  0.0445
   49MOL   H35430210   1.801   6.704   0.555  2.0866  1.8354  0.6558
   49MOL   H35530211   1.635   6.963   0.679 -1.6703 -0.3213  0.2807
   49MOL   H35630212   1.702   6.807   0.724  0.3198  0.6564 -0.1227
   49MOL   H35730213   1.488   6.864   0.821  2.6211 -0.4111 -0.4566
   49MOL   H35830214   1.453   6.726   0.711  1.3790 -0.7622 -2.4805
   49MOL   H35930215   1.419   7.010   0.654  2.2329 -1.4544 -0.2522
   49MOL   H36030216   1.363   6.888   0.539  3.8521  0.7326 -0.7379
   49MOL   H36130217   1.186   6.831   0.734  1.9577 -1.1411 -0.7999
   49MOL   H36230218   1.275   6.943   0.835 -3.5250 -0.3449  1.7094
   49MOL   H36330219   1.075   7.050   0.765  0.4401  0.7309 -0.0059
   49MOL   H36430220   1.201   7.141   0.715 -0.5164  0.9673 -0.1623
   49MOL   H36530221   1.177   7.005   0.469  1.1419  3.7831  0.0221
   49MOL   H36630222   1.080   7.140   0.521 -0.3588 -0.0212 -1.0313
   49MOL   H36730223   0.979   6.862   0.567  0.7062 -1.0504 -1.0858
   49MOL   H36830224   0.893   7.014   0.586 -0.0638 -1.9032  1.5488
   49MOL   H36930225   0.832   6.908   0.388  1.1456 -2.3079 -2.2987
   49MOL   H37030226   0.988   6.893   0.315 -0.7392 -1.0918  0.3692
   49MOL   H37130227   0.916   7.052   0.329  0.2604 -0.4541 -1.0064
   49MOL   H37230228   1.789   6.925   0.351 -0.6956 -0.0477  0.7907
   49MOL   H37330229   1.838   6.953   0.509  0.7080 -1.4370  0.8955
   49MOL   C37430230   1.983   6.819   0.416  0.4173  0.3612  0.3759
   49MOL   O37530231   2.062   6.874   0.519  0.6501 -0.0236 -0.2302
   49MOL   C37630232   2.163   6.790   0.575 -0.2876  0.0242 -0.8215
   49MOL   C37730233   2.274   6.879   0.646 -0.0355  0.3256  0.1192
   49MOL   C37830234   2.203   6.981   0.740 -0.9461  0.4985  0.4087
   49MOL   C37930235   2.306   7.063   0.814 -0.0604  0.9664  0.0892
   49MOL   C38030236   2.245   7.152   0.914  0.0174  0.6274  0.3375
   49MOL   C38130237   2.179   7.095   1.034  0.1927 -0.4011 -0.0898
   49MOL   C38230238   2.138   7.195   1.144  0.0728 -0.2823 -0.0815
   49MOL   C38330239   2.087   7.123   1.272 -0.7112  0.4656 -0.1018
   49MOL   C38430240   2.044   6.855   0.282 -0.7175  0.4475  0.5093
   49MOL   H38530241   1.976   6.711   0.424 -2.2710  0.5102  0.7599
   49MOL   H38630242   2.222   6.727   0.508  1.6715  0.9378  0.0083
   49MOL   H38730243   2.114   6.726   0.649  0.5064  1.5910  1.0834
   49MOL   H38830244   2.326   6.931   0.566  0.3301 -0.3679 -0.1002
   49MOL   H38930245   2.353   6.824   0.697  0.8408 -0.6784 -2.2775
   49MOL   H39030246   2.134   7.036   0.676 -1.2254 -0.0031  0.2750
   49MOL   H39130247   2.147   6.927   0.816 -1.3762  1.7051  0.9602
   49MOL   H39230248   2.378   6.996   0.862 -0.2361 -0.6706 -1.8537
   49MOL   H39330249   2.358   7.123   0.740  1.1238 -0.1915 -0.0246
   49MOL   H39430250   2.326   7.216   0.948  1.7217 -0.7986 -0.9655
   49MOL   H39530251   2.184   7.223   0.857  1.5929  0.1048 -2.0706
   49MOL   H39630252   2.230   7.015   1.088  0.1083 -0.2792  0.1757
   49MOL   H39730253   2.085   7.059   0.992  0.9662 -0.7024 -1.5945
   49MOL   H39830254   2.229   7.249   1.173  0.6181 -0.9197 -0.5978
   49MOL   H39930255   2.064   7.265   1.104 -0.7309  0.3592  2.4245
   49MOL   H40030256   2.045   7.180   1.355  1.9869  1.7953  0.4003
   49MOL   H40130257   2.165   7.066   1.322 -0.1317  1.9304  0.6822
   49MOL   H40230258   2.010   7.052   1.242  1.4592 -1.3264 -1.6145
   49MOL   H40330259   2.035   6.963   0.271 -2.0628  0.3876  0.9380
   49MOL   H40430260   2.149   6.827   0.283 -0.5807  0.9649  2.5923
   49MOL   C40530261   1.979   6.792   0.156  0.3652  1.1136 -0.0424
   49MOL   O40630262   2.002   6.646   0.161  0.8709 -0.6123 -0.0017
   49MOL   C40730263   1.939   6.567   0.067 -0.3692  0.4422  0.2648
   49MOL   C40830264   1.930   6.420   0.102 -0.1904 -0.2245 -0.1733
   49MOL   C40930265   1.852   6.346   7.766 -0.4005 -0.1396  0.7691
   49MOL   C41030266   1.820   6.196   0.035  0.1342 -0.2508  0.1800
   49MOL   C41130267   1.690   6.184   0.118  0.0023  0.1139 -0.1724
   49MOL   C41230268   1.631   6.043   0.133 -0.4203  0.0488 -0.1086
   49MOL   C41330269   1.696   5.956   0.246  0.6791  0.0380 -0.5446
   49MOL   C41430270   1.663   6.005   0.382 -0.7355 -0.4484  0.0407
   49MOL   C41530271   2.036   6.858   0.023  0.4950 -0.5529  0.2774
   49MOL   H41630272   1.871   6.808   0.150  0.3491  0.7634 -0.8261
   49MOL   H41730273   2.011   6.582   7.761 -0.2822 -1.4657 -0.0307
   49MOL   H41830274   1.842   6.607   0.038 -1.4968 -2.6286 -0.4200
   49MOL   H41930275   1.878   6.415   0.198 -0.0929  0.6346 -0.0676
   49MOL   H42030276   2.026   6.372   0.120 -0.1492  0.1266  0.5636
   49MOL   H42130277   1.757   6.389   7.734 -1.1656 -1.6192  1.0495
   49MOL   H42230278   1.918   6.338   7.679 -0.9076 -1.7769  0.5121
   49MOL   H42330279   1.799   6.149   7.713 -2.3617 -0.4122  0.7710
   49MOL   H42430280   1.911   6.164   0.086 -0.8667 -0.5814  1.7693
   49MOL   H42530281   1.706   6.235   0.213 -0.5099 -1.5918  0.8523
   49MOL   H42630282   1.616   6.252   0.077 -0.1187 -0.0597 -0.2423
   49MOL   H42730283   1.645   5.995   0.037  1.2039 -0.8045  0.5253
   49MOL   H42830284   1.523   6.039   0.143 -0.4514 -0.3731 -0.6167
   49MOL   H42930285   1.655   5.857   0.229 -1.0850  0.6707 -0.0665
   49MOL   H43030286   1.805   5.963   0.243  0.5478  2.6001 -1.0057
   49MOL   H43130287   1.703   6.106   0.391 -0.9677 -0.4976  1.7239
   49MOL   H43230288   1.707   5.942   0.459 -1.8564  1.5031  2.3642
   49MOL   H43330289   1.556   6.003   0.402 -0.6604  2.6487  1.0486
   49MOL   H43430290   2.004   6.800   7.711  1.3284  1.2426 -1.2826
   49MOL   H43530291   1.973   6.947   0.024 -0.4761 -1.1473 -2.6772
   49MOL   C43630292   2.187   6.885   0.009  0.0576  0.7484  0.8369
   49MOL   O43730293   2.194   6.981   7.673  0.1488  0.0018 -0.4891
   49MOL   C43830294   2.235   7.115   7.714 -0.0759  0.1909 -0.2278
   49MOL   C43930295   2.210   7.207   7.594  0.3376  0.6894 -0.6872
   49MOL   C44030296   2.064   7.248   7.567 -0.1341 -0.4285 -0.3946
   49MOL   C44130297   2.052   7.306   7.426  0.6849  0.3512 -0.0643
   49MOL   C44230298   2.004   7.215   7.311  0.0770 -0.4166 -0.2493
   49MOL   C44330299   2.125   7.127   7.265  0.7090 -0.6470  0.3628
   49MOL   C44430300   2.094   7.049   7.132  0.8970  0.4145 -0.4980
   49MOL   C44530301   2.208   6.972   7.072  0.1350  0.3827  1.0670
   49MOL   C44630302   2.254   6.761   7.728 -0.5973 -0.3359  1.3053
   49MOL   H44730303   2.244   6.921   0.094  0.3403 -2.4211  2.0802
   49MOL   H44830304   2.172   7.159   0.017  0.0254  1.7767 -1.0351
   49MOL   H44930305   2.337   7.114   7.752 -0.4590 -2.5095  0.8386
   49MOL   H45030306   2.248   7.144   7.514  0.0129 -2.3565  1.4652
   49MOL   H45130307   2.274   7.295   7.600 -0.6278  1.3554  0.2529
   49MOL   H45230308   1.999   7.161   7.579  1.0622 -1.2718  0.0940
   49MOL   H45330309   2.021   7.321   7.635  0.0020 -0.4809 -0.2534
   49MOL   H45430310   1.970   7.377   7.420 -1.4543 -2.0686 -0.5434
   49MOL   H45530311   2.140   7.363   7.395  1.8126 -1.2573  0.0970
   49MOL   H45630312   1.913   7.162   7.338 -0.2375  0.7652  1.0499
   49MOL   H45730313   1.973   7.272   7.223 -0.9196 -0.3509  0.1386
   49MOL   H45830314   2.162   7.059   7.341  0.2994  0.7953  1.8916
   49MOL   H45930315   2.204   7.198   7.238  0.7339 -1.2240 -1.1592
   49MOL   H46030316   2.009   6.985   7.158  2.0331 -1.4727 -1.3861
   49MOL   H46130317   2.055   7.118   7.057 -2.8960 -1.0094  0.0631
   49MOL   H46230318   2.241   6.900   7.146 -0.7211 -1.4076 -0.2510
   49MOL   H46330319   2.296   7.033   7.054 -0.7754  0.8871 -2.0600
   49MOL   H46430320   2.185   6.918   6.980  1.5276  1.1825  0.2294
   49MOL   H46530321   2.231   6.676   0.018 -1.7303  0.4871  2.0057
   49MOL   H46630322   2.207   6.737   7.632  0.7501  0.4007  0.4537
   49MOL   C46730323   2.400   6.781   7.705 -0.0596 -0.5991 -0.0616
   49MOL   O46830324   2.421   6.765   7.565 -0.5132 -0.1573  0.4189
   49MOL   C46930325   2.389   6.871   7.478 -0.1340 -0.1005 -0.1994
   49MOL   C47030326   2.455   6.817   7.341  0.5568 -0.1440  0.4039
   49MOL   C47130327   2.602   6.809   7.354  0.3100 -0.3560  0.0117
   49MOL   C47230328   2.681   6.790   7.228  0.8802  0.7066 -0.6005
   49MOL   C47330329   2.669   6.914   7.136 -0.8839 -0.4640  0.3641
   49MOL   C47430330   2.737   6.892   6.998  0.4383  0.4043 -0.4761
   49MOL   C47530331   2.891   6.883   7.000  0.4463 -0.1816  0.1030
   49MOL   C47630332   2.955   6.867   6.861  0.4204  0.5963 -0.4327
   49MOL   C47730333   2.489   6.680   0.011  0.0716  0.2002 -0.5902
   49MOL   H47830334   2.435   6.881   7.731  3.0882 -1.1329 -1.9518
   49MOL   H47930335   2.429   6.962   7.521 -1.5093  0.5319 -0.2366
   49MOL   H48030336   2.283   6.894   7.470 -0.4649 -1.6226 -0.3561
   49MOL   H48130337   2.425   6.886   7.263  2.6323  1.7310  1.2004
   49MOL   H48230338   2.421   6.718   7.312 -0.3962 -0.6672  3.1612
   49MOL   H48330339   2.637   6.902   7.398 -0.7942 -0.3099  0.8057
   49MOL   H48430340   2.629   6.738   7.433  0.7223  1.1815  1.2691
   49MOL   H48530341   2.785   6.776   7.258  0.1927  2.3108  2.8404
   49MOL   H48630342   2.636   6.707   7.174 -1.0514  1.3889 -0.0849
   49MOL   H48730343   2.570   6.960   7.133 -0.0365  1.4238  0.8391
   49MOL   H48830344   2.735   6.984   7.186 -0.5689 -1.0679  0.7994
   49MOL   H48930345   2.715   6.982   6.941  0.4758 -0.0488 -1.2100
   49MOL   H49030346   2.690   6.805   6.951 -0.7444  0.2751  0.9066
   49MOL   H49130347   2.932   6.969   7.053  0.3799  0.4768 -0.9020
   49MOL   H49230348   2.926   6.805   7.068  2.7412  0.9962  0.3402
   49MOL   H49330349   2.933   6.952   6.795 -0.5350 -1.0937 -2.3550
   49MOL   H49430350   2.899   6.787   6.812  2.0652 -0.4920 -0.5681
   49MOL   H49530351   3.062   6.849   6.859  0.2214 -1.1260  1.9383
   49MOL   H49630352   2.468   6.579   7.750  0.4286  0.6668 -2.1930
   49MOL   H49730353   2.589   6.700   7.748 -0.1240 -0.7778 -1.6864
   49MOL   C49830354   2.488   6.686   0.163  0.1828 -0.1938  0.1139
   49MOL   O49930355   2.540   6.815   0.192  0.2696  0.5390 -0.3720
   49MOL   C50030356   2.494   6.871   0.311  0.6816  0.6455 -0.4016
   49MOL   C50130357   2.557   7.013   0.317 -0.4463  0.5621  0.2412
   49MOL   C50230358   2.520   7.088   0.449 -0.4550  0.0237  0.1532
   49MOL   C50330359   2.563   7.234   0.449 -1.0060  0.2787  0.2176
   49MOL   C50430360   2.710   7.242   0.473 -0.0479 -0.2515  0.1393
   49MOL   C50530361   2.800   7.268   0.343  0.4605 -0.6032 -0.6491
   49MOL   C50630362   2.789   7.418   0.311  0.0228  0.2214 -0.0542
   49MOL   C50730363   2.885   7.460   0.201 -0.3333 -0.2295  0.6439
   49MOL   C50830364   2.581   6.571   0.218 -0.3596 -0.0169  0.1001
   49MOL   H50930365   2.386   6.688   0.201  0.2048  3.2182  0.1806
   49MOL   H51030366   2.525   6.808   0.395 -0.7192  0.4614 -0.0184
   49MOL   H51130367   2.386   6.876   0.313  0.4998 -2.4844 -0.0738
   49MOL   H51230368   2.519   7.063   0.228  0.1526 -0.0755 -0.3835
   49MOL   H51330369   2.665   7.002   0.302 -0.5242  0.5436 -0.3023
   49MOL   H51430370   2.412   7.101   0.458 -0.1576  0.9356  3.1524
   49MOL   H51530371   2.560   7.030   0.533 -1.4696 -0.2738  0.4399
   49MOL   H51630372   2.532   7.280   0.355 -1.6492 -0.7354 -0.0639
   49MOL   H51730373   2.516   7.276   0.538  0.5322 -0.5956  1.4702
   49MOL   H51830374   2.726   7.330   0.536 -3.0971  2.1042 -2.2417
   49MOL   H51930375   2.756   7.156   0.521 -0.6697 -1.1627 -0.8831
   49MOL   H52030376   2.773   7.209   0.255  0.0917  1.7276 -2.1632
   49MOL   H52130377   2.906   7.258   0.365  0.1377 -0.3295  1.0948
   49MOL   H52230378   2.686   7.445   0.288  0.0874 -1.9644 -3.1797
   49MOL   H52330379   2.801   7.478   0.401  2.5161 -0.2259 -0.0493
   49MOL   H52430380   2.988   7.444   0.230  0.1009 -2.0130 -1.7219
   49MOL   H52530381   2.871   7.566   0.177 -1.0973 -0.0118  1.9776
   49MOL   H52630382   2.875   7.405   0.107  3.7973  2.3845 -1.4671
   49MOL   H52730383   2.667   6.568   0.151  0.2364 -0.7900  0.8889
   49MOL   H52830384   2.617   6.592   0.319 -0.3882  0.1646  0.0717
   49MOL   C52930385   2.507   6.429   0.214  0.1288 -0.0758 -0.1131
   49MOL   O53030386   2.414   6.417   0.325  0.0776  0.1725  0.2600
   49MOL   C53130387   2.289   6.365   0.299  0.0554  0.1447  0.6712
   49MOL   C53230388   2.200   6.374   0.419  0.2361  0.7320  0.6011
   49MOL   C53330389   2.095   6.259   0.433  0.1831 -0.7933  0.4787
   49MOL   C53430390   2.155   6.122   0.462  0.6377 -0.1193 -0.0262
   49MOL   C53530391   2.194   6.097   0.610  0.7124 -0.0878  0.0122
   49MOL   C53630392   2.233   5.953   0.630 -0.1487  0.1415 -0.3057
   49MOL   C53730393   2.247   5.905   0.771  0.2554  0.4012  0.1532
   49MOL   C53830394   2.364   5.955   0.857 -0.3260  0.2118 -0.0060
   49MOL   C53930395   2.619   6.321   0.220  0.7089 -0.2653  0.3440
   49MOL   H54030396   2.445   6.417   0.125 -0.1669  1.5197 -0.1418
   49MOL   H54130397   2.243   6.422   0.218  0.7994  0.3526  0.3937
   49MOL   H54230398   2.290   6.261   0.264  0.4973  0.5746 -0.6310
   49MOL   H54330399   2.159   6.474   0.426  0.2091  0.7112  0.7399
   49MOL   H54430400   2.270   6.355   0.501  1.2225  0.8969 -0.1926
   49MOL   H54530401   2.027   6.286   0.514 -1.7292 -0.1827 -1.3144
   49MOL   H54630402   2.042   6.264   0.338  2.0097 -2.5107 -0.6609
   49MOL   H54730403   2.067   6.061   0.439 -0.1097 -0.2716  3.0756
   49MOL   H54830404   2.237   6.094   0.396 -1.4633 -2.9221 -1.5676
   49MOL   H54930405   2.268   6.164   0.652  1.3363 -0.4046 -0.5694
   49MOL   H55030406   2.099   6.115   0.660  0.8465 -0.5347  0.4310
   49MOL   H55130407   2.328   5.952   0.577 -1.1385  0.8533 -2.1175
   49MOL   H55230408   2.165   5.895   0.568  0.8858 -1.1229 -0.2963
   49MOL   H55330409   2.152   5.931   0.817 -0.0794 -0.1879 -0.1931
   49MOL   H55430410   2.255   5.796   0.776 -1.9505  0.2615  1.3362
   49MOL   H55530411   2.359   5.936   0.964 -0.3750 -1.5160 -0.3073
   49MOL   H55630412   2.394   6.059   0.842 -0.9019  0.4587  0.5067
   49MOL   H55730413   2.453   5.897   0.831 -0.5005  0.0398 -0.2197
   49MOL   H55830414   2.669   6.345   0.313 -0.7599 -0.6770  1.2575
   49MOL   H55930415   2.573   6.225   0.244  0.8563 -0.7480 -1.2090
   49MOL   C56030416   2.721   6.312   0.098  0.1162  0.0295  0.5045
   49MOL   O56130417   2.639   6.276   7.769 -0.1269  0.2464  0.1167
   49MOL   C56230418   2.651   6.353   7.651  0.8626  0.7332  0.3404
   49MOL   C56330419   2.578   6.283   7.537 -0.8899  0.1923 -0.2080
   49MOL   C56430420   2.551   6.373   7.415 -0.0903  0.0472  0.0652
   49MOL   C56530421   2.514   6.290   7.291  0.4199 -0.5414  0.5223
   49MOL   C56630422   2.507   6.366   7.156  0.5007 -0.7144 -0.3550
   49MOL   C56730423   2.370   6.445   7.142  0.2154  0.3189  0.7100
   49MOL   C56830424   2.355   6.533   7.012  0.1653 -0.3719 -0.7098
   49MOL   C56930425   2.220   6.603   7.016 -0.5859  0.3145  0.0467
   49MOL   C57030426   2.816   6.191   0.117  0.4905  0.1782 -0.4771
   49MOL   H57130427   2.782   6.402   0.089 -1.4077  1.2316  1.8999
   49MOL   H57230428   2.756   6.352   7.623  0.9582 -1.7621  0.7565
   49MOL   H57330429   2.625   6.458   7.665 -1.0952  0.7031 -2.5197
   49MOL   H57430430   2.483   6.248   7.576 -0.5782 -0.1436  0.2546
   49MOL   H57530431   2.622   6.192   7.497 -2.0745 -0.9851  1.1173
   49MOL   H57630432   2.476   6.449   7.440  0.8194  0.7790  0.5987
   49MOL   H57730433   2.640   6.427   7.383  0.8011 -1.2512  0.3448
   49MOL   H57830434   2.594   6.217   7.276 -0.6349 -1.4835 -0.6431
   49MOL   H57930435   2.428   6.228   7.314 -0.6350  1.0630  0.9654
   49MOL   H58030436   2.591   6.436   7.151 -0.7481  0.7138 -1.7434
   49MOL   H58130437   2.528   6.303   7.069 -1.1528 -0.5980 -0.8478
   49MOL   H58230438   2.372   6.514   7.227  1.1729  0.7695  0.3364
   49MOL   H58330439   2.286   6.378   7.156  1.3287 -0.9801  1.3755
   49MOL   H58430440   2.433   6.607   6.997 -1.6181  1.7148  0.1128
   49MOL   H58530441   2.350   6.456   6.936  0.0655  0.3072 -1.3927
   49MOL   H58630442   2.208   6.668   6.929 -0.4622 -0.3263 -0.4517
   49MOL   H58730443   2.221   6.673   7.099  2.0886  1.0461 -0.5716
   49MOL   H58830444   2.140   6.529   7.011 -1.1924  0.9551  0.0354
   49MOL   H58930445   2.763   6.102   0.151  2.2650 -0.5498  0.4786
   49MOL   H59030446   2.859   6.148   0.027 -1.7010 -1.2046 -0.9020
   49MOL   C59130447   2.920   6.222   0.229  0.5739  0.5593  0.5671
   49MOL   O59230448   3.003   6.329   0.190 -0.1449 -0.0071  0.0852
   49MOL   C59330449   3.035   6.413   0.301  0.7430  0.4708 -0.7218
   49MOL   C59430450   3.116   6.533   0.251  0.2546  0.5724  0.2091
   49MOL   C59530451   3.035   6.631   0.173  0.6125  0.4544  0.4096
   49MOL   C59630452   3.035   6.588   0.023 -0.1203 -0.3445  0.1940
   49MOL   C59730453   2.994   6.704   7.709  0.2046 -0.2755 -0.3428
   49MOL   C59830454   3.013   6.671   7.558  0.1259 -0.4166  1.0154
   49MOL   C59930455   3.044   6.800   7.479  0.4879  0.0232 -0.4068
   49MOL   C60030456   3.097   6.780   7.336  0.3317  0.3823  0.5859
   49MOL   C60130457   3.006   6.097   0.244 -0.1911  0.3429  0.0538
   49MOL   H60230458   2.870   6.244   0.324 -1.2534  1.3232 -0.5377
   49MOL   H60330459   3.094   6.357   0.374 -0.4293 -1.5608 -1.2986
   49MOL   H60430460   2.950   6.457   0.353  0.3897 -0.9886 -0.0494
   49MOL   H60530461   3.213   6.501   0.213  0.1974  0.9517 -0.2578
   49MOL   H60630462   3.147   6.576   0.346 -0.9425 -1.4311  1.5419
   49MOL   H60730463   2.932   6.647   0.204  0.6498  0.2995  0.6189
   49MOL   H60830464   3.079   6.730   0.189  0.3212  1.1473 -2.7876
   49MOL   H60930465   3.138   6.571   7.766  0.0556  0.6269  0.2217
   49MOL   H61030466   2.969   6.506   7.769  1.1376 -0.2006 -3.4122
   49MOL   H61130467   2.890   6.723   7.737 -0.1218 -2.6954  0.2293
   49MOL   H61230468   3.055   6.790   7.736 -1.9909  0.4731  2.4396
   49MOL   H61330469   2.935   6.608   7.514 -0.5562  2.1739 -1.6746
   49MOL   H61430470   3.097   6.602   7.554 -0.1214 -0.7374  1.3598
   49MOL   H61530471   2.957   6.865   7.475 -0.4837 -1.3373 -1.9476
   49MOL   H61630472   3.124   6.851   7.533  0.4361 -0.7537  0.4037
   49MOL   H61730473   3.025   6.730   7.271  0.3132  0.4396  0.5633
   49MOL   H61830474   3.190   6.726   7.348  0.9011  1.3093  0.4153
   49MOL   H61930475   3.119   6.878   7.293  1.0350 -0.4512 -0.9946
   49MOL   H62030476   3.045   6.056   0.152 -1.0609 -0.4743  0.0441
   49MOL   H62130477   3.089   6.111   0.314 -0.1234 -2.8429  0.6870
   49MOL   H62230478   2.937   6.020   0.280 -1.6777  2.8857  2.9461
   50MOL     C130479   5.765   3.578   2.407 -0.1607  0.3525  0.0315
   50MOL     O230480   5.632   3.636   2.407  0.4088 -0.1790 -0.2220
   50MOL     C330481   5.611   3.717   2.295  0.3499  0.0300  0.6388
   50MOL     C430482   5.476   3.795   2.304  0.0954  0.5067 -0.0342
   50MOL     C530483   5.457   3.861   2.441  0.1645 -0.7953  0.1539
   50MOL     C630484   5.370   3.986   2.434  0.0598 -0.2842 -0.0491
   50MOL     C730485   5.391   4.093   2.554 -0.6377  0.0033 -0.7245
   50MOL     C830486   5.327   4.221   2.510  0.0544  0.6926  0.2624
   50MOL     C930487   5.293   4.308   2.630 -0.3363  0.2253 -0.1457
   50MOL    C1030488   5.236   4.436   2.580 -0.5554 -0.0741  0.3195
   50MOL    C1130489   5.775   3.494   2.527 -0.3290 -0.4636  0.4460
   50MOL    H1230490   5.794   3.524   2.317 -3.0140  0.6204 -1.0662
   50MOL    H1330491   5.593   3.659   2.204 -2.6754  0.7865  0.6994
   50MOL    H1430492   5.691   3.791   2.291 -1.0757  1.6270  1.3305
   50MOL    H1530493   5.398   3.719   2.297 -1.0041  1.6125 -0.0306
   50MOL    H1630494   5.469   3.864   2.221 -1.6493  1.8176  1.1802
   50MOL    H1730495   5.423   3.799   2.523  2.3252  1.2386  2.6860
   50MOL    H1830496   5.555   3.898   2.470 -0.1266  0.5082 -0.4614
   50MOL    H1930497   5.401   4.040   2.344 -0.9243  1.4115  0.6038
   50MOL    H2030498   5.267   3.952   2.432 -0.4634  1.1941  0.5986
   50MOL    H2130499   5.345   4.051   2.643 -0.0978  0.8548 -0.0363
   50MOL    H2230500   5.494   4.103   2.587 -1.1330  1.4938  0.4148
   50MOL    H2330501   5.231   4.203   2.460  0.1015  1.4803 -0.1131
   50MOL    H2430502   5.389   4.266   2.432 -0.7463 -1.4565 -1.6854
   50MOL    H2530503   5.215   4.256   2.687  0.0002 -1.9163 -1.5645
   50MOL    H2630504   5.381   4.319   2.693 -0.5155  0.1238  0.1241
   50MOL    H2730505   5.288   4.470   2.491 -0.2061 -0.6570  0.3034
   50MOL    H2830506   5.226   4.511   2.659 -0.1279  1.4933 -1.0784
   50MOL    H2930507   5.131   4.416   2.557 -0.2052 -0.2221 -1.1675
   50MOL    H3030508   5.879   3.475   2.554 -0.3424 -1.2682 -0.0684
   50MOL    H3130509   5.745   3.557   2.610  1.2763 -0.9230  1.4100
   50MOL    H3230510   5.838   3.659   2.412  0.5112 -0.2252 -0.1754
   50MOL    C3330511   5.693   3.366   2.527  0.5053 -0.0418  0.7470
   50MOL    O3430512   5.593   3.370   2.627  0.2317 -0.3667 -0.1180
   50MOL    C3530513   5.486   3.462   2.604  0.0666 -0.9433 -0.0472
   50MOL    C3630514   5.381   3.452   2.715 -0.1342  0.2405  0.1989
   50MOL    C3730515   5.284   3.333   2.712  0.3287  1.2041  0.2573
   50MOL    C3830516   5.209   3.317   2.849 -0.4097  0.5966  0.5351
   50MOL    C3930517   5.085   3.401   2.871 -0.5089 -0.6107 -0.2838
   50MOL    C4030518   4.995   3.361   2.990  0.3415 -0.2220 -0.3171
   50MOL    C4130519   4.921   3.225   2.967 -0.0388  0.5898  0.0256
   50MOL    C4230520   4.818   3.234   2.850 -0.0650  0.6006  0.1092
   50MOL    C4330521   5.772   3.239   2.569  0.0708  0.2759  1.2919
   50MOL    H4430522   5.648   3.349   2.429  1.0569  1.3640  0.2409
   50MOL    H4530523   5.444   3.455   2.504  0.5554 -0.4679 -0.2901
   50MOL    H4630524   5.528   3.563   2.605 -0.7346 -0.6008 -0.4442
   50MOL    H4730525   5.319   3.542   2.711 -0.4570 -0.0516 -1.7227
   50MOL    H4830526   5.434   3.454   2.810  1.8764 -0.7941 -0.8702
   50MOL    H4930527   5.209   3.347   2.634  0.8829  1.9552 -0.1476
   50MOL    H5030528   5.334   3.238   2.691 -3.4404 -0.4074 -1.9963
   50MOL    H5130529   5.169   3.216   2.854  1.4457 -0.2973 -2.0321
   50MOL    H5230530   5.270   3.331   2.939  0.9864  0.4497 -0.3767
   50MOL    H5330531   5.118   3.502   2.894 -2.1405 -0.4494  1.3807
   50MOL    H5430532   5.031   3.407   2.777 -0.6661 -2.0264 -0.2973
   50MOL    H5530533   4.918   3.438   2.992  0.3070 -0.1630 -2.3417
   50MOL    H5630534   5.042   3.375   3.087 -0.1977 -0.3629 -0.0303
   50MOL    H5730535   4.989   3.142   2.949 -2.8555 -1.8224  0.2603
   50MOL    H5830536   4.869   3.184   3.053  0.5700 -1.6302 -0.6402
   50MOL    H5930537   4.780   3.134   2.830  1.5116 -0.0074  0.0836
   50MOL    H6030538   4.861   3.270   2.757 -0.5544  0.2776 -0.2401
   50MOL    H6130539   4.737   3.299   2.884  1.2165  2.0724  0.4550
   50MOL    H6230540   5.842   3.262   2.649  1.2565  0.4055  0.2201
   50MOL    H6330541   5.704   3.164   2.611  0.5185  0.6947  2.7852
   50MOL    C6430542   5.821   3.167   2.440 -0.2000  0.0068 -0.4135
   50MOL    O6530543   5.707   3.102   2.388 -0.4226 -0.0122  0.9679
   50MOL    C6630544   5.681   3.121   2.250 -0.5700 -0.0421  0.2423
   50MOL    C6730545   5.550   3.043   2.216  0.0314 -0.0388  0.9096
   50MOL    C6830546   5.429   3.077   2.302  0.5704 -0.6032  0.3110
   50MOL    C6930547   5.297   3.017   2.258  0.2777  0.3671 -0.1679
   50MOL    C7030548   5.171   3.076   2.323 -0.5547  0.3485 -0.1510
   50MOL    C7130549   5.177   3.074   2.479  0.1262 -0.5172  0.2552
   50MOL    C7230550   5.041   3.109   2.543 -0.2677  0.2532  0.0084
   50MOL    C7330551   4.946   2.990   2.555  0.2293 -0.5504  0.4139
   50MOL    C7430552   5.920   3.061   2.470  0.1633  0.3690 -0.4835
   50MOL    H7530553   5.855   3.241   2.368  0.0471 -0.0273 -0.3297
   50MOL    H7630554   5.760   3.090   2.181  1.0305  3.5093  0.3536
   50MOL    H7730555   5.667   3.228   2.231  0.7370 -0.3012 -2.3833
   50MOL    H7830556   5.578   2.937   2.224 -1.5470 -0.4309  1.3034
   50MOL    H7930557   5.519   3.055   2.112  0.9545 -1.1840  0.4905
   50MOL    H8030558   5.462   3.039   2.399  2.3829  0.4779  0.1287
   50MOL    H8130559   5.421   3.185   2.306 -1.4447 -0.7583  1.0961
   50MOL    H8230560   5.288   3.031   2.150  1.0596  2.6170  0.0334
   50MOL    H8330561   5.287   2.908   2.260 -0.3100  0.4429  2.1178
   50MOL    H8430562   5.151   3.181   2.301  0.8957  0.5064 -0.7460
   50MOL    H8530563   5.087   3.011   2.298 -1.4298  1.2865  0.2979
   50MOL    H8630564   5.252   3.150   2.502 -0.5906  0.5009 -0.7427
   50MOL    H8730565   5.206   2.977   2.521 -1.3628 -0.4703  1.4460
   50MOL    H8830566   5.060   3.144   2.645  0.2335  2.1236 -0.7148
   50MOL    H8930567   4.999   3.188   2.481 -1.9845 -0.6626 -0.0212
   50MOL    H9030568   4.923   2.950   2.456  1.0876  1.7884 -0.7557
   50MOL    H9130569   4.854   3.015   2.607 -0.9401 -0.0331 -1.8808
   50MOL    H9230570   4.988   2.905   2.611 -0.0495 -1.2111 -0.3661
   50MOL    H9330571   5.871   2.988   2.534 -0.4071  0.0887 -1.2370
   50MOL    H9430572   5.935   3.008   2.375 -1.3523 -1.2292  0.1488
   50MOL    C9530573   6.053   3.115   2.529  0.1384  0.4358 -0.0612
   50MOL    O9630574   6.114   3.204   2.438  0.2843  0.0907 -0.0185
   50MOL    C9730575   6.164   3.323   2.501  0.2587  0.2118  0.1605
   50MOL    C9830576   6.240   3.398   2.391 -0.1370  0.0014 -0.7007
   50MOL    C9930577   6.368   3.321   2.353 -0.2652 -0.4444  0.3847
   50MOL   C10030578   6.476   3.382   2.259  0.0668  0.5987  0.1969
   50MOL   C10130579   6.578   3.273   2.220  0.2469  0.7654  0.1612
   50MOL   C10230580   6.701   3.322   2.151  0.1131 -0.0567  0.6799
   50MOL   C10330581   6.802   3.411   2.230 -0.1437 -0.6148 -0.2993
   50MOL   C10430582   6.862   3.358   2.361 -0.3128 -0.4294  0.2340
   50MOL   C10530583   6.163   3.005   2.571 -0.0018  0.0587  0.2748
   50MOL   H10630584   6.030   3.162   2.625 -1.7527  1.3789 -0.9321
   50MOL   H10730585   6.232   3.302   2.584  1.1786 -0.8481 -0.8553
   50MOL   H10830586   6.081   3.382   2.541  1.2826  0.6531  1.7123
   50MOL   H10930587   6.284   3.495   2.417  1.5062 -0.8956 -0.1050
   50MOL   H11030588   6.179   3.426   2.305  1.1633 -0.3802 -1.7712
   50MOL   H11130589   6.422   3.294   2.444 -1.1300 -1.0890  0.7158
   50MOL   H11230590   6.334   3.225   2.314 -1.5101 -1.2132  3.2281
   50MOL   H11330591   6.433   3.411   2.164  0.9224 -0.6044 -0.5728
   50MOL   H11430592   6.522   3.463   2.315  0.9418 -0.4863  1.0912
   50MOL   H11530593   6.598   3.213   2.309 -0.1512 -0.9193 -0.8451
   50MOL   H11630594   6.540   3.194   2.154 -1.6808  2.1627 -0.4452
   50MOL   H11730595   6.659   3.359   2.057 -3.4252 -0.3618  2.0796
   50MOL   H11830596   6.746   3.231   2.111  0.3983 -0.0927  1.0851
   50MOL   H11930597   6.896   3.412   2.173  1.7133 -0.9698  2.6533
   50MOL   H12030598   6.758   3.510   2.241  3.5396  0.9977  0.7388
   50MOL   H12130599   6.787   3.351   2.440  1.0265  0.9733  1.6742
   50MOL   H12230600   6.925   3.440   2.397  1.4207 -0.0895 -3.4232
   50MOL   H12330601   6.912   3.262   2.348  0.3595  0.0187 -0.5009
   50MOL   H12430602   6.197   2.953   2.482 -0.9912 -0.7221  0.3514
   50MOL   H12530603   6.252   3.054   2.610  0.3057 -0.0281 -0.3107
   50MOL   C12630604   6.102   2.904   2.686  0.8586  0.7132  0.4550
   50MOL   O12730605   6.086   2.975   2.810  0.1142 -0.3919 -0.1399
   50MOL   C12830606   5.971   2.931   2.881  0.4693 -0.0085  0.0328
   50MOL   C12930607   6.004   2.992   3.019  0.3116 -0.8405 -0.1952
   50MOL   C13030608   6.123   2.931   3.094  0.5520  0.2524  0.6286
   50MOL   C13130609   6.134   2.990   3.236 -0.0643 -0.2273 -0.5461
   50MOL   C13230610   6.256   2.943   3.317 -0.0839  0.2295  0.1391
   50MOL   C13330611   6.263   3.008   3.457  0.5523 -0.3081 -0.0316
   50MOL   C13430612   6.389   2.956   3.539 -0.3798  0.1392  0.0888
   50MOL   C13530613   6.422   3.052   3.654  0.2425 -0.2625 -0.4410
   50MOL   C13630614   6.198   2.788   2.700 -0.5385 -0.0404  0.2354
   50MOL   H13730615   6.010   2.859   2.650  1.9564  0.5212 -2.2668
   50MOL   H13830616   5.977   2.823   2.897  0.7375  0.2885  2.0951
   50MOL   H13930617   5.873   2.952   2.840  1.1048 -0.5188 -1.8251
   50MOL   H14030618   5.922   2.969   3.087  2.3826 -0.8249  2.3491
   50MOL   H14130619   6.007   3.101   3.021 -0.3965 -0.8368  1.2061
   50MOL   H14230620   6.118   2.822   3.094  0.2517  0.2628 -0.0813
   50MOL   H14330621   6.214   2.946   3.036 -1.6918  2.1597 -2.5656
   50MOL   H14430622   6.141   3.099   3.237  0.0265 -0.2271  2.2035
   50MOL   H14530623   6.039   2.970   3.285 -1.9181  1.0800 -3.4539
   50MOL   H14630624   6.254   2.836   3.338 -2.0565  0.6691  2.4155
   50MOL   H14730625   6.346   2.959   3.258 -2.1503  0.0506 -3.2409
   50MOL   H14830626   6.171   2.979   3.507  0.1852 -0.4784 -0.7932
   50MOL   H14930627   6.256   3.116   3.455  0.1771 -0.3082  1.1816
   50MOL   H15030628   6.366   2.855   3.575 -0.5462  0.8167  1.9857
   50MOL   H15130629   6.474   2.956   3.472 -0.5273 -1.0175 -0.1154
   50MOL   H15230630   6.452   3.154   3.627  1.3871 -0.5097 -0.1557
   50MOL   H15330631   6.500   3.006   3.714 -0.1078  1.0300  1.0331
   50MOL   H15430632   6.344   3.060   3.729  0.8705 -0.1575  0.2076
   50MOL   H15530633   6.299   2.825   2.688 -0.0003 -1.5661 -0.0734
   50MOL   H15630634   6.181   2.753   2.802 -0.4056  0.1908  0.3362
   50MOL   C15730635   6.184   2.666   2.602 -0.4052  0.9091 -0.6310
   50MOL   O15830636   6.050   2.629   2.597  0.8669  0.3712  0.0112
   50MOL   C15930637   6.010   2.623   2.463 -0.5092 -0.0052 -0.2357
   50MOL   C16030638   5.861   2.589   2.452 -0.1859  0.5696  0.4105
   50MOL   C16130639   5.769   2.694   2.512 -0.2506 -0.9946 -0.4403
   50MOL   C16230640   5.622   2.648   2.530  0.3992 -0.6095 -0.4930
   50MOL   C16330641   5.555   2.619   2.400  0.1537 -0.2829  0.9946
   50MOL   C16430642   5.418   2.547   2.432 -0.8938  0.1509 -0.5569
   50MOL   C16530643   5.348   2.496   2.299 -0.2580  1.0086 -0.0417
   50MOL   C16630644   5.409   2.357   2.246 -0.4676  0.3233 -0.3499
   50MOL   C16730645   6.252   2.541   2.664 -0.7024 -0.2937  0.3577
   50MOL   H16830646   6.237   2.682   2.508  0.6221 -3.0160 -0.7995
   50MOL   H16930647   6.073   2.549   2.413  0.2153  0.0098  0.6562
   50MOL   H17030648   6.030   2.721   2.419 -0.5520 -0.2986 -0.9262
   50MOL   H17130649   5.863   2.508   2.525  0.3134 -0.9174 -1.2213
   50MOL   H17230650   5.822   2.542   2.362 -2.1759  2.6668  0.1372
   50MOL   H17330651   5.807   2.734   2.606  2.2562  0.3746 -1.9769
   50MOL   H17430652   5.773   2.781   2.445  0.3329 -0.7903 -0.1441
   50MOL   H17530653   5.616   2.578   2.613 -0.8111 -0.8806 -0.8059
   50MOL   H17630654   5.552   2.718   2.575 -2.5146 -2.1384 -2.4899
   50MOL   H17730655   5.536   2.707   2.339  1.2457 -0.6508  0.0985
   50MOL   H17830656   5.613   2.551   2.338  1.4560 -0.1897  2.0820
   50MOL   H17930657   5.356   2.628   2.471  1.1728  1.5780 -0.1395
   50MOL   H18030658   5.426   2.464   2.501  0.2221  0.1509 -0.6770
   50MOL   H18130659   5.243   2.485   2.325 -0.0913  1.3933  0.8419
   50MOL   H18230660   5.358   2.571   2.221 -0.8388  0.6781 -0.4345
   50MOL   H18330661   5.356   2.321   2.158  0.5068  0.7087 -1.1026
   50MOL   H18430662   5.396   2.294   2.334 -0.3593  0.8237  0.0241
   50MOL   H18530663   5.516   2.354   2.227 -0.1751 -2.6646  1.5558
   50MOL   H18630664   6.231   2.538   2.771  2.5032 -0.7487  1.0065
   50MOL   H18730665   6.200   2.454   2.625 -2.9213  0.1596  2.1820
   50MOL   C18830666   6.398   2.527   2.646 -0.5243  0.1668 -0.0553
   50MOL   O18930667   6.417   2.506   2.507 -0.1762  0.1049  0.0448
   50MOL   C19030668   6.552   2.501   2.450 -0.4935  0.2582 -0.3628
   50MOL   C19130669   6.541   2.479   2.299  0.4016  0.4324  0.5193
   50MOL   C19230670   6.444   2.576   2.234 -0.4424 -0.5480 -0.2976
   50MOL   C19330671   6.447   2.575   2.074  0.2351  0.4690  0.4881
   50MOL   C19430672   6.352   2.681   2.019 -0.2366  0.6168  0.4709
   50MOL   C19530673   6.350   2.673   1.864 -0.4716  0.5926  0.3455
   50MOL   C19630674   6.258   2.770   1.792  0.0209 -0.1109  0.2978
   50MOL   C19730675   6.277   2.759   1.640  1.2148 -0.1046 -0.9015
   50MOL   C19830676   6.452   2.406   2.728 -0.3609 -0.2123 -0.2126
   50MOL   H19930677   6.447   2.619   2.678 -0.4160 -0.6510  2.1546
   50MOL   H20030678   6.597   2.599   2.467  1.3399 -0.7515  0.8353
   50MOL   H20130679   6.621   2.434   2.501  1.7845  0.2569 -3.3068
   50MOL   H20230680   6.515   2.377   2.271 -2.0606  1.7334 -2.2926
   50MOL   H20330681   6.645   2.479   2.268  0.3213 -0.5103  0.2438
   50MOL   H20430682   6.342   2.564   2.271 -0.7411  2.4089 -0.0265
   50MOL   H20530683   6.467   2.679   2.263 -0.6143 -1.1027  1.8834
   50MOL   H20630684   6.545   2.585   2.027  0.3697 -0.0580  0.6411
   50MOL   H20730685   6.417   2.473   2.051 -0.2410  0.7154  0.0266
   50MOL   H20830686   6.257   2.662   2.069 -1.5840 -0.4332 -2.3464
   50MOL   H20930687   6.404   2.773   2.044  0.8829  1.0893 -3.2830
   50MOL   H21030688   6.331   2.574   1.824 -1.4457  1.7125 -2.0686
   50MOL   H21130689   6.454   2.688   1.835 -0.7595 -1.8550 -2.1311
   50MOL   H21230690   6.153   2.745   1.810 -0.4495  0.0710 -2.0342
   50MOL   H21330691   6.268   2.870   1.835 -2.3314 -0.6584  2.2202
   50MOL   H21430692   6.320   2.660   1.627 -1.0294 -1.4345  1.3907
   50MOL   H21530693   6.353   2.834   1.615 -1.2568  2.3330 -1.4341
   50MOL   H21630694   6.195   2.793   1.577 -0.9646 -0.3381  1.7249
   50MOL   H21730695   6.396   2.315   2.707 -1.1037  0.1634  0.1378
   50MOL   H21830696   6.553   2.385   2.693  0.1563  0.5973  0.7856
   50MOL   C21930697   6.447   2.424   2.882 -0.3381  0.1790  0.2939
   50MOL   O22030698   6.513   2.544   2.915 -0.3920  0.2937  0.1180
   50MOL   C22130699   6.434   2.648   2.970  0.1673 -0.1508 -0.2866
   50MOL   C22230700   6.525   2.741   3.051  0.1288  0.5061 -0.0356
   50MOL   C22330701   6.582   2.683   3.178 -0.2682 -0.9467  0.4256
   50MOL   C22430702   6.699   2.757   3.235 -0.5664  0.1420  0.5648
   50MOL   C22530703   6.738   2.697   3.374 -0.3859 -0.1814  0.6561
   50MOL   C22630704   6.843   2.784   3.444  0.5963 -0.2583 -0.7211
   50MOL   C22730705   6.883   2.731   3.584 -0.1299  0.6375 -0.5621
   50MOL   C22830706   6.785   2.748   3.702  0.2967 -0.5121 -0.3815
   50MOL   C22930707   6.522   2.303   2.949 -0.1437 -0.2504  0.4371
   50MOL   H23030708   6.340   2.428   2.904  0.1587  0.4852  2.8281
   50MOL   H23130709   6.362   2.607   3.040 -1.0396 -0.8666 -1.9089
   50MOL   H23230710   6.380   2.685   2.882  0.4571 -0.0843 -0.4385
   50MOL   H23330711   6.479   2.831   3.091 -0.4831  0.8999 -1.5636
   50MOL   H23430712   6.607   2.768   2.984 -0.5467 -0.4594 -1.2619
   50MOL   H23530713   6.510   2.658   3.255 -0.0019  0.6844  1.2152
   50MOL   H23630714   6.629   2.588   3.151  2.1312 -0.8118  3.8694
   50MOL   H23730715   6.785   2.747   3.168  0.1032  1.3858  1.2146
   50MOL   H23830716   6.682   2.864   3.250 -1.4743  0.0774 -0.0175
   50MOL   H23930717   6.650   2.689   3.438 -0.8146  0.3309  0.1371
   50MOL   H24030718   6.784   2.601   3.354 -1.2992 -0.8237  1.5723
   50MOL   H24130719   6.805   2.885   3.457  1.0331 -0.1481 -0.2854
   50MOL   H24230720   6.936   2.794   3.389  2.4244 -0.2156  2.2601
   50MOL   H24330721   6.916   2.627   3.579  3.4610  1.7063 -0.4554
   50MOL   H24430722   6.985   2.756   3.612  0.2976 -0.2862 -1.2685
   50MOL   H24530723   6.704   2.675   3.710  1.2763 -1.6401 -0.6506
   50MOL   H24630724   6.737   2.844   3.685  0.0408 -0.6061 -0.1982
   50MOL   H24730725   6.834   2.758   3.799  1.9922 -0.2790 -1.2387
   50MOL   H24830726   6.483   2.209   2.911  0.5310  0.0214 -0.9631
   50MOL   H24930727   6.625   2.314   2.913 -0.2420  2.3038  0.8618
   50MOL   C25030728   6.526   2.301   3.107 -0.2862  0.0917 -0.0476
   50MOL   O25130729   6.656   2.268   3.152  0.3984 -0.1769 -0.3663
   50MOL   C25230730   6.690   2.290   3.294 -0.4507  0.0203 -0.4546
   50MOL   C25330731   6.834   2.232   3.327  0.7370 -0.5312 -0.1867
   50MOL   C25430732   6.898   2.257   3.471 -0.7675 -0.9869  0.2296
   50MOL   C25530733   7.037   2.205   3.492  0.0862  0.6006  0.0823
   50MOL   C25630734   7.109   2.257   3.614 -0.4085 -0.3925 -0.6541
   50MOL   C25730735   7.264   2.233   3.609 -0.3452  0.7936  0.1273
   50MOL   C25830736   7.340   2.277   3.734  0.9622 -0.7717 -0.3175
   50MOL   C25930737   7.483   2.233   3.729 -1.2158 -0.2577  0.6104
   50MOL   C26030738   6.420   2.202   3.164 -0.0749 -0.6141  0.6287
   50MOL   H26130739   6.501   2.402   3.139  0.1466  0.6532 -1.4622
   50MOL   H26230740   6.625   2.247   3.371  0.2136  0.2438  0.2313
   50MOL   H26330741   6.684   2.397   3.311  0.7835  0.0747 -0.2834
   50MOL   H26430742   6.897   2.276   3.249  0.0656  0.1956 -0.3277
   50MOL   H26530743   6.832   2.125   3.306  4.0404 -0.5610 -0.6543
   50MOL   H26630744   6.902   2.363   3.497 -1.1973 -0.8661 -0.1801
   50MOL   H26730745   6.834   2.215   3.549 -0.9896  0.9697  1.1326
   50MOL   H26830746   7.026   2.097   3.497  2.5935  0.3633  1.5646
   50MOL   H26930747   7.093   2.224   3.401  0.1479  0.3386  0.0668
   50MOL   H27030748   7.093   2.363   3.633  2.2836 -0.3031  1.4669
   50MOL   H27130749   7.059   2.205   3.696 -2.3858 -1.2293 -2.3281
   50MOL   H27230750   7.315   2.254   3.515  0.1327 -2.9625 -0.5217
   50MOL   H27330751   7.267   2.126   3.625 -0.6136  0.8877  0.8648
   50MOL   H27430752   7.342   2.386   3.728 -2.1485 -0.5572  1.3594
   50MOL   H27530753   7.283   2.265   3.826 -0.2510  4.3772 -0.2134
   50MOL   H27630754   7.526   2.243   3.629  1.5252 -3.6397  1.3716
   50MOL   H27730755   7.504   2.128   3.745 -0.3055 -0.2440 -0.4564
   50MOL   H27830756   7.545   2.284   3.803 -1.0791 -0.9571  0.9792
   50MOL   H27930757   6.436   2.105   3.118  0.4629 -0.9980  1.6072
   50MOL   H28030758   6.441   2.176   3.268 -1.7651 -1.7179  0.7138
   50MOL   C28130759   6.266   2.231   3.156  0.3723 -0.6633  0.5526
   50MOL   O28230760   6.260   2.351   3.227 -1.1193  0.2156 -0.0788
   50MOL   C28330761   6.139   2.427   3.221 -0.3161 -0.2532 -0.1257
   50MOL   C28430762   6.147   2.520   3.333  0.2356 -0.3187 -0.0857
   50MOL   C28530763   6.039   2.631   3.348  0.0272  0.2365  0.1881
   50MOL   C28630764   5.892   2.577   3.355 -0.2627 -0.3346 -0.5653
   50MOL   C28730765   5.794   2.687   3.387 -0.7553  0.8962 -0.0595
   50MOL   C28830766   5.644   2.646   3.395 -0.5598 -0.3989 -0.3146
   50MOL   C28930767   5.618   2.522   3.492  0.3973  0.2844  0.6475
   50MOL   C29030768   5.470   2.512   3.542 -0.3675 -0.4342  0.0251
   50MOL   C29130769   6.177   2.129   3.225  0.0072  0.2108  0.1741
   50MOL   H29230770   6.237   2.253   3.053  0.3447 -0.6189  0.5697
   50MOL   H29330771   6.042   2.378   3.218  0.3091 -1.4351 -2.0172
   50MOL   H29430772   6.147   2.479   3.125 -1.6601  1.3618  0.6290
   50MOL   H29530773   6.243   2.568   3.311 -0.2000  0.2569 -0.7479
   50MOL   H29630774   6.151   2.462   3.426 -0.1354 -1.3602 -0.7148
   50MOL   H29730775   6.055   2.695   3.434  1.1707  0.7382 -0.3950
   50MOL   H29830776   6.050   2.697   3.262  2.1295 -2.4525 -1.7314
   50MOL   H29930777   5.866   2.524   3.263  0.6786  0.7930 -1.4953
   50MOL   H30030778   5.888   2.502   3.434  0.0358 -1.0666 -1.2386
   50MOL   H30130779   5.815   2.749   3.474 -0.6179  0.9953 -0.1622
   50MOL   H30230780   5.810   2.756   3.304  4.5872 -0.6340 -0.4943
   50MOL   H30330781   5.617   2.620   3.293 -1.5416 -2.3163  0.4128
   50MOL   H30430782   5.570   2.722   3.424 -0.8115 -0.5706 -0.5034
   50MOL   H30530783   5.646   2.431   3.438 -0.1588  0.6570 -0.2867
   50MOL   H30630784   5.684   2.527   3.578  0.8101 -2.0467  0.5029
   50MOL   H30730785   5.400   2.468   3.471 -0.5747 -0.9338  0.5371
   50MOL   H30830786   5.429   2.613   3.552  1.8435  0.5936 -0.9862
   50MOL   H30930787   5.464   2.453   3.633  1.3995 -0.7031 -0.0150
   50MOL   H31030788   6.233   2.037   3.245  0.0412  0.3750  0.8432
   50MOL   H31130789   6.159   2.165   3.326  1.0725 -2.3407  1.3295
   50MOL   C31230790   6.050   2.094   3.148 -0.4313 -0.3109  0.0051
   50MOL   O31330791   5.958   2.045   3.244  0.2594  0.1941 -0.2052
   50MOL   C31430792   5.828   2.102   3.228 -0.2019 -0.3486 -0.2220
   50MOL   C31530793   5.734   2.029   3.324 -0.5802  0.7229 -0.2935
   50MOL   C31630794   5.590   2.086   3.295 -0.0309 -0.4874 -0.3422
   50MOL   C31730795   5.491   2.044   3.405 -0.6417  0.6006  0.5905
   50MOL   C31830796   5.515   2.113   3.543 -0.7501  0.3459  0.5384
   50MOL   C31930797   5.424   2.056   3.653  0.2971 -0.6775 -0.1885
   50MOL   C32030798   5.429   2.129   3.784 -0.2932 -0.3410 -0.8056
   50MOL   C32130799   5.319   2.084   3.878 -0.3864 -0.3617 -0.3177
   50MOL   C32230800   6.076   1.984   3.037  0.3971  0.3987  0.5353
   50MOL   H32330801   6.008   2.181   3.098  1.2117 -0.6013 -2.0081
   50MOL   H32430802   5.801   2.098   3.122 -0.0409 -1.5680 -0.2183
   50MOL   H32530803   5.841   2.208   3.250  0.6402 -1.2483  3.9577
   50MOL   H32630804   5.767   2.053   3.425  0.3186  0.2289 -0.4591
   50MOL   H32730805   5.738   1.920   3.323  0.5183  0.7573 -1.4864
   50MOL   H32830806   5.582   2.195   3.295 -1.9848 -0.6063 -0.6206
   50MOL   H32930807   5.557   2.052   3.197  1.7718  1.4294 -1.6475
   50MOL   H33030808   5.394   2.070   3.365 -0.6834 -0.6576 -0.1386
   50MOL   H33130809   5.482   1.936   3.417 -1.3903  0.3784 -1.8307
   50MOL   H33230810   5.620   2.107   3.571 -0.4567  0.2638 -0.5721
   50MOL   H33330811   5.502   2.221   3.527  1.7903  0.4230 -1.1817
   50MOL   H33430812   5.447   1.951   3.667 -0.5032 -1.3558 -3.6627
   50MOL   H33530813   5.322   2.074   3.620  0.2397 -0.1568  0.2512
   50MOL   H33630814   5.523   2.100   3.832 -1.0961 -0.4009  0.7879
   50MOL   H33730815   5.421   2.237   3.780  0.9033 -0.0683  2.5349
   50MOL   H33830816   5.304   1.976   3.881 -1.3952 -0.2087  0.4271
   50MOL   H33930817   5.230   2.134   3.840 -0.4393 -0.3310 -0.1547
   50MOL   H34030818   5.330   2.117   3.982  1.7391 -1.4831 -0.1765
   50MOL   H34130819   6.131   1.902   3.083 -0.7573  0.8812  2.8232
   50MOL   H34230820   5.974   1.952   3.014  0.8722 -1.4168  0.8837
   50MOL   C34330821   6.134   2.011   2.899  0.1662  0.1912  0.3911
   50MOL   O34430822   6.042   2.098   2.832  0.2184  0.0105  0.0541
   50MOL   C34530823   6.099   2.172   2.723 -0.0420 -0.1837 -0.3465
   50MOL   C34630824   5.977   2.253   2.662 -1.1803 -1.1834 -0.1365
   50MOL   C34730825   5.888   2.325   2.770  0.0447  0.2220  0.6163
   50MOL   C34830826   5.954   2.432   2.854  0.3032  0.0559 -0.0153
   50MOL   C34930827   5.862   2.496   2.958  0.6120  0.5077 -0.5860
   50MOL   C35030828   5.761   2.590   2.896  0.1594  0.0072 -0.4247
   50MOL   C35130829   5.691   2.682   3.006 -0.0026 -0.5261  0.4078
   50MOL   C35230830   5.605   2.786   2.936  0.8842 -0.1020 -0.4210
   50MOL   C35330831   6.167   1.885   2.818 -0.0907  0.0337 -0.1982
   50MOL   H35430832   6.221   2.075   2.911 -0.8082  1.6703 -0.2393
   50MOL   H35530833   6.124   2.099   2.646  0.7389 -2.5207  2.0283
   50MOL   H35630834   6.181   2.237   2.753  0.8688 -0.8946 -1.2550
   50MOL   H35730835   5.906   2.186   2.614 -0.9318  0.7866 -3.3475
   50MOL   H35830836   6.006   2.316   2.578  0.8041 -0.6877  0.8879
   50MOL   H35930837   5.803   2.370   2.719 -1.4041 -1.2162  1.6703
   50MOL   H36030838   5.837   2.257   2.839 -1.6404  2.4465  1.6429
   50MOL   H36130839   6.034   2.388   2.913  0.5427 -0.9414 -1.0695
   50MOL   H36230840   6.007   2.497   2.784  3.1467 -0.5987  1.4377
   50MOL   H36330841   5.823   2.417   3.022  1.2613  0.9034  0.3132
   50MOL   H36430842   5.935   2.560   3.008  1.0852 -0.6412  0.2102
   50MOL   H36530843   5.691   2.531   2.837  0.9758 -0.5618 -0.8327
   50MOL   H36630844   5.803   2.660   2.823  1.4396 -0.2106  0.1003
   50MOL   H36730845   5.641   2.611   3.072 -1.2046  0.9557  1.1297
   50MOL   H36830846   5.755   2.750   3.063  1.6022 -0.6454 -1.2041
   50MOL   H36930847   5.665   2.851   2.874  0.7846  1.5488  1.1793
   50MOL   H37030848   5.550   2.849   3.006  1.7202 -0.8943  0.9685
   50MOL   H37130849   5.526   2.752   2.869  0.6871  3.0608 -1.8716
   50MOL   H37230850   6.124   1.795   2.861  1.0428 -0.3410  0.1850
   50MOL   H37330851   6.122   1.887   2.719 -1.1373  0.6753  0.2805
   50MOL   C37430852   6.318   1.869   2.801  0.1071 -0.3537 -0.1249
   50MOL   O37530853   6.332   1.757   2.724 -0.1116  0.5952 -0.0763
   50MOL   C37630854   6.356   1.780   2.585 -0.8902 -0.2675  0.1563
   50MOL   C37730855   6.370   1.639   2.518  0.4100  0.6303 -0.5471
   50MOL   C37830856   6.376   1.651   2.371 -0.2209 -0.7587 -0.3789
   50MOL   C37930857   6.379   1.528   2.283  0.1294  0.1429  0.4100
   50MOL   C38030858   6.524   1.476   2.266 -0.2603  0.0804 -0.6546
   50MOL   C38130859   6.533   1.379   2.144  0.3742 -0.1301 -0.4592
   50MOL   C38230860   6.671   1.349   2.088 -0.4351  0.3735 -0.2263
   50MOL   C38330861   6.668   1.239   1.976  0.1886  0.0842 -0.9847
   50MOL   C38430862   6.391   1.831   2.935 -0.8271  0.1913  0.1500
   50MOL   H38530863   6.350   1.955   2.742  1.2370 -0.3697  0.4521
   50MOL   H38630864   6.446   1.840   2.576 -1.7656  1.2240  1.1464
   50MOL   H38730865   6.279   1.839   2.536 -1.5767 -0.0480  1.4664
   50MOL   H38830866   6.290   1.569   2.543  2.1221 -1.2657 -0.2499
   50MOL   H38930867   6.456   1.585   2.559 -0.2929  0.3898  0.6091
   50MOL   H39030868   6.292   1.709   2.333  0.0346  1.2450  2.0262
   50MOL   H39130869   6.455   1.723   2.347 -0.9090  0.1169 -0.0081
   50MOL   H39230870   6.305   1.463   2.328 -0.6254  1.0724  0.5120
   50MOL   H39330871   6.348   1.557   2.182 -1.4138 -1.9701  0.2518
   50MOL   H39430872   6.590   1.562   2.253 -1.0836  0.6672 -1.0222
   50MOL   H39530873   6.559   1.421   2.353  1.8300  1.9083 -0.2966
   50MOL   H39630874   6.469   1.414   2.063 -1.2976  1.1166  1.3437
   50MOL   H39730875   6.496   1.278   2.160 -1.0259  0.3388 -0.6903
   50MOL   H39830876   6.710   1.443   2.047 -2.8623  0.6151 -2.1292
   50MOL   H39930877   6.735   1.325   2.172 -0.8501 -1.3370 -0.3918
   50MOL   H40030878   6.615   1.277   1.888 -1.6835  0.6129  0.3659
   50MOL   H40130879   6.630   1.145   2.015  1.1402  1.3411  3.1753
   50MOL   H40230880   6.774   1.218   1.961  0.6467  0.2196  1.9171
   50MOL   H40330881   6.393   1.912   3.008  1.7581  0.7673 -0.5030
   50MOL   H40430882   6.335   1.756   2.990 -0.2570 -1.9082 -2.0207
   50MOL   C40530883   6.536   1.775   2.923 -0.1809  0.0459  0.1928
   50MOL   O40630884   6.582   1.743   3.058  0.1947  0.4818 -0.3240
   50MOL   C40730885   6.646   1.611   3.072 -0.0726  0.0614 -0.1949
   50MOL   C40830886   6.725   1.601   3.207 -0.0160 -0.2496 -0.6601
   50MOL   C40930887   6.856   1.673   3.195 -0.7386 -0.6746  0.2656
   50MOL   C41030888   6.957   1.643   3.305  0.1866 -0.2387  0.0201
   50MOL   C41130889   7.092   1.711   3.294 -0.1324  0.6806  0.7606
   50MOL   C41230890   7.093   1.866   3.292 -0.0390  0.0339  0.6210
   50MOL   C41330891   7.232   1.932   3.292  0.6729 -0.1373  0.1477
   50MOL   C41430892   7.323   1.909   3.420 -0.0584 -0.2073  0.0763
   50MOL   C41530893   6.645   1.863   2.857  0.1802 -0.1611  0.8567
   50MOL   H41630894   6.535   1.680   2.869 -0.0350 -0.8001  1.6568
   50MOL   H41730895   6.720   1.590   2.993  0.5629  2.8127 -0.3724
   50MOL   H41830896   6.566   1.537   3.069  0.5172 -0.6253  0.8236
   50MOL   H41930897   6.743   1.494   3.213 -2.5855 -0.6785 -0.3171
   50MOL   H42030898   6.660   1.632   3.288  0.6609 -2.2910  0.6953
   50MOL   H42130899   6.910   1.648   3.104  1.5950  1.0286  1.1280
   50MOL   H42230900   6.833   1.779   3.187  1.5075 -0.1494  0.4596
   50MOL   H42330901   6.901   1.659   3.397  2.6075 -0.9318  1.6514
   50MOL   H42430902   6.991   1.540   3.304 -0.2924 -0.4099 -2.9005
   50MOL   H42530903   7.161   1.679   3.372 -0.4313 -0.5338  0.5414
   50MOL   H42630904   7.142   1.685   3.201 -0.2767 -2.8821  1.6162
   50MOL   H42730905   7.025   1.903   3.368  0.2564 -1.3111  1.5615
   50MOL   H42830906   7.029   1.884   3.206  0.5987 -1.5272 -0.2051
   50MOL   H42930907   7.280   1.887   3.205  1.4199  0.3150  0.3242
   50MOL   H43030908   7.226   2.038   3.266 -0.5196 -0.1317  0.3849
   50MOL   H43130909   7.386   1.997   3.436 -0.6860  0.5937 -1.6923
   50MOL   H43230910   7.384   1.819   3.415  0.4893  0.1765 -0.1797
   50MOL   H43330911   7.262   1.898   3.510  0.2808  2.7912  0.7596
   50MOL   H43430912   6.588   1.942   2.808 -2.6583 -1.3182  2.1518
   50MOL   H43530913   6.715   1.905   2.930  1.9152 -1.6534  0.0896
   50MOL   C43630914   6.725   1.799   2.742 -0.2492  0.5731 -0.0536
   50MOL   O43730915   6.790   1.681   2.789 -0.5872 -0.2056  0.2590
   50MOL   C43830916   6.806   1.581   2.690  0.6649  0.2299  0.1171
   50MOL   C43930917   6.877   1.463   2.757 -0.1764 -0.8300  0.1797
   50MOL   C44030918   6.856   1.326   2.684  0.5667 -0.3947 -0.2501
   50MOL   C44130919   6.911   1.337   2.544 -1.0154 -0.0207  0.4342
   50MOL   C44230920   6.872   1.216   2.456 -0.1908  0.0903  0.0110
   50MOL   C44330921   6.960   1.190   2.335 -0.0169  0.0287 -0.2929
   50MOL   C44430922   6.912   1.083   2.247 -0.0899  0.1243 -0.5249
   50MOL   C44530923   7.018   1.019   2.163 -0.1971 -0.6201  0.3045
   50MOL   C44630924   6.824   1.904   2.688 -0.0303  0.0706 -0.9009
   50MOL   H44730925   6.652   1.778   2.664 -1.0465  0.3408  0.7438
   50MOL   H44830926   6.704   1.545   2.672  1.3944 -2.9422  2.0497
   50MOL   H44930927   6.853   1.623   2.601 -0.2525  2.5092  0.6663
   50MOL   H45030928   6.838   1.457   2.859 -2.7448 -0.6605 -0.7530
   50MOL   H45130929   6.983   1.482   2.774  0.3024 -1.4734 -1.9878
   50MOL   H45230930   6.891   1.247   2.750  1.1258  1.9935  2.4425
   50MOL   H45330931   6.748   1.317   2.669  0.5152  0.2912 -0.3247
   50MOL   H45430932   6.882   1.429   2.492 -1.0350  0.7452  1.7768
   50MOL   H45530933   7.019   1.341   2.548 -1.0610  1.8610  0.1165
   50MOL   H45630934   6.872   1.123   2.514 -2.2247 -0.4443 -0.8111
   50MOL   H45730935   6.769   1.229   2.425 -0.3253 -1.0798 -0.0531
   50MOL   H45830936   7.051   1.150   2.380  0.2283  1.3963  0.4728
   50MOL   H45930937   6.983   1.273   2.269  0.7916 -1.6851 -2.1847
   50MOL   H46030938   6.856   1.010   2.307 -1.1075  0.5541 -0.9395
   50MOL   H46130939   6.843   1.138   2.182  1.4826  2.1731 -0.5084
   50MOL   H46230940   7.044   1.077   2.074 -2.2292 -0.3053 -0.1033
   50MOL   H46330941   6.984   0.920   2.131 -1.0771 -1.0364  2.4182
   50MOL   H46430942   7.114   0.997   2.209  1.1570 -1.0421 -2.5855
   50MOL   H46530943   6.898   1.922   2.766 -1.7192 -0.3936  0.8671
   50MOL   H46630944   6.885   1.870   2.605 -0.7550  1.1494 -1.9014
   50MOL   C46730945   6.778   2.039   2.639 -0.4558  0.3408  0.8030
   50MOL   O46830946   6.682   2.015   2.538  0.8550 -0.1119  0.0490
   50MOL   C46930947   6.581   2.112   2.535  0.2566 -0.5712  0.3917
   50MOL   C47030948   6.503   2.106   2.403  0.2162 -0.5476 -0.4877
   50MOL   C47130949   6.359   2.146   2.428  0.8202 -0.7480 -0.1502
   50MOL   C47230950   6.281   2.115   2.297  0.0566  0.4714 -0.1150
   50MOL   C47330951   6.139   2.185   2.308 -0.0534  0.0077 -0.3432
   50MOL   C47430952   6.049   2.190   2.180 -0.3173  0.0849  0.4240
   50MOL   C47530953   5.920   2.267   2.205  0.4843  0.0872 -0.0113
   50MOL   C47630954   5.825   2.186   2.288 -0.3252  0.3831 -0.1685
   50MOL   C47730955   6.888   2.128   2.578 -0.1085 -0.4722  0.5319
   50MOL   H47830956   6.734   2.096   2.721  3.7261  2.9510  1.3884
   50MOL   H47930957   6.631   2.209   2.538  2.4863 -1.5948 -1.4595
   50MOL   H48030958   6.520   2.087   2.621 -2.4815  1.4104 -0.9098
   50MOL   H48130959   6.487   1.999   2.391  0.5215 -0.6831  0.3102
   50MOL   H48230960   6.554   2.150   2.317 -3.2459  0.6465 -2.0174
   50MOL   H48330961   6.312   2.087   2.506 -0.0133 -3.5443 -2.6502
   50MOL   H48430962   6.356   2.248   2.465 -0.1677 -0.6296 -0.5482
   50MOL   H48530963   6.337   2.151   2.211  1.0466  1.1394  0.8056
   50MOL   H48630964   6.271   2.008   2.281  1.6557  0.3158 -0.0996
   50MOL   H48730965   6.089   2.138   2.393  0.0040  0.3116 -0.1406
   50MOL   H48830966   6.167   2.285   2.342  1.0915 -0.4938  0.2303
   50MOL   H48930967   6.013   2.092   2.147  1.0227 -0.0597 -0.6449
   50MOL   H49030968   6.111   2.235   2.102 -0.0268  0.5698  0.9303
   50MOL   H49130969   5.940   2.366   2.246 -0.8183 -0.2115  1.4358
   50MOL   H49230970   5.867   2.282   2.111 -0.5670  1.5317  0.7878
   50MOL   H49330971   5.821   2.083   2.253 -3.6963  0.0849  0.8842
   50MOL   H49430972   5.721   2.220   2.286 -0.9991 -0.8598  5.1004
   50MOL   H49530973   5.853   2.182   2.393  0.0859  0.0004 -0.2940
   50MOL   H49630974   6.937   2.062   2.508  0.1105 -1.0614  1.2404
   50MOL   H49730975   6.847   2.205   2.511 -0.1696 -1.2199 -0.2987
   50MOL   C49830976   6.981   2.191   2.681 -0.1688  0.2311  0.5492
   50MOL   O49930977   6.933   2.323   2.706 -0.6104 -0.2777 -0.4527
   50MOL   C50030978   6.989   2.383   2.822  0.2760  0.3508 -0.0094
   50MOL   C50130979   6.904   2.509   2.826  0.3222 -0.0609 -0.1564
   50MOL   C50230980   6.947   2.609   2.721 -0.5665  0.1361  0.3330
   50MOL   C50330981   6.858   2.732   2.728 -0.2836 -0.4501 -0.2713
   50MOL   C50430982   6.892   2.843   2.630 -0.0932 -0.3837 -0.9832
   50MOL   C50530983   6.869   2.811   2.478 -0.2261  0.2020  0.6179
   50MOL   C50630984   6.890   2.948   2.396 -0.3642  0.1584  0.1376
   50MOL   C50730985   6.903   2.925   2.246  0.3908  0.2981 -0.2851
   50MOL   C50830986   7.128   2.201   2.626  0.2093 -0.3284  0.0075
   50MOL   H50930987   6.966   2.127   2.768  2.6370 -0.8225  0.3166
   50MOL   H51030988   7.096   2.401   2.820  0.3034  0.0837 -1.9771
   50MOL   H51130989   6.971   2.321   2.909 -3.3865  1.6925  0.2686
   50MOL   H51230990   6.902   2.562   2.921  1.4083  0.8599 -0.6342
   50MOL   H51330991   6.800   2.479   2.816 -0.2562  1.0576  2.1746
   50MOL   H51430992   7.052   2.634   2.709 -0.8007  1.1712  0.3892
   50MOL   H51530993   6.921   2.561   2.626  2.2094  1.5404 -1.1845
   50MOL   H51630994   6.755   2.700   2.709  0.0493 -1.7607  0.0699
   50MOL   H51730995   6.853   2.778   2.826 -1.5413 -1.3445  0.0958
   50MOL   H51830996   6.819   2.921   2.653 -0.9439 -0.7613 -2.3572
   50MOL   H51930997   6.991   2.881   2.657 -0.8584  0.8458  0.1841
   50MOL   H52030998   6.773   2.763   2.465  0.6324 -1.1315 -0.9362
   50MOL   H52130999   6.933   2.732   2.439 -1.3203 -0.3155 -0.1454
   50MOL   H52231000   6.816   3.024   2.419 -0.4302 -0.6455  2.7316
   50MOL   H52331001   6.979   3.001   2.431  0.0354 -0.5369  0.1962
   50MOL   H52431002   6.819   2.870   2.205  1.2105 -0.9634 -0.2934
   50MOL   H52531003   6.998   2.875   2.228  0.0933  0.3772 -2.1335
   50MOL   H52631004   6.902   3.020   2.193 -0.9514  0.4017 -0.0903
   50MOL   H52731005   7.125   2.201   2.517 -1.2521  0.3706  0.0391
   50MOL   H52831006   7.164   2.302   2.647 -0.0437  0.3201 -2.4942
   50MOL   C52931007   7.213   2.088   2.666 -0.2867 -0.0452 -0.0145
   50MOL   O53031008   7.260   2.127   2.794 -0.2985  0.5730  0.8746
   50MOL   C53131009   7.331   2.023   2.868 -0.0414 -0.5691  0.0277
   50MOL   C53231010   7.430   2.104   2.956  0.0406 -0.7748  0.3611
   50MOL   C53331011   7.525   2.013   3.036 -0.5801 -0.2619  0.4181
   50MOL   C53431012   7.621   2.095   3.121  0.7060 -0.1444  0.0372
   50MOL   C53531013   7.762   2.101   3.046 -0.2672  0.6467 -0.2944
   50MOL   C53631014   0.065   1.970   3.064 -0.0337 -0.0065  0.2742
   50MOL   C53731015   0.186   1.966   2.966  0.4483  0.1813 -0.2845
   50MOL   C53831016   0.253   1.832   2.945 -0.1061  0.5644  0.0130
   50MOL   C53931017   7.321   2.062   2.560 -1.0023 -0.2170 -0.5052
   50MOL   H54031018   7.150   1.999   2.676  1.1915 -1.0041  1.1390
   50MOL   H54131019   7.262   1.969   2.932  0.8764 -0.1152  1.4118
   50MOL   H54231020   7.376   1.938   2.816 -1.2604 -1.2574  0.0854
   50MOL   H54331021   7.378   2.176   3.018  0.2945 -0.2984  0.0225
   50MOL   H54431022   7.487   2.170   2.891  0.5586  0.5782  2.1503
   50MOL   H54531023   7.462   1.944   3.092 -2.1439  0.5732 -0.2670
   50MOL   H54631024   7.587   1.949   2.973 -1.1444  0.0834 -0.4960
   50MOL   H54731025   7.586   2.193   3.152  0.0546 -0.5685  0.6692
   50MOL   H54831026   7.635   2.040   3.214 -0.1488  1.1295  0.9302
   50MOL   H54931027   7.749   2.123   2.940 -0.8011  3.3480  0.2928
   50MOL   H55031028   0.038   2.192   3.080 -2.9651  2.1176 -0.1405
   50MOL   H55131029   0.007   1.880   3.046  1.1714 -0.4931 -1.3136
   50MOL   H55231030   0.091   1.961   3.170  2.2653  2.4486 -0.0229
   50MOL   H55331031   0.160   2.003   2.867  2.5733  0.5853 -0.7152
   50MOL   H55431032   0.268   2.032   2.993  0.6033 -0.2052  0.1894
   50MOL   H55531033   0.278   1.791   3.043 -1.7682 -0.8479 -0.1361
   50MOL   H55631034   0.347   1.834   2.889  0.4597  1.2410  0.9758
   50MOL   H55731035   0.200   1.757   2.886  3.5109 -1.2104 -1.1382
   50MOL   H55831036   7.353   2.157   2.517  0.5565 -0.6637 -0.3595
   50MOL   H55931037   7.410   2.020   2.606 -2.1076 -0.4645  1.4637
   50MOL   C56031038   7.269   1.964   2.450  0.0221 -0.4080  0.6718
   50MOL   O56131039   7.300   1.828   2.496  0.2785  0.1654  0.3148
   50MOL   C56231040   7.194   1.732   2.485  0.2154  0.8092  0.0605
   50MOL   C56331041   7.233   1.607   2.563  0.8604 -0.8781  0.1429
   50MOL   C56431042   7.230   1.627   2.713 -0.1117  0.0289  0.6024
   50MOL   C56531043   7.263   1.504   2.796  0.1191 -0.0886 -0.5503
   50MOL   C56631044   7.258   1.514   2.944 -0.6306  0.3045 -0.0111
   50MOL   C56731045   7.311   1.388   3.015 -0.3672 -0.5068  0.7610
   50MOL   C56831046   7.326   1.406   3.167  0.8742 -0.0102  0.1056
   50MOL   C56931047   7.461   1.472   3.196 -0.2433  0.4407 -0.2759
   50MOL   C57031048   7.330   1.979   2.313 -0.3292  0.2587  0.3349
   50MOL   H57131049   7.162   1.987   2.443 -0.1727 -1.4382  0.1891
   50MOL   H57231050   7.178   1.721   2.378  0.7727 -2.2712  0.2441
   50MOL   H57331051   7.110   1.783   2.532  0.5397  2.2096 -0.8485
   50MOL   H57431052   7.330   1.561   2.541  0.3308 -1.7454 -0.4073
   50MOL   H57531053   7.157   1.531   2.549  1.7101 -1.3612 -2.2700
   50MOL   H57631054   7.300   1.706   2.740 -0.2435  0.9087 -1.5493
   50MOL   H57731055   7.129   1.661   2.740 -0.3532 -2.7225  3.4392
   50MOL   H57831056   7.197   1.422   2.768 -0.1792 -0.0071 -0.1010
   50MOL   H57931057   7.364   1.471   2.774  0.6186 -1.2675  3.2013
   50MOL   H58031058   7.324   1.595   2.974 -0.5677  0.8111 -1.4890
   50MOL   H58131059   7.151   1.521   2.964 -0.8925 -1.3516 -0.7695
   50MOL   H58231060   7.404   1.353   2.970 -0.3275  1.8646 -1.0742
   50MOL   H58331061   7.238   1.314   2.983 -0.9536  1.1393 -1.8305
   50MOL   H58431062   7.234   1.463   3.179 -0.1216 -1.0836 -2.1779
   50MOL   H58531063   7.336   1.306   3.207 -0.8528 -0.7306 -1.2252
   50MOL   H58631064   7.476   1.456   3.302  1.6079 -1.3806 -0.7638
   50MOL   H58731065   7.483   1.572   3.158 -0.8504  1.0239  0.8968
   50MOL   H58831066   7.523   1.404   3.136 -0.0501  2.1454 -2.0841
   50MOL   H58931067   7.437   1.989   2.333 -0.3520  0.6003  0.2765
   50MOL   H59031068   7.303   1.896   2.248 -4.9223  0.9397  1.2211
   50MOL   C59131069   7.302   2.116   2.243  0.2962 -0.5381  0.7725
   50MOL   O59231070   7.163   2.127   2.227 -0.4945 -0.4530 -0.0570
   50MOL   C59331071   7.121   2.252   2.177  0.1821  0.0487 -0.2647
   50MOL   C59431072   6.968   2.256   2.194  0.5580  0.3760  0.4652
   50MOL   C59531073   6.881   2.184   2.093 -0.6261 -0.1038  0.1422
   50MOL   C59631074   6.743   2.246   2.077  0.6339 -0.4158 -0.5108
   50MOL   C59731075   6.681   2.189   1.952  0.6949  0.1946  0.1338
   50MOL   C59831076   6.547   2.255   1.911 -0.7871  0.6171 -0.6980
   50MOL   C59931077   6.473   2.178   1.808 -0.0412 -0.2027 -0.3002
   50MOL   C60031078   6.360   2.260   1.754  0.1770  0.6544 -0.7091
   50MOL   C60131079   7.385   2.113   2.109  0.2042 -0.2414  0.4194
   50MOL   H60231080   7.339   2.196   2.307  1.4909 -0.9247  0.5809
   50MOL   H60331081   7.147   2.278   2.075  0.5515  0.4579 -0.0684
   50MOL   H60431082   7.168   2.333   2.232  0.3619 -1.0914  1.3013
   50MOL   H60531083   6.942   2.362   2.193 -0.5016  0.1222 -1.5959
   50MOL   H60631084   6.934   2.211   2.287 -1.0714  1.9228  0.6525
   50MOL   H60731085   6.939   2.195   2.002  0.1814  1.9182  0.8733
   50MOL   H60831086   6.875   2.077   2.113  1.7597 -0.5048 -1.0707
   50MOL   H60931087   6.675   2.237   2.160 -0.0847  0.7934 -0.9557
   50MOL   H61031088   6.761   2.350   2.052 -1.7648 -0.0286 -0.6991
   50MOL   H61131089   6.756   2.186   1.873  0.5516 -1.6295  0.0463
   50MOL   H61231090   6.655   2.085   1.971 -0.7340  0.0854 -2.1822
   50MOL   H61331091   6.571   2.358   1.886  1.0122  1.5959  4.4160
   50MOL   H61431092   6.487   2.259   2.003 -2.6535 -1.2151 -1.8040
   50MOL   H61531093   6.538   2.144   1.727 -0.7034  0.4972 -1.1350
   50MOL   H61631094   6.438   2.086   1.855  1.8060 -0.4891  0.5420
   50MOL   H61731095   6.293   2.189   1.705  1.4380  0.3596 -2.0218
   50MOL   H61831096   6.403   2.330   1.683 -0.1164 -1.2210 -2.8169
   50MOL   H61931097   6.294   2.307   1.827  0.3847 -1.7000  1.0516
   50MOL   H62031098   7.364   2.028   2.044  0.0440 -1.1002  1.5767
   50MOL   H62131099   7.361   2.212   2.071  1.6969  0.5161  1.4238
   50MOL   H62231100   7.494   2.112   2.114  0.2533  1.6328 -0.0709
   51MOL     C131101   1.261   3.354   3.339 -0.1679  0.9745 -0.1546
   51MOL     O231102   1.403   3.341   3.352 -0.0245  0.0846 -0.3057
   51MOL     C331103   1.452   3.414   3.465  0.6891  0.5003  0.2471
   51MOL     C431104   1.613   3.418   3.464 -0.0966  0.4231 -0.1042
   51MOL     C531105   1.669   3.530   3.555  0.4292  0.4460  0.3525
   51MOL     C631106   1.823   3.560   3.563 -0.0865  0.4118  0.2636
   51MOL     C731107   1.859   3.706   3.592  0.0794  0.0655 -1.0273
   51MOL     C831108   2.006   3.743   3.572 -0.5654  0.1120  0.2213
   51MOL     C931109   2.049   3.873   3.651 -0.4159 -0.5784 -0.3361
   51MOL    C1031110   2.197   3.897   3.642 -0.0225 -1.1218  0.0548
   51MOL    C1131111   1.211   3.252   3.235  0.0113  0.2028 -0.0982
   51MOL    H1231112   1.222   3.327   3.437  2.7384 -0.8898  0.5532
   51MOL    H1331113   1.414   3.370   3.557 -2.6949  2.2736 -0.2480
   51MOL    H1431114   1.414   3.516   3.465 -0.5362  0.0754  2.2130
   51MOL    H1531115   1.649   3.443   3.364  0.5104 -2.2676 -0.5943
   51MOL    H1631116   1.648   3.318   3.490 -0.4730 -0.8778 -4.2661
   51MOL    H1731117   1.624   3.628   3.537 -2.2321 -0.8244 -0.1636
   51MOL    H1831118   1.641   3.501   3.657  0.9505 -0.8353  0.1325
   51MOL    H1931119   1.877   3.496   3.632  0.0187 -1.1895 -1.2722
   51MOL    H2031120   1.853   3.534   3.461  2.0411 -1.0861  1.2314
   51MOL    H2131121   1.813   3.775   3.521 -1.6674 -1.4002 -1.3513
   51MOL    H2231122   1.828   3.736   3.692  3.3235 -0.4636  0.2013
   51MOL    H2331123   2.022   3.752   3.465  0.8576 -3.1493  0.1124
   51MOL    H2431124   2.069   3.662   3.608  2.2463  2.1471  0.0879
   51MOL    H2531125   1.995   3.958   3.609  1.0150 -1.2750 -3.7897
   51MOL    H2631126   2.024   3.879   3.757  0.0083  0.3566 -0.2821
   51MOL    H2731127   2.242   3.801   3.664  2.8905  0.0032 -0.7060
   51MOL    H2831128   2.224   3.982   3.705  2.7269 -0.5647 -1.8001
   51MOL    H2931129   2.227   3.919   3.540  1.2452 -0.0495  0.6441
   51MOL    H3031130   1.271   3.161   3.239 -0.0060  0.1911 -0.1072
   51MOL    H3131131   1.112   3.226   3.272  0.1990  0.5589  0.6664
   51MOL    H3231132   1.224   3.454   3.314 -0.5625  0.9057  0.1627
   51MOL    C3331133   1.192   3.315   3.097  0.0300  0.0104 -0.4466
   51MOL    O3431134   1.075   3.392   3.096  0.1036  0.1352  0.3856
   51MOL    C3531135   1.081   3.515   3.021 -0.4010 -0.5464  0.5519
   51MOL    C3631136   0.941   3.523   2.955  0.4163  0.0834 -0.0174
   51MOL    C3731137   0.895   3.662   2.905  0.2932  0.2551  0.4411
   51MOL    C3831138   0.748   3.690   2.872 -0.3481 -0.2456  0.0062
   51MOL    C3931139   0.705   3.831   2.862  0.3578 -0.8560  0.1263
   51MOL    C4031140   0.745   3.907   2.730  0.3227  0.0469  0.7239
   51MOL    C4131141   0.701   4.056   2.724  0.3832  0.0943  0.3091
   51MOL    C4231142   0.562   4.085   2.668 -0.2394  0.2939 -0.4878
   51MOL    C4331143   1.171   3.203   2.989  0.6911  0.0679  0.2224
   51MOL    H4431144   1.284   3.366   3.072  0.1310  1.4438  2.6499
   51MOL    H4531145   1.156   3.515   2.943 -1.8182 -0.2566 -0.8327
   51MOL    H4631146   1.093   3.595   3.095 -0.8424  0.5201 -0.5073
   51MOL    H4731147   0.870   3.495   3.034  0.5910 -1.1151 -0.2771
   51MOL    H4831148   0.931   3.446   2.879  0.5486  1.1916 -1.1617
   51MOL    H4931149   0.929   3.731   2.982 -2.1375  0.5337  1.3041
   51MOL    H5031150   0.961   3.700   2.826 -0.3365  0.6494  0.0940
   51MOL    H5131151   0.724   3.637   2.780  1.1482 -0.7044 -0.1239
   51MOL    H5231152   0.687   3.657   2.957  0.3328 -0.1794  0.5241
   51MOL    H5331153   0.597   3.831   2.876  0.0763 -1.5233 -1.9265
   51MOL    H5431154   0.742   3.893   2.944 -2.2349 -1.5039  1.8444
   51MOL    H5531155   0.723   3.851   2.640 -1.5673  1.1858  0.4429
   51MOL    H5631156   0.854   3.909   2.728  0.3700  2.0987  2.3237
   51MOL    H5731157   0.721   4.108   2.817  1.0574 -0.6073  0.5635
   51MOL    H5831158   0.765   4.108   2.653 -1.2386  1.0542 -0.4607
   51MOL    H5931159   0.549   4.192   2.655 -0.2574  0.5083  1.1609
   51MOL    H6031160   0.485   4.036   2.726 -0.9127  1.7766 -0.1018
   51MOL    H6131161   0.545   4.039   2.571  1.3539  0.5805 -0.9298
   51MOL    H6231162   1.072   3.161   3.004  0.7417  0.4017  1.5388
   51MOL    H6331163   1.157   3.241   2.888 -1.5359 -1.7338 -0.1982
   51MOL    C6431164   1.281   3.096   2.981  0.1570  0.3887  0.1278
   51MOL    O6531165   1.391   3.155   2.927 -0.5460 -0.8292  0.0469
   51MOL    C6631166   1.513   3.102   2.981  0.3298 -0.7638 -0.6421
   51MOL    C6731167   1.626   3.180   2.906 -0.4566 -0.1767 -0.0449
   51MOL    C6831168   1.649   3.322   2.972  0.7253  0.6631  0.1749
   51MOL    C6931169   1.585   3.431   2.883  0.2662  1.0287 -0.5389
   51MOL    C7031170   1.588   3.568   2.947  0.5766  0.4249  0.1289
   51MOL    C7131171   1.487   3.584   3.066  0.9394  0.2071 -0.6351
   51MOL    C7231172   1.450   3.722   3.114  0.0121 -0.2904 -0.6772
   51MOL    C7331173   1.362   3.812   3.017 -0.9948 -0.4665  0.5150
   51MOL    C7431174   1.229   2.983   2.892  0.4905  0.2050 -0.1703
   51MOL    H7531175   1.306   3.053   3.077  0.5304 -1.5586 -0.8221
   51MOL    H7631176   1.525   2.995   2.966 -0.6253 -1.0224  0.4210
   51MOL    H7731177   1.515   3.122   3.088 -1.5767  2.4880 -1.1404
   51MOL    H7831178   1.613   3.177   2.798  0.8612 -0.2171 -0.2085
   51MOL    H7931179   1.723   3.130   2.915 -1.5134 -2.2681  0.0893
   51MOL    H8031180   1.614   3.325   3.075  0.1313 -1.5013  0.0716
   51MOL    H8131181   1.754   3.349   2.970  0.3459  2.3344  1.5623
   51MOL    H8231182   1.644   3.440   2.792  1.1315 -0.6689 -0.1680
   51MOL    H8331183   1.485   3.398   2.854 -0.2589  1.9015  0.2641
   51MOL    H8431184   1.688   3.581   2.988  0.2909  3.0168  0.0928
   51MOL    H8531185   1.555   3.638   2.870  1.4272 -0.5898 -1.1874
   51MOL    H8631186   1.524   3.523   3.148 -0.7767  0.5504  0.4132
   51MOL    H8731187   1.394   3.540   3.031  1.7965  0.0303 -2.7548
   51MOL    H8831188   1.387   3.725   3.203 -1.2720  2.1798 -1.6143
   51MOL    H8931189   1.538   3.782   3.137 -0.1976  0.3789 -1.5828
   51MOL    H9031190   1.432   3.848   2.942 -2.8605  0.9258 -0.6160
   51MOL    H9131191   1.321   3.896   3.074 -1.5083 -0.1366 -0.3343
   51MOL    H9231192   1.285   3.760   2.960  0.0473 -0.0600 -1.2795
   51MOL    H9331193   1.188   3.006   2.794 -0.3747  0.2321  0.1950
   51MOL    H9431194   1.323   2.932   2.871  1.7464  1.6491  1.7423
   51MOL    C9531195   1.134   2.884   2.969 -0.2736  0.5696 -0.5399
   51MOL    O9631196   1.207   2.819   3.076 -0.3664 -0.7161 -0.5443
   51MOL    C9731197   1.305   2.722   3.042 -0.3642  1.1544  0.0708
   51MOL    C9831198   1.439   2.756   3.111  0.1708 -0.1215  0.1758
   51MOL    C9931199   1.565   2.703   3.036 -0.3456 -0.4779  0.4121
   51MOL   C10031200   1.703   2.764   3.068  0.0417  0.3718  0.8585
   51MOL   C10131201   1.806   2.722   2.962 -0.4314 -0.5977 -0.2718
   51MOL   C10231202   1.949   2.764   2.995 -0.3328  0.1814  1.0072
   51MOL   C10331203   2.041   2.726   2.875  0.0388  0.1066 -0.4890
   51MOL   C10431204   2.184   2.755   2.908 -0.5173  0.3520 -0.1123
   51MOL   C10531205   1.072   2.789   2.870 -0.3936 -0.1053  0.5275
   51MOL   H10631206   1.058   2.950   3.012 -0.9205  0.6552 -1.7848
   51MOL   H10731207   1.325   2.713   2.935  0.1336  0.1102  0.2465
   51MOL   H10831208   1.267   2.631   3.089  1.1026  0.7117  0.4325
   51MOL   H10931209   1.441   2.716   3.212  1.9119 -1.5208 -0.3884
   51MOL   H11031210   1.453   2.864   3.119  1.7398 -0.0672 -2.8704
   51MOL   H11131211   1.558   2.595   3.035 -0.7025 -0.4530 -0.0182
   51MOL   H11231212   1.545   2.736   2.934 -0.4053 -1.7630  0.0058
   51MOL   H11331213   1.701   2.873   3.068  1.8565  0.4422 -1.6320
   51MOL   H11431214   1.719   2.724   3.169  0.6644  0.0896  0.6517
   51MOL   H11531215   1.792   2.614   2.949  0.7891 -0.6278 -1.3963
   51MOL   H11631216   1.777   2.770   2.869  0.6520 -0.3645 -0.4987
   51MOL   H11731217   1.987   2.715   3.084  2.5478  1.0832  0.3205
   51MOL   H11831218   1.942   2.871   3.014 -0.6048  0.3756 -0.1095
   51MOL   H11931219   2.032   2.620   2.851 -0.1819 -0.6498  2.6799
   51MOL   H12031220   2.007   2.779   2.786  0.1992  0.7013 -0.2016
   51MOL   H12131221   2.184   2.857   2.945  1.3357 -0.1795  1.4051
   51MOL   H12231222   2.253   2.739   2.824  0.3599  1.5252  0.3629
   51MOL   H12331223   2.221   2.700   2.994 -1.7231  0.2456  0.3355
   51MOL   H12431224   1.023   2.843   2.790 -0.4540  1.3423  1.5247
   51MOL   H12531225   1.147   2.737   2.810  2.4088  2.6898  1.4773
   51MOL   C12631226   0.987   2.673   2.930 -0.0730  0.3469  1.2668
   51MOL   O12731227   0.945   2.601   2.814  0.2894  0.6599 -0.3202
   51MOL   C12831228   0.887   2.470   2.841 -0.8260 -0.3032 -0.7664
   51MOL   C12931229   0.986   2.355   2.814  0.4774 -0.2835  0.1144
   51MOL   C13031230   1.027   2.330   2.664 -0.4953 -0.6725  0.1821
   51MOL   C13131231   1.111   2.208   2.648 -0.1078 -0.0984  0.6327
   51MOL   C13231232   1.201   2.211   2.521 -0.7370 -0.2268 -0.2221
   51MOL   C13331233   1.314   2.109   2.517  0.1873 -0.1971  0.0697
   51MOL   C13431234   1.392   2.086   2.389  0.8055  0.0012 -0.4930
   51MOL   C13531235   1.478   2.208   2.358 -0.3166 -0.3535  0.4292
   51MOL   C13631236   0.867   2.729   3.012 -0.1968  0.0102  0.0296
   51MOL   H13731237   1.053   2.624   3.000  3.0956  1.6972 -0.6433
   51MOL   H13831238   0.794   2.454   2.787 -0.3226  0.2306 -1.8106
   51MOL   H13931239   0.849   2.473   2.943  1.7050  0.9439  0.1820
   51MOL   H14031240   0.937   2.273   2.865  3.6072 -1.3793  1.4775
   51MOL   H14131241   1.078   2.372   2.870  1.5777  0.7965 -1.9621
   51MOL   H14231242   0.947   2.333   2.589  0.1208 -1.3122 -0.5059
   51MOL   H14331243   1.092   2.414   2.638  0.7419 -1.3929  0.9530
   51MOL   H14431244   1.178   2.221   2.733  0.7777 -2.2499  0.3089
   51MOL   H14531245   1.062   2.111   2.647 -1.0258  0.3373 -2.3852
   51MOL   H14631246   1.151   2.199   2.424 -3.9667 -0.2751  1.3759
   51MOL   H14731247   1.247   2.310   2.515  2.3700 -1.5469  1.2922
   51MOL   H14831248   1.268   2.011   2.524  0.3568 -0.1588  1.7892
   51MOL   H14931249   1.378   2.121   2.604  0.8214 -0.4917 -0.3540
   51MOL   H15031250   1.455   2.001   2.413 -1.8144 -1.2815  2.1465
   51MOL   H15131251   1.340   2.053   2.299 -0.1584 -1.0497  0.4310
   51MOL   H15231252   1.410   2.288   2.330 -1.4748 -1.1571  0.9089
   51MOL   H15331253   1.534   2.182   2.268 -0.4946 -1.1207  0.5385
   51MOL   H15431254   1.556   2.238   2.428 -1.1264 -0.6409  1.4750
   51MOL   H15531255   0.837   2.646   3.076  0.2813  0.1889  0.4958
   51MOL   H15631256   0.911   2.806   3.075  0.7443  0.5419 -1.2505
   51MOL   C15731257   0.747   2.789   2.931  0.1815 -0.1358 -0.0296
   51MOL   O15831258   0.785   2.923   2.887 -0.2379  0.1763  0.0590
   51MOL   C15931259   0.743   2.960   2.756 -0.6034  0.3635 -0.7364
   51MOL   C16031260   0.771   3.113   2.729  0.9067  0.5815  0.0884
   51MOL   C16131261   0.916   3.145   2.696  0.3396 -0.1407  0.1218
   51MOL   C16231262   0.933   3.266   2.594 -0.1065 -0.3360  0.0688
   51MOL   C16331263   1.081   3.306   2.581 -0.3438  0.2934  0.1476
   51MOL   C16431264   1.113   3.442   2.505  0.2064 -0.2168 -0.2530
   51MOL   C16531265   1.263   3.455   2.479  0.3820 -0.4934  0.3499
   51MOL   C16631266   1.349   3.477   2.604  0.4159 -0.1121  0.3165
   51MOL   C16731267   0.624   2.823   3.014  0.6872 -0.8509  0.8757
   51MOL   H16831268   0.724   2.718   2.851 -0.7209 -0.3356  0.4130
   51MOL   H16931269   0.634   2.954   2.761 -0.4530 -0.8872  1.8394
   51MOL   H17031270   0.775   2.899   2.671  0.4657 -1.5037  0.9729
   51MOL   H17131271   0.740   3.174   2.813  2.1205  2.5808 -0.8689
   51MOL   H17231272   0.712   3.129   2.639  0.4224 -3.5668 -0.4399
   51MOL   H17331273   0.957   3.160   2.796 -0.5444  0.9466  0.3306
   51MOL   H17431274   0.972   3.059   2.659  0.2499  0.3938 -1.2836
   51MOL   H17531275   0.880   3.242   2.502  2.9235 -2.5601 -1.1877
   51MOL   H17631276   0.879   3.351   2.635  0.7328  0.6680 -0.8599
   51MOL   H17731277   1.121   3.313   2.682 -0.8416  1.9550  0.2487
   51MOL   H17831278   1.137   3.222   2.539 -0.6142 -0.4012  1.1352
   51MOL   H17931279   1.067   3.513   2.574 -1.4071 -2.7204  1.2996
   51MOL   H18031280   1.069   3.434   2.405 -0.9224  0.7821  0.1461
   51MOL   H18131281   1.308   3.369   2.431  2.6297  0.7755  0.1318
   51MOL   H18231282   1.272   3.540   2.411  3.1992  0.6664  2.0969
   51MOL   H18331283   1.342   3.581   2.637  0.5665  0.3712 -1.1544
   51MOL   H18431284   1.455   3.455   2.598  0.4802  0.0509  0.8824
   51MOL   H18531285   1.311   3.416   2.686 -0.5761  1.2034  0.8581
   51MOL   H18631286   0.651   2.907   3.078 -0.5696 -1.5145  2.2844
   51MOL   H18731287   0.542   2.862   2.953  0.4734 -0.5518  1.3549
   51MOL   C18831288   0.565   2.710   3.094  0.2412  0.4367 -0.2107
   51MOL   O18931289   0.546   2.603   3.006  0.0844 -0.0969  0.5612
   51MOL   C19031290   0.504   2.480   3.066 -0.2121 -0.4519 -0.1607
   51MOL   C19131291   0.526   2.370   2.958  0.1819 -0.9067  0.7667
   51MOL   C19231292   0.511   2.234   3.005  0.1440  0.1384  0.0327
   51MOL   C19331293   0.525   2.125   2.903 -0.2758 -0.7582  0.0488
   51MOL   C19431294   0.649   2.125   2.810  0.1415  0.2934 -0.9277
   51MOL   C19531295   0.638   2.022   2.696  0.3980  0.4695 -0.8067
   51MOL   C19631296   0.766   1.989   2.619 -0.0248  0.2577  0.8044
   51MOL   C19731297   0.741   1.884   2.513  0.8730 -0.1358 -0.2245
   51MOL   C19831298   0.429   2.749   3.155  0.0644  0.3415  0.1934
   51MOL   H19931299   0.628   2.672   3.175  0.6666 -0.8755 -1.1388
   51MOL   H20031300   0.567   2.458   3.153 -1.5018  0.0014  0.9144
   51MOL   H20131301   0.398   2.485   3.091  0.0979 -0.6740  1.2442
   51MOL   H20231302   0.629   2.373   2.923 -0.1894 -2.3441 -0.5246
   51MOL   H20331303   0.461   2.382   2.871 -0.3136 -2.9615  0.8261
   51MOL   H20431304   0.582   2.214   3.085  0.2046  1.8938  0.4317
   51MOL   H20531305   0.412   2.229   3.050 -0.0702 -1.0548 -0.5591
   51MOL   H20631306   0.522   2.033   2.961  0.3636 -1.3010 -0.7534
   51MOL   H20731307   0.435   2.140   2.843 -0.4857  0.3541  0.6214
   51MOL   H20831308   0.662   2.223   2.764 -0.8510  1.2391  0.7195
   51MOL   H20931309   0.736   2.115   2.874 -0.7138  1.5969  0.4866
   51MOL   H21031310   0.550   2.045   2.636 -1.5811  0.2290  1.8739
   51MOL   H21131311   0.604   1.931   2.746  0.6424  1.4738  1.2195
   51MOL   H21231312   0.797   2.078   2.564  2.6362 -1.2061 -0.1833
   51MOL   H21331313   0.850   1.967   2.685 -0.4648 -1.5449  0.7810
   51MOL   H21431314   0.826   1.847   2.456  2.2132  1.8397  0.4488
   51MOL   H21531315   0.677   1.917   2.431 -2.2677 -0.7936  1.8447
   51MOL   H21631316   0.689   1.798   2.555 -0.0703  0.0172 -1.0557
   51MOL   H21731317   0.364   2.793   3.080 -0.7040  0.5049  0.9446
   51MOL   H21831318   0.371   2.667   3.198 -1.2735  1.0663 -0.2011
   51MOL   C21931319   0.431   2.853   3.268  0.1617  0.3772  0.6135
   51MOL   O22031320   0.496   2.776   3.374 -0.0917  0.2944  0.1728
   51MOL   C22131321   0.582   2.855   3.454  0.3597  0.5074 -0.6393
   51MOL   C22231322   0.718   2.866   3.393  0.5489 -0.4158 -0.1683
   51MOL   C22331323   0.807   2.955   3.471 -0.4754  0.3484  0.4324
   51MOL   C22431324   0.955   2.942   3.419  0.3083  0.9071  0.5627
   51MOL   C22531325   1.056   2.976   3.527  0.5428 -0.8378 -0.3402
   51MOL   C22631326   1.199   2.955   3.483 -0.1559 -0.1154 -0.0596
   51MOL   C22731327   1.293   3.005   3.596  0.3799  0.4547 -0.6420
   51MOL   C22831328   1.435   3.019   3.553 -0.3024 -0.5858  0.4037
   51MOL   C22931329   0.294   2.908   3.322 -0.3409 -0.2805  0.3871
   51MOL   H23031330   0.489   2.942   3.245  3.0993 -1.3723  0.8771
   51MOL   H23131331   0.600   2.805   3.549  1.2299 -2.0891 -2.1261
   51MOL   H23231332   0.542   2.955   3.467  0.4986  0.6524 -1.2993
   51MOL   H23331333   0.718   2.903   3.291  1.0420  0.3619  0.1046
   51MOL   H23431334   0.756   2.764   3.396  1.8772  0.1049  1.5261
   51MOL   H23531335   0.760   3.053   3.476  1.3659  1.4182 -2.0776
   51MOL   H23631336   0.795   2.922   3.574  0.4979 -0.8621  0.1674
   51MOL   H23731337   0.968   2.839   3.388  0.8926  1.0864  0.2063
   51MOL   H23831338   0.971   3.011   3.335 -3.0024  0.9037 -0.1675
   51MOL   H23931339   1.049   3.080   3.559  0.3751 -1.7924  2.8450
   51MOL   H24031340   1.030   2.910   3.610 -1.9618 -1.3889 -1.4910
   51MOL   H24131341   1.211   3.006   3.388 -0.4042 -0.2617 -0.1681
   51MOL   H24231342   1.220   2.850   3.465  1.2117  0.2915 -0.8873
   51MOL   H24331343   1.261   3.099   3.641 -1.2656  0.3070 -1.4593
   51MOL   H24431344   1.292   2.924   3.668 -0.1188 -0.2823 -1.4783
   51MOL   H24531345   1.446   3.119   3.512  0.1601 -0.0359  1.8212
   51MOL   H24631346   1.462   2.943   3.479  1.8798  0.9009 -0.3857
   51MOL   H24731347   1.505   3.032   3.636 -0.9585  0.3760  0.8081
   51MOL   H24831348   0.238   2.821   3.357 -2.7808  1.5332  1.1006
   51MOL   H24931349   0.294   2.971   3.411 -1.9084  0.0393  0.1750
   51MOL   C25031350   0.220   2.978   3.211  0.1460 -0.7996  0.4027
   51MOL   O25131351   0.307   3.086   3.170  0.3223 -0.3333  0.7718
   51MOL   C25231352   0.297   3.127   3.035 -0.3831  1.2380  0.1379
   51MOL   C25331353   0.400   3.231   3.007 -0.5423  0.1874  0.0147
   51MOL   C25431354   0.407   3.267   2.868  0.0608 -0.2709 -0.3125
   51MOL   C25531355   0.478   3.408   2.843  0.0749 -0.4218  0.0849
   51MOL   C25631356   0.482   3.449   2.691  0.3424 -0.5435 -0.5745
   51MOL   C25731357   0.563   3.361   2.606  0.1228 -0.2819 -0.2376
   51MOL   C25831358   0.583   3.400   2.456  0.2438 -0.0913  0.4215
   51MOL   C25931359   0.629   3.551   2.425 -0.2367  0.4046  0.8437
   51MOL   C26031360   0.079   3.027   3.242  0.1407 -0.1243  0.0458
   51MOL   H26131361   0.204   2.917   3.122 -0.7282 -0.6517  0.4520
   51MOL   H26231362   0.196   3.163   3.015 -0.0708  2.1749  0.2315
   51MOL   H26331363   0.320   3.042   2.971  2.1815  2.7966 -1.0899
   51MOL   H26431364   0.499   3.198   3.037 -0.8242 -0.4885  0.2095
   51MOL   H26531365   0.380   3.320   3.066  0.7139 -0.6763  1.8048
   51MOL   H26631366   0.462   3.190   2.813  0.2040 -1.6606  1.7118
   51MOL   H26731367   0.307   3.256   2.827 -0.1704 -2.3431  0.7068
   51MOL   H26831368   0.437   3.491   2.902 -0.4418  0.5327 -1.5779
   51MOL   H26931369   0.581   3.400   2.876  0.0915  1.1993  0.4967
   51MOL   H27031370   0.381   3.452   2.651  0.8983 -0.5353 -2.0240
   51MOL   H27131371   0.519   3.551   2.680  0.8719 -0.7193 -0.4370
   51MOL   H27231372   0.526   3.259   2.613 -1.5418  0.3662  0.4654
   51MOL   H27331373   0.662   3.357   2.651  0.3921 -0.8638 -0.8536
   51MOL   H27431374   0.643   3.330   2.398  1.7926  0.4128  1.4140
   51MOL   H27531375   0.491   3.390   2.398  1.1355  0.7993 -1.1609
   51MOL   H27631376   0.727   3.567   2.469 -0.8674  0.5998  2.1900
   51MOL   H27731377   0.560   3.627   2.461 -0.8973 -0.1393  0.7403
   51MOL   H27831378   0.639   3.559   2.317  0.4453 -1.9327  0.6973
   51MOL   H27931379   0.095   3.098   3.323 -2.3209  2.1020 -1.3378
   51MOL   H28031380   0.042   3.084   3.157  0.4675 -0.1431 -0.1088
   51MOL   C28131381   7.757   2.927   3.308  0.3098  0.4178 -0.4825
   51MOL   O28231382   7.773   2.808   3.223 -0.0068 -0.0289 -0.5321
   51MOL   C28331383   7.725   2.692   3.294  0.2819  0.1415 -0.6035
   51MOL   C28431384   7.754   2.567   3.204  0.0429  0.9062 -0.3428
   51MOL   C28531385   7.687   2.561   3.065 -0.1217 -0.3263 -0.0664
   51MOL   C28631386   7.546   2.610   3.055 -0.5691  0.7470  0.0002
   51MOL   C28731387   7.444   2.512   3.126  0.2757  0.3272  0.0268
   51MOL   C28831388   7.304   2.571   3.130  0.2055 -0.3966  0.5437
   51MOL   C28931389   7.201   2.463   3.180  0.6479  0.6260  0.6103
   51MOL   C29031390   7.064   2.535   3.180 -0.8040  1.4411  0.0304
   51MOL   C29131391   7.612   2.974   3.300  0.1605 -0.6676 -0.2083
   51MOL   H29231392   0.017   2.915   3.411  0.5637 -1.0997 -0.7259
   51MOL   H29331393   7.617   2.698   3.312  0.3257 -0.0568 -0.2849
   51MOL   H29431394   7.762   2.689   3.396  1.1873 -1.8114 -0.9637
   51MOL   H29531395   7.730   2.477   3.260 -0.4162  1.9368  1.1796
   51MOL   H29631396   0.089   2.561   3.198 -0.0268 -0.0728 -0.5266
   51MOL   H29731397   7.747   2.629   3.004 -0.3490 -0.1097 -0.0465
   51MOL   H29831398   7.706   2.458   3.035  0.3740 -0.5556  1.0255
   51MOL   H29931399   7.538   2.717   3.077  0.8972  0.7936  0.3734
   51MOL   H30031400   7.522   2.608   2.949 -0.1621  1.9694 -0.1275
   51MOL   H30131401   7.442   2.424   3.062  1.6338 -0.4714  1.0548
   51MOL   H30231402   7.470   2.492   3.230 -0.1118  2.1375  0.5038
   51MOL   H30331403   7.287   2.599   3.027  1.1379 -1.2732  0.1383
   51MOL   H30431404   7.296   2.667   3.181 -2.7921  0.5667 -1.6564
   51MOL   H30531405   7.207   2.370   3.123 -0.1898  0.2274  1.1646
   51MOL   H30631406   7.222   2.441   3.285 -2.1709 -2.0395  0.6901
   51MOL   H30731407   6.999   2.448   3.191 -0.4837  1.1328 -0.4477
   51MOL   H30831408   7.036   2.582   3.086  1.6286  0.9028 -1.0114
   51MOL   H30931409   7.050   2.600   3.266 -1.5744  1.9950 -0.5107
   51MOL   H31031410   7.577   2.999   3.200  0.4929 -0.6260 -0.3153
   51MOL   H31131411   7.546   2.892   3.327 -0.4097 -0.9879 -2.4969
   51MOL   C31231412   7.588   3.101   3.391  0.1956  0.2642 -0.8745
   51MOL   O31331413   7.639   3.070   3.525  0.2312 -0.0005  0.2362
   51MOL   C31431414   7.674   3.179   3.609 -0.6024  0.4524 -0.0635
   51MOL   C31531415   7.696   3.108   3.748 -0.0304 -0.1106 -0.3988
   51MOL   C31631416   7.731   3.194   3.872 -0.2240 -0.7031  0.2999
   51MOL   C31731417   7.771   3.098   3.990  0.3303  0.3756  0.0272
   51MOL   C31831418   0.033   3.175   4.118 -0.2531 -0.2109 -0.2181
   51MOL   C31931419   0.158   3.258   4.123  0.0464 -0.2721 -0.3449
   51MOL   C32031420   0.207   3.292   4.261  0.3995 -0.5387  0.0111
   51MOL   C32131421   0.285   3.427   4.263 -0.1557 -0.0552  0.2950
   51MOL   C32231422   7.430   3.134   3.398 -0.6540  0.6451  0.0557
   51MOL   H32331423   7.624   3.194   3.347  2.0236  0.6366  1.3256
   51MOL   H32431424   7.593   3.249   3.628  0.1915  1.6893 -1.1428
   51MOL   H32531425   7.762   3.233   3.573 -1.8843  1.6810 -1.4079
   51MOL   H32631426   7.774   3.032   3.741  1.2807  1.0521  1.1605
   51MOL   H32731427   7.604   3.054   3.770 -0.3891  0.7983  0.3605
   51MOL   H32831428   0.044   3.257   3.850 -0.0979 -1.0232 -0.1124
   51MOL   H32931429   7.644   3.254   3.899 -0.1467 -1.4594  2.2840
   51MOL   H33031430   7.677   3.048   4.010  0.6092  1.3087  4.1658
   51MOL   H33131431   0.076   3.026   3.968  1.2655  1.2073  0.5643
   51MOL   H33231432   7.719   3.233   4.144  1.2117  2.4669 -1.0387
   51MOL   H33331433   0.038   3.112   4.207  0.5007  0.4197  0.1952
   51MOL   H33431434   0.148   3.348   4.064  1.0814  1.0913  1.5025
   51MOL   H33531435   0.239   3.211   4.068  2.3008  4.1977 -1.0014
   51MOL   H33631436   0.123   3.310   4.328 -0.4105  2.1290 -1.6405
   51MOL   H33731437   0.263   3.212   4.309 -0.0280 -1.4267 -0.9557
   51MOL   H33831438   0.235   3.509   4.212  1.1386  0.5457 -0.0195
   51MOL   H33931439   0.382   3.420   4.213 -0.4657  0.2190 -0.3411
   51MOL   H34031440   0.324   3.456   4.361 -0.6338  2.1190 -0.1346
   51MOL   H34131441   7.381   3.046   3.440  1.2090 -0.5948 -0.3173
   51MOL   H34231442   7.416   3.213   3.472 -0.6143 -0.7421  1.5725
   51MOL   C34331443   7.374   3.182   3.272 -0.1048  0.0398  0.0089
   51MOL   O34431444   7.442   3.298   3.223 -0.1238  0.4641 -0.5055
   51MOL   C34531445   7.462   3.299   3.082  0.5508  0.2830  0.6215
   51MOL   C34631446   7.526   3.428   3.051 -0.0853 -0.9664  0.2000
   51MOL   C34731447   7.441   3.552   3.080 -0.4336  0.7958 -0.0742
   51MOL   C34831448   7.524   3.678   3.082  0.1249  0.1738  0.2632
   51MOL   C34931449   7.616   3.699   3.204  0.5065  0.1659  0.1279
   51MOL   C35031450   7.639   3.847   3.256  0.0567  0.3275 -0.3262
   51MOL   C35131451   7.753   3.851   3.366  1.0152 -0.2078 -0.0072
   51MOL   C35231452   7.771   3.986   3.428  0.1466 -0.0383 -0.3952
   51MOL   C35331453   7.222   3.207   3.284 -0.1487 -0.2999 -0.0730
   51MOL   H35431454   7.380   3.098   3.204  0.9310 -0.2923  0.5034
   51MOL   H35531455   7.368   3.305   3.028  0.9510  0.4221 -0.0690
   51MOL   H35631456   7.517   3.209   3.055 -2.2408 -1.6358  1.0910
   51MOL   H35731457   7.551   3.434   2.945  0.2683 -1.2933  0.2636
   51MOL   H35831458   7.619   3.439   3.107  0.7331 -3.8443 -0.5160
   51MOL   H35931459   7.353   3.551   3.017  0.7302 -1.5037 -1.7418
   51MOL   H36031460   7.395   3.536   3.177  0.1992 -0.7952 -0.0213
   51MOL   H36131461   7.582   3.690   2.990 -0.8335 -1.9023 -0.6510
   51MOL   H36231462   7.444   3.753   3.076  0.0754  0.2267  1.5373
   51MOL   H36331463   7.565   3.643   3.283 -1.5987  2.0277  0.1371
   51MOL   H36431464   7.704   3.639   3.181  1.1533  0.6371  1.3003
   51MOL   H36531465   7.548   3.897   3.291 -0.0198  1.3242 -1.9100
   51MOL   H36631466   7.671   3.911   3.173  1.5576 -0.1835 -0.1539
   51MOL   H36731467   7.719   3.783   3.443 -2.7441  3.2202  1.5357
   51MOL   H36831468   0.075   3.825   3.322  0.8758 -0.6445 -0.0470
   51MOL   H36931469   0.087   3.992   3.489 -0.7595  0.8932  0.8797
   51MOL   H37031470   7.693   4.010   3.501  0.6365 -0.4293  0.2687
   51MOL   H37131471   7.764   4.073   3.364 -3.1489  0.9643  1.1847
   51MOL   H37231472   7.205   3.278   3.364 -2.7806 -1.8321  0.7627
   51MOL   H37331473   7.200   3.256   3.189  0.5161 -1.5730 -0.9027
   51MOL   C37431474   7.129   3.086   3.281  0.2296  0.4230  0.3291
   51MOL   O37531475   7.111   3.060   3.139  0.6865  0.4900 -0.2620
   51MOL   C37631476   7.081   2.926   3.103  0.1214  0.4504  0.0302
   51MOL   C37731477   7.127   2.899   2.967  0.5890 -0.4805 -0.4887
   51MOL   C37831478   7.283   2.927   2.958 -0.2542 -0.1086 -0.8338
   51MOL   C37931479   7.328   2.904   2.808  0.1825 -0.2660 -0.3374
   51MOL   C38031480   7.457   2.971   2.761  0.3069  0.2150 -0.1385
   51MOL   C38131481   7.580   2.901   2.815  0.3479  0.5579 -0.1205
   51MOL   C38231482   7.713   2.959   2.762  0.3780  0.1943  0.0319
   51MOL   C38331483   0.065   2.874   2.787 -0.5076  0.5622  0.1866
   51MOL   C38431484   6.994   3.107   3.354 -0.3594  0.0162  0.3490
   51MOL   H38531485   7.172   3.012   3.348 -1.0603 -2.1408 -1.5951
   51MOL   H38631486   6.973   2.916   3.109  0.2921 -0.9765  1.1074
   51MOL   H38731487   7.132   2.858   3.171  2.1851 -0.9297 -2.7766
   51MOL   H38831488   7.075   2.970   2.902  1.4095  0.0184 -0.6115
   51MOL   H38931489   7.110   2.799   2.926  0.4897  0.4049 -2.6898
   51MOL   H39031490   7.316   3.025   2.994 -0.2272 -0.2467 -0.4784
   51MOL   H39131491   7.335   2.854   3.019  1.1304  0.2313 -1.5829
   51MOL   H39231492   7.333   2.797   2.791 -0.4892 -0.0775 -1.8095
   51MOL   H39331493   7.247   2.938   2.742  0.5442 -0.6509 -0.9815
   51MOL   H39431494   7.460   2.966   2.652 -0.6648 -2.4680 -0.0813
   51MOL   H39531495   7.461   3.075   2.792 -0.9923  0.4543 -0.7304
   51MOL   H39631496   7.572   2.795   2.790 -1.3202  0.4623  0.7528
   51MOL   H39731497   7.576   2.912   2.924 -1.2614 -0.5062 -0.0535
   51MOL   H39831498   7.712   2.981   2.656  1.1365 -1.4822 -0.3297
   51MOL   H39931499   7.728   3.056   2.810  1.7888 -0.3279  0.6672
   51MOL   H40031500   0.081   2.817   2.696 -0.2549  1.6465 -0.4577
   51MOL   H40131501   0.061   2.808   2.874  0.6412 -0.2365 -0.3642
   51MOL   H40231502   0.153   2.938   2.797 -0.7961  1.1376 -0.8927
   51MOL   H40331503   6.936   3.171   3.289  0.4735  0.2767 -0.1411
   51MOL   H40431504   6.948   3.009   3.342 -0.0562 -0.2225  1.0767
   51MOL   C40531505   7.011   3.146   3.506 -0.3655  0.3792 -0.5829
   51MOL   O40631506   7.074   3.034   3.579 -1.2343  0.2607  0.5071
   51MOL   C40731507   7.121   3.050   3.711  0.9457 -0.4323 -0.0856
   51MOL   C40831508   7.249   3.127   3.719  0.3330 -1.1439  0.0058
   51MOL   C40931509   7.299   3.130   3.860 -0.1389 -0.2879 -0.2102
   51MOL   C41031510   7.223   3.226   3.953 -0.3771 -0.2456 -0.2574
   51MOL   C41131511   7.228   3.211   4.106 -0.2452  0.1995 -0.7879
   51MOL   C41231512   7.367   3.225   4.167  0.6293  0.8860  0.0691
   51MOL   C41331513   7.366   3.250   4.321 -0.2440 -0.0018 -0.3478
   51MOL   C41431514   7.500   3.298   4.383 -0.2461  0.2360 -1.1982
   51MOL   C41531515   6.885   3.185   3.578 -0.0991 -0.3472  0.3745
   51MOL   H41631516   7.080   3.229   3.515  0.9222 -0.5179 -1.8865
   51MOL   H41731517   7.142   2.946   3.736 -0.9403 -0.9348 -0.4990
   51MOL   H41831518   7.051   3.083   3.788  2.5581  0.0556  1.1917
   51MOL   H41931519   7.246   3.226   3.673 -1.0089 -0.6206  1.2012
   51MOL   H42031520   7.324   3.067   3.666  1.0206 -0.9567  0.7485
   51MOL   H42131521   7.302   3.034   3.913  2.3584 -0.8197 -1.2856
   51MOL   H42231522   7.401   3.168   3.855 -1.0798  2.2684 -0.9026
   51MOL   H42331523   7.237   3.331   3.928 -1.3211  0.3991  1.8463
   51MOL   H42431524   7.116   3.209   3.948 -0.6019  0.9435  0.3944
   51MOL   H42531525   7.165   3.288   4.150  0.2077  1.0944 -1.6933
   51MOL   H42631526   7.186   3.123   4.155  1.6325 -0.8335 -0.9825
   51MOL   H42731527   7.419   3.301   4.110  1.8400  0.8513  1.1094
   51MOL   H42831528   7.427   3.137   4.142 -1.7190 -1.0041  0.8582
   51MOL   H42931529   7.298   3.332   4.342  0.0304 -0.0747  0.8305
   51MOL   H43031530   7.336   3.161   4.376 -0.4695 -0.3604 -1.0438
   51MOL   H43131531   7.562   3.208   4.383  0.5875  0.5886  4.4177
   51MOL   H43231532   7.491   3.343   4.482 -0.5061 -1.2969 -0.5137
   51MOL   H43331533   7.547   3.377   4.326  2.8474 -1.0416 -0.5236
   51MOL   H43431534   6.834   3.089   3.590 -1.9243  0.6304  0.4041
   51MOL   H43531535   6.909   3.215   3.680 -1.9855 -2.4391  1.4642
   51MOL   C43631536   6.785   3.293   3.528 -0.3315  0.2948 -0.4006
   51MOL   O43731537   6.731   3.227   3.412  0.0070  0.0558 -0.1684
   51MOL   C43831538   6.608   3.278   3.371  0.0931 -0.0382 -0.2317
   51MOL   C43931539   6.549   3.184   3.267  0.3714 -0.7761 -0.9189
   51MOL   C44031540   6.577   3.221   3.124 -0.7305 -0.3795 -0.9810
   51MOL   C44131541   6.501   3.126   3.018  0.4645  0.4085 -0.1076
   51MOL   C44231542   6.553   3.152   2.869 -0.1459  0.5267  0.6734
   51MOL   C44331543   6.511   3.038   2.774 -0.6411  0.0854  0.1857
   51MOL   C44431544   6.550   3.079   2.628  0.1541 -0.3367 -0.1029
   51MOL   C44531545   6.539   2.959   2.536 -0.2369  0.2285 -0.2859
   51MOL   C44631546   6.861   3.418   3.471 -0.0056 -0.0653 -0.0692
   51MOL   H44731547   6.713   3.322   3.604 -2.2134 -0.6316 -1.7995
   51MOL   H44831548   6.539   3.295   3.453  0.2409  0.7762 -0.2723
   51MOL   H44931549   6.614   3.375   3.322  2.6316 -0.2018 -0.3352
   51MOL   H45031550   6.441   3.177   3.282  0.6998 -1.6901  1.2689
   51MOL   H45131551   6.583   3.083   3.290 -0.3313 -0.7394  0.3467
   51MOL   H45231552   6.543   3.320   3.096 -2.3709 -0.4067  0.7777
   51MOL   H45331553   6.683   3.210   3.101  0.4139  2.1639  2.6949
   51MOL   H45431554   6.515   3.022   3.046 -2.0656 -0.4107 -1.7938
   51MOL   H45531555   6.396   3.153   3.015  0.4516  0.2520 -1.1154
   51MOL   H45631556   6.515   3.249   2.834 -0.0377  1.1294  2.1819
   51MOL   H45731557   6.661   3.161   2.861 -0.2536  0.7094 -0.8549
   51MOL   H45831558   6.408   3.004   2.780 -0.1106 -1.3785  1.3294
   51MOL   H45931559   6.567   2.950   2.807  1.5194  1.5978  0.6542
   51MOL   H46031560   6.491   3.163   2.594  0.1570 -0.3093 -0.0404
   51MOL   H46131561   6.654   3.114   2.631  0.4758 -1.2653 -0.1348
   51MOL   H46231562   6.435   2.926   2.527 -0.2382 -0.5658  2.3028
   51MOL   H46331563   6.594   2.867   2.555 -1.8633 -0.9011 -0.9070
   51MOL   H46431564   6.573   2.997   2.440 -0.5379 -0.2558 -0.5905
   51MOL   H46531565   6.934   3.376   3.402 -0.2451  0.8678 -0.8922
   51MOL   H46631566   6.786   3.474   3.415  0.0480  0.5003  0.4213
   51MOL   C46731567   6.944   3.505   3.569 -0.3550  0.1664  0.0095
   51MOL   O46831568   6.855   3.544   3.672 -0.6794  0.0460  0.5151
   51MOL   C46931569   6.907   3.541   3.803  0.0558  0.6044  0.2509
   51MOL   C47031570   6.802   3.590   3.906  0.3273 -0.2856 -0.1000
   51MOL   C47131571   6.674   3.508   3.914  0.3344  0.2737  0.0595
   51MOL   C47231572   6.578   3.550   4.033  0.2786 -0.0353 -0.3230
   51MOL   C47331573   6.436   3.504   4.019 -0.0984 -0.4050 -0.5583
   51MOL   C47431574   6.415   3.350   4.007 -0.9254  0.3245  0.1184
   51MOL   C47531575   6.270   3.307   4.029  0.2314 -0.8220  1.0304
   51MOL   C47631576   6.215   3.318   4.174  0.2571 -0.3217 -0.2700
   51MOL   C47731577   6.987   3.627   3.492  1.2370 -0.0590  0.2034
   51MOL   H47831578   7.024   3.446   3.613 -0.2763 -0.2152 -0.6418
   51MOL   H47931579   6.985   3.617   3.792  0.7614  0.0098  1.1549
   51MOL   H48031580   6.946   3.448   3.843  0.0135  0.5544  0.1761
   51MOL   H48131581   6.780   3.696   3.888  0.1087 -0.4837 -1.0130
   51MOL   H48231582   6.849   3.582   4.004 -0.5980 -0.0363  0.3759
   51MOL   H48331583   6.616   3.527   3.824 -0.8414  0.0171  0.7496
   51MOL   H48431584   6.696   3.401   3.913  1.0544  0.4176 -1.4286
   51MOL   H48531585   6.621   3.507   4.124 -1.3537 -0.4543  0.2663
   51MOL   H48631586   6.580   3.659   4.042  0.1886 -0.0109 -0.6044
   51MOL   H48731587   6.402   3.538   4.116 -1.1216 -1.9463 -0.3505
   51MOL   H48831588   6.373   3.570   3.959  1.8044  0.6490 -1.4387
   51MOL   H48931589   6.481   3.304   4.081  0.4592  2.2653  0.1440
   51MOL   H49031590   6.447   3.316   3.909 -0.7595 -1.7248  0.8767
   51MOL   H49131591   6.208   3.368   3.963  0.5944 -0.7847  0.7242
   51MOL   H49231592   6.263   3.204   3.995 -0.1122 -0.4344 -0.0802
   51MOL   H49331593   6.120   3.266   4.182  0.1507 -0.2379 -0.9483
   51MOL   H49431594   6.202   3.420   4.209 -1.3238 -0.2165 -1.0921
   51MOL   H49531595   6.280   3.268   4.245  0.1883  0.7014  0.5287
   51MOL   H49631596   6.909   3.650   3.419 -0.4386 -2.2836  1.2094
   51MOL   H49731597   7.000   3.720   3.546  1.3020 -0.8813  1.6132
   51MOL   C49831598   7.124   3.597   3.428 -0.0928 -1.4322 -0.1446
   51MOL   O49931599   7.224   3.604   3.532  0.2199  0.2622  0.3072
   51MOL   C50031600   7.327   3.503   3.507  0.9999  0.2101  0.4320
   51MOL   C50131601   7.453   3.548   3.570  0.1778  0.3234  0.2097
   51MOL   C50231602   7.456   3.506   3.720  0.1597 -0.3999 -0.3124
   51MOL   C50331603   7.564   3.582   3.812  0.5478  0.5571 -0.5218
   51MOL   C50431604   7.708   3.569   3.761 -0.2089 -0.3448  0.6316
   51MOL   C50531605   0.031   3.667   3.826 -0.0143  0.2212  0.7069
   51MOL   C50631606   0.046   3.637   3.972 -0.1933 -0.7132  0.4440
   51MOL   C50731607   0.131   3.751   4.046 -0.1910  0.9189 -0.2854
   51MOL   C50831608   7.160   3.706   3.327 -0.6560  0.4176 -0.1493
   51MOL   H50931609   7.109   3.499   3.383 -0.2634 -1.1312 -0.7464
   51MOL   H51031610   7.344   3.497   3.399 -1.6802  1.5191 -0.1119
   51MOL   H51131611   7.283   3.410   3.541  1.3668 -1.1710 -2.6290
   51MOL   H51231612   7.465   3.656   3.576  0.5384  0.1892  2.3975
   51MOL   H51331613   7.529   3.498   3.511  1.5565  2.6270 -0.0226
   51MOL   H51431614   7.354   3.529   3.750  0.5638  1.5074 -0.2968
   51MOL   H51531615   7.467   3.398   3.723 -1.7113 -0.5745  2.1919
   51MOL   H51631616   7.536   3.686   3.828  1.4227  0.8249 -0.7000
   51MOL   H51731617   7.561   3.539   3.912 -0.6870 -1.4208 -1.3792
   51MOL   H51831618   7.764   3.476   3.758 -0.7733 -0.6405 -1.2313
   51MOL   H51931619   7.707   3.595   3.656 -1.1070 -1.2768  0.4056
   51MOL   H52031620   7.764   3.768   3.814  0.3040  0.0442 -2.2503
   51MOL   H52131621   0.126   3.655   3.773 -2.1504 -0.9743 -3.0542
   51MOL   H52231622   7.729   3.618   4.028  0.1821  3.3446  2.6275
   51MOL   H52331623   0.098   3.541   3.978  0.0373 -0.6922 -0.9178
   51MOL   H52431624   0.090   3.850   4.026  0.6583  1.2825 -0.2642
   51MOL   H52531625   0.237   3.744   4.020 -0.4414  0.9420 -1.3144
   51MOL   H52631626   0.131   3.737   4.154  2.2450  0.5728 -0.2999
   51MOL   H52731627   7.144   3.804   3.372  0.0373  1.3717 -1.9101
   51MOL   H52831628   7.260   3.696   3.286 -1.4380  0.5124 -2.1859
   51MOL   C52931629   7.068   3.704   3.206  0.5764  0.8734 -0.5739
   51MOL   O53031630   7.057   3.570   3.150  0.7475 -0.4703  0.8412
   51MOL   C53131631   6.922   3.544   3.104 -0.3282  0.5963  0.2512
   51MOL   C53231632   6.918   3.414   3.029 -0.1271  0.7220  0.0759
   51MOL   C53331633   6.996   3.426   2.898 -0.3428 -0.1899  0.2733
   51MOL   C53431634   6.961   3.307   2.811 -0.2812  0.5269  0.7038
   51MOL   C53531635   7.026   3.326   2.675 -0.3014 -0.0061  0.3571
   51MOL   C53631636   7.177   3.301   2.676  0.3289 -0.5329 -0.3573
   51MOL   C53731637   7.255   3.310   2.543  0.2376  0.6014 -0.0377
   51MOL   C53831638   7.407   3.309   2.568 -0.1511 -0.1059 -0.5483
   51MOL   C53931639   7.110   3.798   3.094 -0.4019 -0.4842 -0.2755
   51MOL   H54031640   6.968   3.734   3.237  0.4732 -0.1361  0.1132
   51MOL   H54131641   6.852   3.534   3.187 -0.0787 -0.6227  0.3103
   51MOL   H54231642   6.879   3.630   3.052 -0.7098  1.6818  2.3038
   51MOL   H54331643   6.812   3.395   3.008  0.3424 -0.8459 -1.0277
   51MOL   H54431644   6.958   3.333   3.090  0.3145  2.7633  2.5428
   51MOL   H54531645   6.985   3.518   2.840 -2.8755  0.2766  1.4078
   51MOL   H54631646   7.102   3.430   2.924 -0.6899  1.7907  1.4851
   51MOL   H54731647   6.992   3.218   2.865 -1.7128  0.5756  1.6286
   51MOL   H54831648   6.852   3.308   2.806 -0.3945 -1.0689  2.3490
   51MOL   H54931649   6.981   3.249   2.611  1.4472 -0.3779 -0.4522
   51MOL   H55031650   6.996   3.424   2.637 -2.1451  0.3345  2.6014
   51MOL   H55131651   7.199   3.205   2.723 -0.7617 -0.3819  0.4889
   51MOL   H55231652   7.224   3.367   2.750 -1.8253  3.4635 -2.3828
   51MOL   H55331653   7.226   3.224   2.483  1.8529 -0.3279  0.4656
   51MOL   H55431654   7.230   3.398   2.484 -3.2998 -0.9924 -0.9951
   51MOL   H55531655   7.459   3.330   2.475  0.0795 -1.9840 -0.8707
   51MOL   H55631656   7.444   3.220   2.620 -3.1849 -2.2888 -1.9949
   51MOL   H55731657   7.440   3.382   2.642 -1.8453 -1.2425  1.3832
   51MOL   H55831658   7.212   3.772   3.069  0.3622  1.3386  0.8105
   51MOL   H55931659   7.053   3.787   3.002  1.2489 -1.9660 -1.1430
   51MOL   C56031660   7.110   3.947   3.130 -0.2180  0.7096  0.0124
   51MOL   O56131661   6.980   3.979   3.187  0.7703  0.3728 -0.0406
   51MOL   C56231662   6.957   4.096   3.259 -0.1813  0.2323  0.3893
   51MOL   C56331663   6.820   4.085   3.337 -0.6242  0.0899  0.6999
   51MOL   C56431664   6.806   3.970   3.443  0.3373 -0.2771 -0.9056
   51MOL   C56531665   6.675   3.965   3.526  0.3043 -0.1833  0.0705
   51MOL   C56631666   6.669   3.834   3.610  0.2577 -0.4253 -0.2345
   51MOL   C56731667   6.543   3.829   3.699 -0.0082 -0.2277  0.1658
   51MOL   C56831668   6.535   3.937   3.807 -0.0099  0.0924  0.4381
   51MOL   C56931669   6.411   3.914   3.883 -0.0895  0.2197 -0.5809
   51MOL   C57031670   7.155   4.039   3.016 -0.0368  0.6287  0.2335
   51MOL   H57131671   7.175   3.957   3.217  3.5373  1.1351 -2.7202
   51MOL   H57231672   6.956   4.178   3.187  1.2825 -0.1400 -0.0723
   51MOL   H57331673   7.031   4.111   3.337 -0.4954 -1.0649  0.9564
   51MOL   H57431674   6.730   4.078   3.275 -0.7454  0.2144  0.8612
   51MOL   H57531675   6.820   4.178   3.393  0.3148  1.4924 -1.5700
   51MOL   H57631676   6.811   3.882   3.379 -3.6793 -1.3413  0.1081
   51MOL   H57731677   6.894   3.950   3.505  0.0403  0.1367 -0.3498
   51MOL   H57831678   6.669   4.043   3.602 -1.2940 -0.7628  0.5643
   51MOL   H57931679   6.592   3.968   3.456 -1.5351  0.9009  2.2243
   51MOL   H58031680   6.674   3.749   3.543 -0.7077  0.7090 -1.7771
   51MOL   H58131681   6.756   3.821   3.674  1.2790  1.8163 -1.0931
   51MOL   H58231682   6.547   3.727   3.737  1.7299 -0.7179 -1.2851
   51MOL   H58331683   6.457   3.836   3.632 -0.9023  2.8897  1.5507
   51MOL   H58431684   6.615   3.940   3.882 -0.2065 -0.3822  0.6671
   51MOL   H58531685   6.522   4.030   3.752 -2.0057 -1.5296 -1.9072
   51MOL   H58631686   6.325   3.896   3.820 -1.2841  1.7294  0.5832
   51MOL   H58731687   6.395   4.000   3.949 -0.6482  1.1191 -1.8710
   51MOL   H58831688   6.427   3.829   3.949  1.5543  0.0601 -1.1581
   51MOL   H58931689   7.078   4.045   2.940 -1.6580  0.9622  1.8560
   51MOL   H59031690   7.151   4.142   3.054  1.7308  0.3674  1.1829
   51MOL   C59131691   7.301   4.024   2.965  0.3640 -0.8993  0.2514
   51MOL   O59231692   7.322   3.900   2.907  0.5364  0.0800  0.6505
   51MOL   C59331693   7.290   3.887   2.770  0.0505 -0.2308  0.4907
   51MOL   C59431694   7.322   3.744   2.739  0.7385  0.0947  0.8046
   51MOL   C59531695   7.303   3.696   2.594  0.0002 -0.2872  0.4852
   51MOL   C59631696   7.434   3.702   2.510  0.5191 -0.0448  0.2485
   51MOL   C59731697   7.421   3.628   2.376  0.4338 -0.7499 -0.1675
   51MOL   C59831698   7.547   3.635   2.285 -0.7242  0.9489  0.5634
   51MOL   C59931699   7.524   3.547   2.157  0.2056 -0.1700 -0.5008
   51MOL   C60031700   7.626   3.560   2.048  0.1519 -0.3769 -0.4572
   51MOL   C60131701   7.407   4.033   3.080 -0.3098  0.3270 -0.4306
   51MOL   H60231702   7.336   4.107   2.904  0.6074 -0.2433  1.2712
   51MOL   H60331703   7.348   3.958   2.711  3.3850 -2.7404  0.5904
   51MOL   H60431704   7.184   3.899   2.751  0.6846  0.6517 -2.8743
   51MOL   H60531705   7.258   3.678   2.799 -0.4777  0.7423  0.2400
   51MOL   H60631706   7.421   3.718   2.776  1.0707 -0.3648 -0.3947
   51MOL   H60731707   7.283   3.589   2.596  1.9522 -0.6615  0.4693
   51MOL   H60831708   7.216   3.743   2.548  0.2789 -0.9701 -0.7421
   51MOL   H60931709   7.473   3.802   2.494 -0.6734  0.6343  1.4209
   51MOL   H61031710   7.516   3.662   2.570 -1.1217 -1.5466  1.5797
   51MOL   H61131711   7.406   3.522   2.393  0.2063 -0.9840 -1.7424
   51MOL   H61231712   7.327   3.656   2.328  0.7952  1.5478  0.4134
   51MOL   H61331713   7.634   3.586   2.328  0.1171  0.7056 -1.3518
   51MOL   H61431714   7.564   3.732   2.238 -0.0409  0.7616  0.4123
   51MOL   H61531715   7.503   3.441   2.172 -0.7579  0.0243 -0.4472
   51MOL   H61631716   7.426   3.578   2.122  0.3307  0.2381 -0.4885
   51MOL   H61731717   7.728   3.542   2.082 -0.1239  1.0692  1.1918
   51MOL   H61831718   7.620   3.659   2.003  1.2716  0.4674  1.1968
   51MOL   H61931719   7.607   3.488   1.968  0.9323 -1.2880  0.1625
   51MOL   H62031720   7.389   3.964   3.162  0.0983 -0.5874 -1.0894
   51MOL   H62131721   7.510   4.037   3.043  0.3731  3.1285  1.5907
   51MOL   H62231722   7.402   4.128   3.133  0.2695  0.3192 -0.3505
   52MOL     C131723   0.986   3.674   0.895  0.0598 -0.4993  0.7850
   52MOL     O231724   1.049   3.713   0.775  0.2107  0.3784 -0.4795
   52MOL     C331725   1.034   3.613   0.675  0.2420 -0.1222 -0.1920
   52MOL     C431726   1.100   3.659   0.542  0.0226  0.2286 -0.4284
   52MOL     C531727   1.250   3.663   0.571  0.3627  0.0815  0.3323
   52MOL     C631728   1.332   3.728   0.463 -0.1698 -0.4768  0.8480
   52MOL     C731729   1.481   3.724   0.503  0.3686  0.3874 -0.0201
   52MOL     C831730   1.566   3.772   0.385 -0.0129 -0.0725 -0.1697
   52MOL     C931731   1.715   3.777   0.415 -0.7063  0.1042  0.5956
   52MOL    C1031732   1.760   3.898   0.499 -0.1936  0.0440 -0.1045
   52MOL    C1131733   1.083   3.594   0.988 -0.2813  0.3575  0.3093
   52MOL    H1231734   0.956   3.768   0.941  0.3518  0.6404 -1.2557
   52MOL    H1331735   0.930   3.593   0.650  0.2089 -1.0681  0.7024
   52MOL    H1431736   1.060   3.510   0.698 -0.4569 -0.8603 -2.5272
   52MOL    H1531737   1.066   3.757   0.511  3.2523  1.9241  1.1108
   52MOL    H1631738   1.075   3.585   0.466  1.3277  0.3859 -1.0274
   52MOL    H1731739   1.261   3.728   0.658 -1.3221 -0.6488  1.1160
   52MOL    H1831740   1.278   3.561   0.597  0.6454 -0.1378 -0.8327
   52MOL    H1931741   1.319   3.681   0.365  0.6682 -0.5823  0.7810
   52MOL    H2031742   1.303   3.832   0.448 -0.0751 -0.4634  0.7561
   52MOL    H2131743   1.506   3.785   0.590  1.8407 -1.3110  0.7749
   52MOL    H2231744   1.514   3.625   0.535  0.3907  0.3034 -0.3022
   52MOL    H2331745   1.530   3.866   0.343 -0.7198  0.2943  1.2245
   52MOL    H2431746   1.556   3.698   0.306 -1.4842 -1.9141  1.6921
   52MOL    H2531747   1.758   3.686   0.459  2.7513  0.9295 -0.8529
   52MOL    H2631748   1.764   3.788   0.319 -0.3417  0.1354  0.7829
   52MOL    H2731749   1.708   3.993   0.486  1.4612  0.9049 -0.5346
   52MOL    H2831750   1.866   3.921   0.490 -0.1629  0.2956  0.8435
   52MOL    H2931751   1.735   3.877   0.603 -0.0843  3.5769  0.6921
   52MOL    H3031752   1.035   3.598   1.085 -0.6865 -1.1453  0.1828
   52MOL    H3131753   1.093   3.487   0.967 -2.2160  0.0727  0.7310
   52MOL    H3231754   0.898   3.610   0.891 -0.3024  0.0986 -1.8627
   52MOL    C3331755   1.224   3.650   1.024 -0.6263 -0.0103 -0.4047
   52MOL    O3431756   1.301   3.558   1.097  0.1002  0.2621  0.2213
   52MOL    C3531757   1.337   3.443   1.018  0.5973 -0.1034 -0.1039
   52MOL    C3631758   1.487   3.413   1.034 -0.4036  0.5142 -0.2549
   52MOL    C3731759   1.568   3.540   1.019 -0.0756  0.6503  0.5637
   52MOL    C3831760   1.714   3.504   1.039 -0.0069  0.2766 -0.3188
   52MOL    C3931761   1.802   3.631   1.046 -0.6853  0.2015 -0.1528
   52MOL    C4031762   1.837   3.708   0.920 -0.0216  0.4175  1.0738
   52MOL    C4131763   1.960   3.801   0.945 -0.4328 -0.7914  0.6268
   52MOL    C4231764   1.956   3.926   0.851 -0.0345 -0.3796  0.1306
   52MOL    C4331765   1.205   3.770   1.126 -0.6354 -0.4423 -0.1622
   52MOL    H4431766   1.268   3.680   0.928 -1.3316  0.5208 -0.5630
   52MOL    H4531767   1.309   3.449   0.913  0.9146  0.6929 -0.1517
   52MOL    H4631768   1.281   3.359   1.060  0.1059  0.5273  0.5260
   52MOL    H4731769   1.512   3.342   0.955 -1.1477  0.8570 -0.8129
   52MOL    H4831770   1.507   3.377   1.135 -0.7780  1.1757  0.0530
   52MOL    H4931771   1.561   3.576   0.917  4.1907 -0.5066 -0.1917
   52MOL    H5031772   1.533   3.622   1.083  0.2690  3.0811 -2.2489
   52MOL    H5131773   1.733   3.439   1.124 -2.6339 -0.9628 -0.6266
   52MOL    H5231774   1.744   3.440   0.956 -2.2261 -1.8488  0.4629
   52MOL    H5331775   1.761   3.691   1.127 -1.2215  1.4421 -1.3250
   52MOL    H5431776   1.901   3.605   1.084 -0.6612  0.0052 -0.3475
   52MOL    H5531777   1.747   3.758   0.886  0.9616  0.7059 -1.2180
   52MOL    H5631778   1.858   3.637   0.840  2.2915  0.2795  1.7676
   52MOL    H5731779   1.965   3.832   1.049 -1.7440  1.6519  0.0070
   52MOL    H5831780   2.055   3.750   0.929  0.2948  0.6453  0.3228
   52MOL    H5931781   2.024   4.007   0.878  0.2031 -0.1651 -1.0886
   52MOL    H6031782   1.859   3.975   0.838  0.3718  0.8259  1.4621
   52MOL    H6131783   1.996   3.905   0.752  0.3611  2.9506 -0.4726
   52MOL    H6231784   1.132   3.843   1.091  2.5949  1.1984 -3.9215
   52MOL    H6331785   1.168   3.716   1.213 -0.4060  0.0975  0.2712
   52MOL    C6431786   1.338   3.848   1.156 -0.0594 -0.0010 -0.0270
   52MOL    O6531787   1.328   3.936   1.272  0.5255 -0.1609 -0.5258
   52MOL    C6631788   1.378   3.891   1.400  0.4199  0.0104 -0.2776
   52MOL    C6731789   1.359   4.004   1.500  0.0223 -1.0644 -0.2645
   52MOL    C6831790   1.443   4.133   1.491  0.5222  0.5213  0.6576
   52MOL    C6931791   1.432   4.219   1.614 -0.3547 -0.1322  0.7214
   52MOL    C7031792   1.535   4.332   1.623 -0.2686  0.2425 -0.5610
   52MOL    C7131793   1.531   4.408   1.755  0.2827  0.3814  0.1842
   52MOL    C7231794   1.410   4.508   1.756  0.0192  0.6600 -0.1965
   52MOL    C7331795   1.419   4.624   1.648 -0.6652 -0.4070  0.2362
   52MOL    C7431796   1.406   3.939   1.053 -0.2203 -0.6187 -0.3634
   52MOL    H7531797   1.414   3.771   1.174 -0.4170 -0.8339 -1.9986
   52MOL    H7631798   1.485   3.868   1.394  0.3763 -1.8464  4.4019
   52MOL    H7731799   1.340   3.792   1.422  2.2558 -0.5452  0.5297
   52MOL    H7831800   1.379   3.970   1.602  0.0870 -0.6735 -0.1468
   52MOL    H7931801   1.255   4.034   1.504 -1.0595 -4.6007  0.0608
   52MOL    H8031802   1.548   4.107   1.478  0.4942  2.0641 -3.4727
   52MOL    H8131803   1.407   4.181   1.400 -0.3408  0.1119  0.7783
   52MOL    H8231804   1.334   4.257   1.643 -0.4145  2.0060 -2.0084
   52MOL    H8331805   1.452   4.158   1.702  0.1363 -1.7319 -0.4863
   52MOL    H8431806   1.626   4.273   1.634 -0.8363 -0.8429 -1.6456
   52MOL    H8531807   1.542   4.387   1.530  1.5451 -0.4982 -0.8792
   52MOL    H8631808   1.625   4.463   1.759  0.9366 -0.6488 -0.6261
   52MOL    H8731809   1.518   4.334   1.834 -0.7563 -0.1769 -0.4898
   52MOL    H8831810   1.318   4.450   1.752 -0.7357  1.7100  1.5673
   52MOL    H8931811   1.379   4.555   1.849 -0.9355 -1.1266  0.4187
   52MOL    H9031812   1.479   4.590   1.564 -2.1799  0.3372 -1.1659
   52MOL    H9131813   1.468   4.712   1.690 -0.0179  0.2553 -1.8171
   52MOL    H9231814   1.319   4.645   1.610 -0.6390 -1.0813 -0.2121
   52MOL    H9331815   1.495   3.992   1.087  0.7160 -2.1550 -0.4045
   52MOL    H9431816   1.447   3.868   0.982 -0.0090  0.2484 -1.1243
   52MOL    C9531817   1.324   4.038   0.958  0.2509  0.0828  0.1563
   52MOL    O9631818   1.416   4.083   0.859 -0.0354  0.3857  0.4113
   52MOL    C9731819   1.366   4.070   0.727 -0.3207 -0.1299  0.3229
   52MOL    C9831820   1.436   4.155   0.625  0.6700 -0.1472  0.8480
   52MOL    C9931821   1.423   4.310   0.651  0.3099  0.4884 -0.4740
   52MOL   C10031822   1.510   4.403   0.555 -0.6017  0.5035 -0.2520
   52MOL   C10131823   1.468   4.548   0.566 -0.4643 -0.3768  0.0743
   52MOL   C10231824   1.494   4.611   0.423  0.0772 -0.7901 -0.0559
   52MOL   C10331825   1.498   4.760   0.406  0.5871 -0.4221  0.6197
   52MOL   C10431826   1.555   4.805   0.270  0.6021 -1.0740  0.0429
   52MOL   C10531827   1.269   4.163   1.013  0.3325  0.1410  0.3389
   52MOL   H10631828   1.242   3.979   0.917  0.5634  0.9307 -1.7358
   52MOL   H10731829   1.261   4.094   0.712 -0.2168 -0.5605 -1.2063
   52MOL   H10831830   1.379   3.964   0.705  0.6263  0.1071 -0.3104
   52MOL   H10931831   1.403   4.126   0.525 -1.5159  0.4313  1.3872
   52MOL   H11031832   1.536   4.114   0.642  0.4432 -1.3136 -0.4957
   52MOL   H11131833   1.316   4.333   0.650 -0.0762 -1.2447 -0.0910
   52MOL   H11231834   1.443   4.334   0.756 -0.3849 -0.4109 -0.1327
   52MOL   H11331835   1.617   4.392   0.570 -0.6597  2.9327  2.3828
   52MOL   H11431836   1.488   4.354   0.460 -1.0958  0.8583 -0.3249
   52MOL   H11531837   1.363   4.560   0.596 -0.7825 -0.3469 -1.0137
   52MOL   H11631838   1.531   4.596   0.641  0.4273 -2.9117  0.9654
   52MOL   H11731839   1.417   4.571   0.358  0.1372 -2.2514  0.7316
   52MOL   H11831840   1.589   4.572   0.388  0.7548  0.3793  0.4466
   52MOL   H11931841   1.397   4.798   0.391  0.8678 -0.4675 -1.5369
   52MOL   H12031842   1.544   4.807   0.492  1.2512 -0.0817  0.0830
   52MOL   H12131843   1.524   4.907   0.248  2.0342 -0.6937 -0.3079
   52MOL   H12231844   1.516   4.743   0.189  0.1553 -0.8838  0.1149
   52MOL   H12331845   1.664   4.813   0.265  0.4587  0.2414 -1.2198
   52MOL   H12431846   1.349   4.191   1.081  0.8293 -0.7666  0.1405
   52MOL   H12531847   1.250   4.233   0.932 -0.8021 -1.8100 -1.1148
   52MOL   C12631848   1.153   4.148   1.105  0.5200  0.6178  0.4512
   52MOL   O12731849   1.043   4.093   1.024  0.3960  0.2368 -0.6180
   52MOL   C12831850   0.937   4.045   1.105 -0.0103  0.2309 -0.3051
   52MOL   C12931851   0.811   4.016   1.013  0.6368 -1.5070 -0.0914
   52MOL   C13031852   0.709   3.929   1.094 -0.3907 -0.1383 -0.1879
   52MOL   C13131853   0.582   3.912   1.013 -0.1883  0.4513 -0.8669
   52MOL   C13231854   0.483   3.829   1.093  0.0771  0.4890  0.1615
   52MOL   C13331855   0.353   3.799   1.011 -0.9803  0.2026 -0.3142
   52MOL   C13431856   0.231   3.748   1.101 -0.1563  0.2325  0.5634
   52MOL   C13531857   0.108   3.685   1.030 -0.3545  0.2547 -0.5011
   52MOL   C13631858   1.125   4.293   1.154  0.3174  0.5286  0.2567
   52MOL   H13731859   1.166   4.085   1.193  0.8588  0.1089  0.0431
   52MOL   H13831860   0.899   4.108   1.185 -0.9775  0.9389 -1.2943
   52MOL   H13931861   0.952   3.951   1.158 -0.8785  0.8042  0.9919
   52MOL   H14031862   0.850   3.961   0.927  0.7889 -1.6078  0.0435
   52MOL   H14131863   0.768   4.115   0.994  0.4096 -1.3093  1.4109
   52MOL   H14231864   0.754   3.839   1.135  0.2168  1.4369  2.7456
   52MOL   H14331865   0.676   3.987   1.180  0.4959 -1.3363  0.9785
   52MOL   H14431866   0.534   4.007   0.992  2.4388  1.9721 -0.2161
   52MOL   H14531867   0.599   3.871   0.913  0.8645  1.7054 -1.2091
   52MOL   H14631868   0.531   3.742   1.138  0.8880  0.2010 -1.2580
   52MOL   H14731869   0.450   3.890   1.177  4.7290  2.9741  0.3597
   52MOL   H14831870   0.373   3.730   0.928 -0.2269  1.2183 -0.9853
   52MOL   H14931871   0.314   3.890   0.967 -0.5210 -0.3763 -1.9652
   52MOL   H15031872   0.274   3.679   1.174  0.2324  0.7017  0.7783
   52MOL   H15131873   0.201   3.832   1.163  0.8384  1.7639 -0.9805
   52MOL   H15231874   0.024   3.682   1.100 -1.2692  0.4656 -1.5811
   52MOL   H15331875   0.126   3.580   1.009  0.0342  0.1219  0.4302
   52MOL   H15431876   0.091   3.733   0.934 -1.4692 -1.0387 -0.9653
   52MOL   H15531877   1.038   4.289   1.220 -0.1023  2.2830 -0.1572
   52MOL   H15631878   1.212   4.314   1.215  0.6054 -2.2522  0.8947
   52MOL   C15731879   1.100   4.413   1.054  0.5570 -0.5427 -0.1995
   52MOL   O15831880   1.059   4.530   1.120  0.2560 -0.2798  0.5205
   52MOL   C15931881   1.160   4.602   1.179 -0.2061 -0.1633  0.5104
   52MOL   C16031882   1.104   4.736   1.221 -0.7145  0.7564  0.3648
   52MOL   C16131883   1.064   4.830   1.111 -0.0770 -0.1687 -0.6652
   52MOL   C16231884   1.041   4.972   1.145  0.5000 -0.3719  0.4919
   52MOL   C16331885   1.139   5.056   1.225  0.1733 -0.5530  0.1042
   52MOL   C16431886   1.083   5.197   1.240 -0.2134 -0.1084  0.3826
   52MOL   C16531887   1.174   5.277   1.323  0.7155 -1.6600 -0.9268
   52MOL   C16631888   1.133   5.433   1.339  0.2866  0.2616 -0.2863
   52MOL   C16731889   0.983   4.379   0.959 -0.6797 -0.1137 -0.6581
   52MOL   H16831890   1.192   4.434   0.999 -0.6248  0.2067 -1.9403
   52MOL   H16931891   1.238   4.631   1.109 -0.0579  0.0558  0.7644
   52MOL   H17031892   1.220   4.551   1.254  1.3903 -2.1843 -2.0439
   52MOL   H17131893   1.192   4.785   1.262 -0.9524  1.5683 -0.0839
   52MOL   H17231894   1.033   4.721   1.302  0.2865 -0.6169  1.0071
   52MOL   H17331895   1.141   4.822   1.034  0.0307  1.0997 -0.7139
   52MOL   H17431896   0.979   4.801   1.049  0.0657  0.3410 -1.1067
   52MOL   H17531897   1.016   5.027   1.055  1.3214 -0.1853  0.3681
   52MOL   H17631898   0.947   4.973   1.199  0.4421  1.3747  0.3802
   52MOL   H17731899   1.143   5.010   1.324 -0.4339  0.6109  0.6755
   52MOL   H17831900   1.235   5.042   1.175  1.3028  2.5359  1.3243
   52MOL   H17931901   0.981   5.201   1.278 -0.5740  1.4311 -0.7139
   52MOL   H18031902   1.072   5.247   1.144 -0.6117  0.7136  0.8483
   52MOL   H18131903   1.196   5.235   1.422  1.0401 -1.2432 -0.8234
   52MOL   H18231904   1.273   5.292   1.282 -1.1116  1.7456 -4.3838
   52MOL   H18331905   1.190   5.466   1.425 -1.8564 -0.3715  1.4433
   52MOL   H18431906   1.031   5.431   1.378  0.6426 -0.5027  0.6298
   52MOL   H18531907   1.148   5.493   1.249  1.5672  1.0782  0.4698
   52MOL   H18631908   1.025   4.306   0.891  0.4106  0.9964 -1.1959
   52MOL   H18731909   0.899   4.332   1.011  0.2701 -0.1612  0.8534
   52MOL   C18831910   0.946   4.487   0.858 -0.5139 -0.4838  0.3717
   52MOL   O18931911   0.823   4.468   0.791  0.4209  0.4654  0.2143
   52MOL   C19031912   0.699   4.481   0.869 -0.5222 -0.2149 -0.6433
   52MOL   C19131913   0.664   4.630   0.860  0.9320 -0.4948  0.2705
   52MOL   C19231914   0.598   4.666   0.728  0.1715 -0.7778 -0.0565
   52MOL   C19331915   0.563   4.813   0.723 -0.1251  0.4146 -0.3891
   52MOL   C19431916   0.517   4.850   0.587 -0.1803  0.8283  0.5141
   52MOL   C19531917   0.496   5.005   0.571  0.3766 -0.8543 -0.0750
   52MOL   C19631918   0.379   5.070   0.650  0.6476  0.2236  0.3332
   52MOL   C19731919   0.351   5.218   0.619  0.1503 -0.2023  0.1138
   52MOL   C19831920   1.050   4.509   0.754  0.0587  0.5747  0.3821
   52MOL   H19931921   0.943   4.585   0.906  0.4909  0.2344 -1.0025
   52MOL   H20031922   0.621   4.414   0.833 -1.9557  1.4761 -0.7521
   52MOL   H20131923   0.725   4.461   0.973  1.7223 -1.1343 -1.3435
   52MOL   H20231924   0.747   4.699   0.879  1.3508 -1.3284  1.5933
   52MOL   H20331925   0.592   4.655   0.938 -1.1437 -1.1290 -1.4033
   52MOL   H20431926   0.671   4.656   0.647 -2.9616  0.6767 -3.2271
   52MOL   H20531927   0.516   4.599   0.705  0.7841 -1.5575  0.0007
   52MOL   H20631928   0.486   4.832   0.797 -0.1350  1.3763 -0.6477
   52MOL   H20731929   0.650   4.873   0.750  0.3755 -0.5160  0.0980
   52MOL   H20831930   0.591   4.816   0.515  0.2250  4.0586 -0.6700
   52MOL   H20931931   0.421   4.801   0.575  1.0226 -2.0413  2.2234
   52MOL   H21031932   0.477   5.034   0.468  2.2783  2.7145  0.5155
   52MOL   H21131933   0.588   5.061   0.582 -1.0299  1.4325  0.3135
   52MOL   H21231934   0.296   5.023   0.597  0.2896  1.8200 -0.5609
   52MOL   H21331935   0.379   5.046   0.756 -1.1308 -0.1727  0.2673
   52MOL   H21431936   0.265   5.257   0.673 -0.1130  1.4177 -1.3964
   52MOL   H21531937   0.336   5.247   0.515 -2.2496  2.0418  1.0229
   52MOL   H21631938   0.443   5.273   0.641  0.2966 -1.3263  2.4433
   52MOL   H21731939   1.143   4.523   0.809  0.5523 -2.3186  0.3219
   52MOL   H21831940   1.052   4.413   0.703 -2.1768  0.6702  0.0560
   52MOL   C21931941   1.033   4.633   0.666 -0.5202  0.2494  0.8986
   52MOL   O22031942   1.080   4.621   0.533  0.3880  0.0239 -0.1765
   52MOL   C22131943   0.987   4.550   0.449  0.0028 -0.4306  0.6319
   52MOL   C22231944   1.037   4.571   0.306 -0.8623  0.6985  1.1435
   52MOL   C22331945   1.060   4.721   0.278  0.2165 -0.5167 -0.5164
   52MOL   C22431946   1.103   4.742   0.140  0.2220 -0.3595 -0.2688
   52MOL   C22531947   1.118   4.893   0.103 -0.8812  0.0609 -0.2175
   52MOL   C22631948   1.225   4.982   0.179  0.6774  0.5261 -0.4348
   52MOL   C22731949   1.250   5.118   0.122 -0.7728 -0.0995 -0.1603
   52MOL   C22831950   1.341   5.206   0.211  0.8005 -1.0087  0.1102
   52MOL   C22931951   1.111   4.745   0.739 -0.2621 -0.0946 -0.2430
   52MOL   H23031952   0.929   4.664   0.668 -0.5767  0.1575 -0.5955
   52MOL   H23131953   0.883   4.581   0.453  0.4067  1.0433 -0.0469
   52MOL   H23231954   0.990   4.444   0.473  0.5781 -0.0688  2.2726
   52MOL   H23331955   0.976   4.521   0.231  0.2241  0.7378  0.2179
   52MOL   H23431956   1.130   4.516   0.292 -0.3560  1.8699 -0.1957
   52MOL   H23531957   0.970   4.780   0.288  1.2459  0.8973  0.6540
   52MOL   H23631958   1.129   4.760   0.354 -0.3032 -2.5932  1.0788
   52MOL   H23731959   1.193   4.683   0.126 -0.8624 -2.6716  2.0238
   52MOL   H23831960   1.039   4.693   0.067  2.2870 -1.1042 -1.6260
   52MOL   H23931961   1.151   4.898   7.774 -0.2951 -0.4428 -0.0537
   52MOL   H24031962   1.022   4.945   0.097 -1.1593 -0.4808 -0.4199
   52MOL   H24131963   1.309   4.913   0.177 -1.5079 -2.2129 -0.0321
   52MOL   H24231964   1.185   4.993   0.280  2.3501  0.9510  0.1952
   52MOL   H24331965   1.294   5.109   0.023  0.4232  0.5478  0.3091
   52MOL   H24431966   1.154   5.162   0.095  0.3658  1.5212 -1.6922
   52MOL   H24531967   1.298   5.226   0.309 -2.6872 -2.3421 -1.0728
   52MOL   H24631968   1.375   5.299   0.165 -0.8821  0.2457  1.3116
   52MOL   H24731969   1.433   5.164   0.251  3.8724  3.3231 -1.9677
   52MOL   H24831970   1.109   4.739   0.847 -1.7156 -0.6778 -0.2945
   52MOL   H24931971   1.217   4.720   0.726 -0.4749 -3.3181  3.3348
   52MOL   C25031972   1.083   4.885   0.683 -0.0600  0.6609  1.0749
   52MOL   O25131973   1.185   4.972   0.732 -0.7036  0.1937  0.0376
   52MOL   C25231974   1.317   4.948   0.670 -0.1350 -0.4395 -0.1428
   52MOL   C25331975   1.339   5.092   0.622 -0.0779 -0.8286  0.8356
   52MOL   C25431976   1.486   5.115   0.577  0.7165  0.0958 -0.0074
   52MOL   C25531977   1.506   5.268   0.560  0.2184 -0.3574 -0.2525
   52MOL   C25631978   1.638   5.303   0.493  0.5345  0.4353 -0.0747
   52MOL   C25731979   1.657   5.447   0.456 -0.0892 -0.3214 -0.6198
   52MOL   C25831980   1.797   5.468   0.386  0.1190 -0.2945 -0.3768
   52MOL   C25931981   1.819   5.615   0.338  0.1101 -0.2247  0.0513
   52MOL   C26031982   0.943   4.942   0.723 -0.5672  0.4902 -0.4092
   52MOL   H26131983   1.088   4.880   0.575 -1.3557 -2.8407  1.1211
   52MOL   H26231984   1.323   4.878   0.587  0.0845  0.7312 -1.1234
   52MOL   H26331985   1.389   4.927   0.750  0.5620 -0.8930 -0.8894
   52MOL   H26431986   1.324   5.170   0.698 -2.3141  0.4615 -0.8826
   52MOL   H26531987   1.278   5.122   0.537  1.8844 -2.1131 -1.0554
   52MOL   H26631988   1.555   5.088   0.657 -0.8610  0.5168  1.5427
   52MOL   H26731989   1.518   5.054   0.493  0.6171 -0.2914  0.2341
   52MOL   H26831990   1.425   5.309   0.499  0.0327 -0.3165  0.0158
   52MOL   H26931991   1.500   5.318   0.657  0.5905 -0.6360 -0.0825
   52MOL   H27031992   1.710   5.278   0.570  0.0392 -0.1115  0.2146
   52MOL   H27131993   1.658   5.238   0.407 -3.1589  1.6247 -1.9725
   52MOL   H27231994   1.657   5.513   0.543  0.0681 -1.2109  0.0502
   52MOL   H27331995   1.580   5.488   0.390 -1.0428 -0.0812  0.6191
   52MOL   H27431996   1.877   5.451   0.458 -0.1959  1.2033  0.3544
   52MOL   H27531997   1.821   5.393   0.311 -0.2060  1.1309 -1.9471
   52MOL   H27631998   1.926   5.625   0.322  0.2206  1.1382  1.5802
   52MOL   H27731999   1.804   5.694   0.412  1.4743 -0.4191  0.5450
   52MOL   H27832000   1.769   5.645   0.246  2.1069  1.4087 -0.5248
   52MOL   H27932001   0.868   4.878   0.676 -0.5064  0.3172 -0.2733
   52MOL   H28032002   0.929   4.923   0.829  1.6176 -0.0921 -0.1976
   52MOL   C28132003   0.907   5.083   0.680 -0.1699  0.9083 -0.3165
   52MOL   O28232004   0.784   5.117   0.733  0.7755  0.0725 -0.0398
   52MOL   C28332005   0.787   5.209   0.841 -0.0890 -0.6924  0.2195
   52MOL   C28432006   0.641   5.227   0.889 -0.0858  0.0786 -1.0293
   52MOL   C28532007   0.581   5.111   0.961  0.1710 -0.2524  0.2033
   52MOL   C28632008   0.446   5.141   1.028  0.2525  0.0409  0.1063
   52MOL   C28732009   0.379   5.015   1.078 -0.1918 -0.0746  0.2472
   52MOL   C28832010   0.455   4.949   1.195  0.1934  0.2727 -0.1500
   52MOL   C28932011   0.363   4.846   1.258 -0.4050 -0.9209 -0.0725
   52MOL   C29032012   0.438   4.750   1.345 -0.9377  0.3840 -0.5665
   52MOL   C29132013   0.889   5.096   0.525 -0.8478 -0.7894  0.1157
   52MOL   H29232014   0.989   5.150   0.708 -0.6718  1.4894 -0.2350
   52MOL   H29332015   0.832   5.304   0.814  0.1327 -1.2503 -1.4654
   52MOL   H29432016   0.848   5.166   0.920 -1.7525 -4.2437 -0.3263
   52MOL   H29532017   0.574   5.270   0.815  0.2125 -0.1651 -1.4376
   52MOL   H29632018   0.645   5.316   0.953 -0.3090 -1.3200  0.9655
   52MOL   H29732019   0.581   5.026   0.893 -0.5604 -1.3331  1.5352
   52MOL   H29832020   0.649   5.082   1.042 -0.2522 -0.2398  0.5640
   52MOL   H29932021   0.474   5.216   1.102 -0.0194 -0.1936  0.4496
   52MOL   H30032022   0.382   5.178   0.948  1.3095  1.9984  0.1367
   52MOL   H30132023   0.284   5.049   1.118  0.2609 -0.8089  1.9835
   52MOL   H30232024   0.360   4.938   1.003  0.3430 -0.8131  0.8614
   52MOL   H30332025   0.484   5.020   1.272  2.2960  0.2104 -0.8440
   52MOL   H30432026   0.541   4.891   1.160 -1.1455 -1.2584 -0.9940
   52MOL   H30532027   0.288   4.903   1.312  2.4075  1.0811  1.8798
   52MOL   H30632028   0.304   4.795   1.182 -0.6799 -2.4363  1.1340
   52MOL   H30732029   0.514   4.704   1.282  0.2555  2.1233 -0.4436
   52MOL   H30832030   0.371   4.675   1.387 -0.9977  1.9833  2.3515
   52MOL   H30932031   0.482   4.806   1.427 -1.0843 -0.1822 -0.0998
   52MOL   H31032032   0.991   5.083   0.487 -0.6952  2.0605 -0.5515
   52MOL   H31132033   0.821   5.015   0.499 -0.2807 -1.3339  0.3118
   52MOL   C31232034   0.847   5.234   0.470  0.5849 -0.7385 -0.5576
   52MOL   O31332035   0.837   5.223   0.333 -0.1694 -0.0559  0.3191
   52MOL   C31432036   0.701   5.196   0.290  0.0420  0.3815  0.2289
   52MOL   C31532037   0.700   5.173   0.135 -0.3718 -0.3349  0.3783
   52MOL   C31632038   0.560   5.118   0.074 -1.2508 -0.5733 -0.7377
   52MOL   C31732039   0.452   5.230   0.078  0.8006 -0.0032 -0.1470
   52MOL   C31832040   0.321   5.186   0.004 -0.2740  1.0334 -0.2520
   52MOL   C31932041   0.201   5.257   0.072 -0.5470 -0.5533  0.2799
   52MOL   C32032042   0.058   5.228   0.031  0.1614  0.2864 -0.9154
   52MOL   C32132043   7.724   5.299   0.107  0.3494 -0.4206 -0.4438
   52MOL   C32232044   0.953   5.343   0.488 -0.2489 -0.7440  0.1529
   52MOL   H32332045   0.755   5.269   0.515  0.7368  1.0718 -1.6270
   52MOL   H32432046   0.627   5.272   0.313  0.6738  2.4282 -4.0521
   52MOL   H32532047   0.678   5.098   0.333 -0.1725  0.3237 -0.0185
   52MOL   H32632048   0.780   5.113   0.093 -1.3956 -2.4009  1.3280
   52MOL   H32732049   0.715   5.268   0.083 -1.5665 -0.7981 -0.8671
   52MOL   H32832050   0.565   5.084   7.745 -1.9907  0.4950 -1.1362
   52MOL   H32932051   0.526   5.035   0.136  2.0436 -1.0285  0.6180
   52MOL   H33032052   0.437   5.259   0.182  0.1795  0.9315 -0.4896
   52MOL   H33132053   0.497   5.314   0.025  0.5206  0.9962  1.1820
   52MOL   H33232054   0.323   5.204   7.670 -0.7724 -2.3612 -0.8593
   52MOL   H33332055   0.298   5.082   0.024 -0.4265  1.1019 -0.0782
   52MOL   H33432056   0.211   5.364   0.054  0.4965 -0.2335  2.5516
   52MOL   H33532057   0.212   5.250   0.181  0.6423 -0.7873  0.1565
   52MOL   H33632058   0.045   5.259   7.701 -0.4812  1.8857 -0.3668
   52MOL   H33732059   0.049   5.119   0.024 -0.2153  0.3422 -1.3280
   52MOL   H33832060   7.730   5.276   0.214 -0.0503 -2.5714 -0.8611
   52MOL   H33932061   7.631   5.252   0.075 -0.9581  1.6692  0.1920
   52MOL   H34032062   7.730   5.404   0.081 -0.4204  0.2915  2.0839
   52MOL   H34132063   1.006   5.320   0.580 -1.4346 -1.0119  0.7758
   52MOL   H34232064   1.035   5.332   0.417 -0.7536 -2.0252 -0.2447
   52MOL   C34332065   0.903   5.490   0.485 -0.0041 -0.3035 -0.0517
   52MOL   O34432066   0.812   5.501   0.596  0.3713 -0.1500  0.0348
   52MOL   C34532067   0.792   5.636   0.643  0.2755 -0.3604 -0.0122
   52MOL   C34632068   0.722   5.620   0.781  0.4217 -0.0824  0.3176
   52MOL   C34732069   0.575   5.597   0.763  0.8863  0.2765  0.2170
   52MOL   C34832070   0.498   5.567   0.894 -0.4192 -0.1717  0.7431
   52MOL   C34932071   0.348   5.566   0.859  0.4318 -0.2362  0.3880
   52MOL   C35032072   0.255   5.561   0.983 -1.1071 -0.2064 -0.3448
   52MOL   C35132073   0.111   5.543   0.949 -0.3192  0.1944  0.7639
   52MOL   C35232074   0.046   5.657   0.880 -0.0144  0.3331  0.2307
   52MOL   C35332075   0.837   5.534   0.356 -0.0891  0.1214 -0.0318
   52MOL   H35432076   0.988   5.554   0.510  0.3194 -0.9076  0.4173
   52MOL   H35532077   0.735   5.695   0.573 -1.0260  1.7657  2.7454
   52MOL   H35632078   0.891   5.680   0.657 -0.5169  1.5878 -0.5116
   52MOL   H35732079   0.733   5.712   0.839  2.5129 -2.1905  3.3661
   52MOL   H35832080   0.767   5.545   0.845  2.4836  0.3049 -0.6334
   52MOL   H35932081   0.536   5.681   0.707 -2.3624 -1.5614 -0.4137
   52MOL   H36032082   0.562   5.511   0.697 -0.2442 -0.2542  1.1186
   52MOL   H36132083   0.516   5.470   0.940  4.0023  1.2270  2.2898
   52MOL   H36232084   0.532   5.624   0.980 -0.1475 -0.2630  0.6958
   52MOL   H36332085   0.326   5.657   0.803 -2.4445 -2.0234 -1.4932
   52MOL   H36432086   0.348   5.476   0.798  0.9564 -0.5902  0.9017
   52MOL   H36532087   0.263   5.661   1.026 -1.0550 -0.9091  1.2913
   52MOL   H36632088   0.291   5.488   1.055  0.6081 -0.0783 -1.0662
   52MOL   H36732089   0.102   5.452   0.889 -0.1923 -0.2660  1.4411
   52MOL   H36832090   0.056   5.525   1.041  1.0406 -0.4693  1.4614
   52MOL   H36932091   0.088   5.665   0.780 -0.4772  0.2846  0.0298
   52MOL   H37032092   0.085   5.749   0.924 -1.3808  0.6048  0.9114
   52MOL   H37132093   7.711   5.656   0.876  0.0412 -0.5082 -1.8195
   52MOL   H37232094   0.740   5.490   0.335  0.1800 -0.0479 -0.9432
   52MOL   H37332095   0.818   5.639   0.379 -2.4001 -0.6297  1.5566
   52MOL   C37432096   0.942   5.533   0.242 -0.9698  0.0291 -0.0381
   52MOL   O37532097   1.052   5.621   0.287  0.1768  0.0859  0.1080
   52MOL   C37632098   1.176   5.573   0.244 -0.1865 -0.4450 -0.1948
   52MOL   C37732099   1.276   5.683   0.302  0.8959  0.5581  0.3717
   52MOL   C37832100   1.273   5.702   0.452  0.6651 -0.4511  0.4885
   52MOL   C37932101   1.388   5.781   0.504 -0.5619 -0.1175  0.3480
   52MOL   C38032102   1.408   5.790   0.660  0.2664 -1.0073 -0.3082
   52MOL   C38132103   1.528   5.879   0.707 -0.0727 -0.3618 -0.5886
   52MOL   C38232104   1.545   5.883   0.859 -0.2436  0.6100 -0.2367
   52MOL   C38332105   1.657   5.976   0.906 -0.0972 -0.9316 -0.3761
   52MOL   C38432106   0.886   5.587   0.105 -0.2543  0.0673 -0.0268
   52MOL   H38532107   0.982   5.433   0.225 -0.4370 -0.3420  3.0430
   52MOL   H38632108   1.178   5.567   0.135 -0.0928  2.1560 -0.3721
   52MOL   H38732109   1.198   5.481   0.297  0.9286 -0.5758 -0.8775
   52MOL   H38832110   1.247   5.776   0.254  1.9045  0.5199 -0.3137
   52MOL   H38932111   1.373   5.641   0.274  0.1700 -1.2593  0.5157
   52MOL   H39032112   1.171   5.733   0.477  0.3271  0.4313 -1.7829
   52MOL   H39132113   1.296   5.611   0.506  2.4470 -0.7259 -0.7019
   52MOL   H39232114   1.478   5.733   0.465 -0.0528  0.2873  1.0261
   52MOL   H39332115   1.388   5.881   0.461  1.0160 -0.3900 -0.3180
   52MOL   H39432116   1.328   5.848   0.706  0.7682  0.0995 -0.8276
   52MOL   H39532117   1.399   5.692   0.708  1.7655 -1.7853 -1.5559
   52MOL   H39632118   1.535   5.974   0.654  2.8161  0.0458  0.3901
   52MOL   H39732119   1.617   5.830   0.667  0.2926  0.6912 -1.0922
   52MOL   H39832120   1.449   5.901   0.908  0.6391  1.9032  1.0500
   52MOL   H39932121   1.566   5.780   0.886  1.2153  0.6565 -1.1313
   52MOL   H40032122   1.747   5.921   0.877  1.4945  1.2801  0.2594
   52MOL   H40132123   1.647   6.003   1.012 -2.9500 -1.0229 -0.5682
   52MOL   H40232124   1.654   6.068   0.848 -1.7289 -0.5099  0.3412
   52MOL   H40332125   0.974   5.587   0.041 -0.2528 -0.0685 -0.0261
   52MOL   H40432126   0.823   5.511   0.058 -0.2300 -0.5813  0.9654
   52MOL   C40532127   0.817   5.728   0.104 -0.4104 -0.2691 -0.1703
   52MOL   O40632128   0.692   5.702   0.168 -0.4235  0.6190  0.2216
   52MOL   C40732129   0.620   5.816   0.200  0.2756 -1.0679 -0.4341
   52MOL   C40832130   0.514   5.800   0.316 -0.3772  0.3086  0.2318
   52MOL   C40932131   0.420   5.678   0.308  0.5843 -0.5537 -1.1773
   52MOL   C41032132   0.333   5.649   0.433  0.1362 -0.2638  0.0695
   52MOL   C41132133   0.224   5.540   0.400  0.0445  0.4937  0.4484
   52MOL   C41232134   0.140   5.512   0.530  0.1340  0.4656  0.3416
   52MOL   C41332135   0.043   5.405   0.496  0.0721 -0.4968  0.1085
   52MOL   C41432136   7.716   5.389   0.606  0.5359  0.1704  0.9525
   52MOL   C41532137   0.796   5.785   7.738 -0.1712 -0.1632  0.5290
   52MOL   H41632138   0.879   5.796   0.162 -1.1464 -1.2517  1.8025
   52MOL   H41732139   0.565   5.844   0.111 -0.3614  0.2924  0.3746
   52MOL   H41832140   0.686   5.898   0.230 -2.6151  1.9005 -1.8907
   52MOL   H41932141   0.467   5.896   0.338  1.0295  1.1190 -0.2446
   52MOL   H42032142   0.567   5.779   0.408 -1.0100  1.7353  0.9348
   52MOL   H42132143   0.357   5.681   0.219 -1.0544 -2.5317 -0.1332
   52MOL   H42232144   0.480   5.589   0.289  0.7117 -0.8478  0.5015
   52MOL   H42332145   0.408   5.627   0.509  1.1591  0.1712 -0.7968
   52MOL   H42432146   0.277   5.734   0.473 -0.6901 -0.7091 -0.1251
   52MOL   H42532147   0.164   5.571   0.315 -1.1831 -1.0174  0.7316
   52MOL   H42632148   0.263   5.445   0.363 -0.4672  0.4279  0.0693
   52MOL   H42732149   0.080   5.601   0.552 -1.1333 -0.3307  0.1588
   52MOL   H42832150   0.198   5.496   0.621 -1.8723 -3.1730  1.0676
   52MOL   H42932151   7.760   5.433   0.408  0.2721 -1.4906 -0.3396
   52MOL   H43032152   0.100   5.313   0.487 -0.7836 -1.1324  1.0358
   52MOL   H43132153   7.615   5.369   0.572  1.2418 -0.6354 -0.6998
   52MOL   H43232154   7.708   5.471   0.677 -0.1196  0.2647  0.7696
   52MOL   H43332155   7.755   5.314   0.675  0.6578  0.0760  0.7830
   52MOL   H43432156   0.724   5.712   7.700 -2.9320  2.2475  0.9396
   52MOL   H43532157   0.733   5.873   7.751 -0.0421 -0.1128  0.8244
   52MOL   C43632158   0.917   5.816   7.646  0.1973 -0.4992  0.1295
   52MOL   O43732159   1.004   5.912   7.704  0.1637 -0.7110 -0.8214
   52MOL   C43832160   1.139   5.870   7.724  0.3958 -0.8156 -0.0326
   52MOL   C43932161   1.221   5.968   0.042 -0.0562  0.3643  0.1757
   52MOL   C44032162   1.241   6.108   7.753 -0.1408 -0.1344 -0.8375
   52MOL   C44132163   1.345   6.107   7.640 -0.1064  0.3186  0.2530
   52MOL   C44232164   1.334   6.240   7.569 -0.7789  0.0850 -0.1162
   52MOL   C44332165   1.430   6.252   7.451 -0.7485  0.1466  0.1995
   52MOL   C44432166   1.569   6.304   7.490  0.4859  0.0129 -0.5555
   52MOL   C44532167   1.658   6.325   7.365 -0.3115  0.8057  0.5389
   52MOL   C44632168   0.872   5.878   7.511 -0.1341  0.8047 -0.8758
   52MOL   H44732169   0.963   5.719   7.629 -0.0751 -0.8135  1.1524
   52MOL   H44832170   1.147   5.773   7.773  0.2840 -0.3462  0.9171
   52MOL   H44932171   1.183   5.859   7.624  2.6135  2.1293  0.5430
   52MOL   H45032172   1.318   5.927   0.071  0.2142 -1.0743 -2.6016
   52MOL   H45132173   1.167   5.972   0.137  0.9744  1.6575  0.7261
   52MOL   H45232174   1.140   6.132   7.720 -0.2534 -0.8228 -0.9965
   52MOL   H45332175   1.273   6.184   0.050  0.9182 -1.5947  0.2941
   52MOL   H45432176   1.446   6.092   7.679  0.7616  0.6625 -1.8114
   52MOL   H45532177   1.332   6.019   7.578 -0.0442  0.4909 -0.0062
   52MOL   H45632178   1.235   6.257   7.526 -1.2336 -0.4906  0.6877
   52MOL   H45732179   1.363   6.322   7.634  1.0843 -0.4858 -0.2173
   52MOL   H45832180   1.381   6.324   7.385 -0.7682  1.2250  1.3551
   52MOL   H45932181   1.430   6.154   7.403 -2.5013 -1.3808  3.1585
   52MOL   H46032182   1.565   6.389   7.558  1.4958 -0.1778 -0.2480
   52MOL   H46132183   1.604   6.228   7.559 -1.2228 -0.0805  0.2277
   52MOL   H46232184   1.763   6.331   7.396  1.3492  0.1129 -4.5498
   52MOL   H46332185   1.625   6.422   7.327 -2.5456  0.3438  1.2152
   52MOL   H46432186   1.647   6.247   7.290 -0.3212  0.2538  1.1006
   52MOL   H46532187   0.801   5.811   7.462 -0.6056  1.6076 -1.3020
   52MOL   H46632188   0.820   5.972   7.521 -1.6837 -0.1339  0.0589
   52MOL   C46732189   0.985   5.902   7.410  0.2280 -0.2568 -0.0560
   52MOL   O46832190   0.926   5.977   7.296  0.1726  0.1902  0.6012
   52MOL   C46932191   0.945   6.114   7.303 -0.2137  0.2394  0.9103
   52MOL   C47032192   0.841   6.183   7.220 -0.2033  0.2352  0.1793
   52MOL   C47132193   0.855   6.172   7.069 -0.7518  0.7408 -0.0464
   52MOL   C47232194   0.939   6.284   7.001  0.5534  0.2675 -0.1340
   52MOL   C47332195   0.957   6.257   6.847  0.4268  0.1692  0.1340
   52MOL   C47432196   1.055   6.341   6.771  0.2369 -0.0390  0.0675
   52MOL   C47532197   1.020   6.484   6.755  0.6765  0.3031 -0.0721
   52MOL   C47632198   1.137   6.578   6.706 -0.0653  0.7489 -0.9827
   52MOL   C47732199   1.030   5.768   7.347 -0.1714  0.0463 -0.1287
   52MOL   H47832200   1.065   5.960   7.456 -0.7454  2.5512 -1.7988
   52MOL   H47932201   1.047   6.138   7.272 -0.9806  0.7244 -1.3261
   52MOL   H48032202   0.930   6.150   7.404  0.9287 -0.1258  1.2159
   52MOL   H48132203   0.810   6.286   7.233  2.8920  1.0458  1.6245
   52MOL   H48232204   0.747   6.132   7.242  0.0651 -1.1417 -1.7683
   52MOL   H48332205   0.912   6.081   7.052  1.1590  1.5359  1.8565
   52MOL   H48432206   0.758   6.167   7.020 -0.9351  1.9540  0.1724
   52MOL   H48532207   0.905   6.385   7.021  2.1106  0.9889 -0.9555
   52MOL   H48632208   1.036   6.276   7.050  0.4376 -5.8717 -0.4514
   52MOL   H48732209   0.991   6.156   6.825 -1.5135 -0.2287 -1.0775
   52MOL   H48832210   0.856   6.261   6.807  0.3976  0.9158  0.2769
   52MOL   H48932211   1.072   6.303   6.670  1.6997  1.6452 -0.3333
   52MOL   H49032212   1.155   6.329   6.811 -0.0194  0.4404  0.8730
   52MOL   H49132213   0.929   6.492   6.695 -1.2063 -3.2627  2.1550
   52MOL   H49232214   0.991   6.514   6.855 -4.4998 -1.5224 -0.8564
   52MOL   H49332215   1.215   6.584   6.782 -1.8544  2.3465  0.8067
   52MOL   H49432216   1.088   6.675   6.701 -0.6678  0.6577  2.0097
   52MOL   H49532217   1.173   6.557   6.605 -2.1934 -1.5204 -1.2923
   52MOL   H49632218   1.076   5.713   7.430 -1.1385 -0.3560  0.1566
   52MOL   H49732219   0.942   5.707   7.324  0.3829 -0.6095 -0.5330
   52MOL   C49832220   1.124   5.777   7.229 -0.6188  0.1344  0.7146
   52MOL   O49932221   1.153   5.650   7.173 -0.6270  0.0231 -0.1006
   52MOL   C50032222   1.057   5.594   7.083  0.0631  0.3350  0.7436
   52MOL   C50132223   1.107   5.456   7.035 -0.4349 -0.5262  0.1984
   52MOL   C50232224   1.238   5.468   6.957 -0.8797 -0.2510  0.2961
   52MOL   C50332225   1.317   5.335   6.960  0.1567  0.3610 -0.0424
   52MOL   C50432226   1.445   5.347   6.887 -0.7020 -0.2320  0.1320
   52MOL   C50532227   1.509   5.210   6.862  0.2392  0.1929  0.3595
   52MOL   C50632228   1.636   5.211   6.779  0.2242 -0.5065  0.2178
   52MOL   C50732229   1.687   5.067   6.737  0.0527 -0.2828 -0.2711
   52MOL   C50832230   1.261   5.830   7.270 -0.0840  0.4752  0.7566
   52MOL   H50932231   1.081   5.839   7.150 -1.5254  0.7334  1.6591
   52MOL   H51032232   1.028   5.657   6.999 -0.5073 -0.6214  0.2171
   52MOL   H51132233   0.971   5.584   7.150 -1.1209  3.3643 -0.2362
   52MOL   H51232234   1.022   5.416   6.979 -1.6329 -0.7927  2.1634
   52MOL   H51332235   1.126   5.387   7.117  0.0870 -1.0119 -0.3263
   52MOL   H51432236   1.220   5.492   6.852 -0.0085 -0.6336  0.0606
   52MOL   H51532237   1.299   5.546   7.002 -0.2516 -0.7806  0.3565
   52MOL   H51632238   1.342   5.300   7.060  0.2062 -0.2750 -0.2763
   52MOL   H51732239   1.263   5.254   6.911  1.9042 -0.7263 -0.2163
   52MOL   H51832240   1.420   5.392   6.791 -0.9318  1.0766  0.7943
   52MOL   H51932241   1.507   5.422   6.937 -1.5263  0.5940 -0.0744
   52MOL   H52032242   1.440   5.134   6.824  0.7183  0.3878 -0.9202
   52MOL   H52132243   1.534   5.164   6.957  1.8535  0.5329  0.1073
   52MOL   H52232244   1.623   5.268   6.687  0.3293 -3.4116 -1.6547
   52MOL   H52332245   1.716   5.269   6.825 -1.0427  1.4301  0.0723
   52MOL   H52432246   1.616   5.028   6.664 -0.1479  0.2463 -0.3580
   52MOL   H52532247   1.696   5.007   6.827  1.2688  0.7002  0.2832
   52MOL   H52632248   1.787   5.058   6.694  0.5311 -1.4450  1.0863
   52MOL   H52732249   1.252   5.927   7.319 -0.0999  1.1503 -0.5669
   52MOL   H52832250   1.297   5.754   7.340 -0.8559  0.3682  1.0379
   52MOL   C52932251   1.355   5.868   7.151  0.5722 -0.2535 -0.1271
   52MOL   O53032252   1.476   5.902   7.212  0.3752  0.1406 -0.1889
   52MOL   C53132253   1.585   5.808   7.193  0.3430  0.0032  0.4563
   52MOL   C53232254   1.708   5.897   7.206  0.2084  1.1531  0.4191
   52MOL   C53332255   1.739   5.937   7.352  0.1175 -0.2230 -0.4054
   52MOL   C53432256   1.833   5.841   7.420  0.1727 -0.5331 -0.7639
   52MOL   C53532257   1.845   5.875   7.570 -0.0346 -0.0812  0.2559
   52MOL   C53632258   1.947   5.795   7.640  0.1984 -0.1546  0.0667
   52MOL   C53732259   1.945   5.818   0.019  0.2001  0.0437  0.0190
   52MOL   C53832260   2.052   5.743   0.097 -0.4346  0.0467  0.2131
   52MOL   C53932261   1.309   5.984   7.065  0.0296 -0.1934  0.4142
   52MOL   H54032262   1.358   5.784   7.081  0.2324  0.4075 -0.9415
   52MOL   H54132263   1.571   5.731   7.268  1.5655 -1.5151 -0.8325
   52MOL   H54232264   1.588   5.754   7.098 -0.8007  2.3271 -0.9519
   52MOL   H54332265   1.705   5.981   7.137  1.7101  0.2883 -0.7353
   52MOL   H54432266   1.798   5.841   7.178  0.3558  0.6139  1.9194
   52MOL   H54532267   1.783   6.036   7.351 -1.1681  0.3625  0.9577
   52MOL   H54632268   1.644   5.949   7.403  0.2371 -0.4607 -0.1235
   52MOL   H54732269   1.785   5.746   7.396  0.4114 -0.5995 -0.9795
   52MOL   H54832270   1.931   5.843   7.373  0.8544 -0.7725  0.6156
   52MOL   H54932271   1.866   5.979   7.594  1.1872 -0.1567 -0.4817
   52MOL   H55032272   1.749   5.863   7.622 -0.1952 -0.6921 -0.1608
   52MOL   H55132273   2.044   5.826   7.602 -0.0507  2.3573  1.3756
   52MOL   H55232274   1.931   5.688   7.624 -1.3996  0.0112  0.4866
   52MOL   H55332275   1.954   5.926   0.031 -2.4826  0.4334 -1.0720
   52MOL   H55432276   1.851   5.792   0.066  0.3951 -3.7697 -1.5500
   52MOL   H55532277   2.145   5.745   0.040  0.0795 -0.4640  1.0199
   52MOL   H55632278   2.013   5.647   0.131 -1.1678  0.7237  1.3201
   52MOL   H55732279   2.083   5.796   0.187  1.6440 -0.4547 -0.1830
   52MOL   H55832280   1.202   5.985   7.043  0.3606  2.6838 -1.3466
   52MOL   H55932281   1.320   6.073   7.128  4.4278 -0.3354  0.0113
   52MOL   C56032282   1.377   5.989   6.923 -0.0455  0.5814  0.2906
   52MOL   O56132283   1.380   6.127   6.882  0.1317  1.0262 -0.2046
   52MOL   C56232284   1.478   6.207   6.943 -0.2406  0.4569  0.2950
   52MOL   C56332285   1.449   6.347   6.925  0.0728 -0.1633 -0.0367
   52MOL   C56432286   1.345   6.397   7.026  0.3856 -0.3864  0.1818
   52MOL   C56532287   1.381   6.527   7.104  0.6222 -0.3720 -0.0519
   52MOL   C56632288   1.273   6.580   7.198 -0.8630 -0.2297  0.3047
   52MOL   C56732289   1.137   6.626   7.132  0.1690 -0.0290 -0.3126
   52MOL   C56832290   1.028   6.658   7.242 -0.3817 -0.6046  0.6537
   52MOL   C56932291   1.044   6.790   7.322 -0.1174  0.8222 -0.1872
   52MOL   C57032292   1.299   5.905   6.818  0.0912 -0.4085  0.2231
   52MOL   H57132293   1.481   5.956   6.923  0.6773  2.7179 -1.7830
   52MOL   H57232294   1.572   6.189   6.891 -0.8764  0.7405 -0.9780
   52MOL   H57332295   1.501   6.188   7.048  1.0239  0.8747  0.1001
   52MOL   H57432296   1.402   6.348   6.827  0.9278  1.5639 -0.4391
   52MOL   H57532297   1.537   6.411   6.926 -0.0642  0.0228  0.7988
   52MOL   H57632298   1.248   6.404   6.976 -0.3351 -2.8781  1.1692
   52MOL   H57732299   1.326   6.327   7.107  2.4797  1.4804  2.3550
   52MOL   H57832300   1.475   6.521   7.158 -0.4992 -0.3394  1.9185
   52MOL   H57932301   1.400   6.597   7.023  0.6352  1.2200  1.3204
   52MOL   H58032302   1.245   6.510   7.277  0.1759  0.3013  1.1668
   52MOL   H58132303   1.310   6.659   7.263 -0.2376  0.5895 -1.0338
   52MOL   H58232304   1.096   6.539   7.082 -0.6041 -1.5853  2.8673
   52MOL   H58332305   1.146   6.696   7.048 -0.0573 -0.3912 -0.6366
   52MOL   H58432306   0.931   6.673   7.196  0.4072  2.9969  0.0424
   52MOL   H58532307   1.002   6.567   7.296  1.0846 -1.7125 -0.4678
   52MOL   H58632308   0.962   6.818   7.387 -0.5976 -1.1520  0.0873
   52MOL   H58732309   1.061   6.872   7.252  2.2966 -1.2197 -2.0923
   52MOL   H58832310   1.133   6.788   7.385  1.2250 -0.3440 -2.0332
   52MOL   H58932311   1.268   5.808   6.857  0.3487  0.1441  1.8415
   52MOL   H59032312   1.200   5.948   6.800 -0.7097 -3.1222 -2.2665
   52MOL   C59132313   1.377   5.864   6.695 -0.3820 -1.2310  0.0184
   52MOL   O59232314   1.504   5.809   6.735  0.2660  0.6263  0.3367
   52MOL   C59332315   1.561   5.713   6.650  0.4189  0.2552  0.3182
   52MOL   C59432316   1.701   5.679   6.697  0.0955  0.4506  0.4032
   52MOL   C59532317   1.797   5.800   6.671  0.8717  0.3936 -0.0874
   52MOL   C59632318   1.939   5.774   6.721  0.9022  0.3767  0.0651
   52MOL   C59732319   2.044   5.888   6.711  0.1107 -0.1841 -0.0897
   52MOL   C59832320   2.170   5.869   6.805  0.0482  0.1519 -0.5265
   52MOL   C59932321   2.282   5.972   6.778  0.3097 -0.2434 -0.0199
   52MOL   C60032322   2.420   5.905   6.803  0.2268 -0.4368  0.1968
   52MOL   C60132323   1.396   5.975   6.598  0.0567 -0.0751  0.3486
   52MOL   H60232324   1.325   5.782   6.646 -0.9945 -1.5154  1.1206
   52MOL   H60332325   1.575   5.738   6.545  0.1400 -0.6728  0.0535
   52MOL   H60432326   1.495   5.626   6.645  1.0599 -0.3986  2.6341
   52MOL   H60532327   1.737   5.590   6.644 -1.1699 -0.4315  1.0171
   52MOL   H60632328   1.697   5.649   6.801 -0.2997 -2.2069 -0.3524
   52MOL   H60732329   1.803   5.826   6.565 -0.1487  1.5515  0.1113
   52MOL   H60832330   1.751   5.887   6.720  2.1359  0.9286  0.1532
   52MOL   H60932331   1.925   5.739   6.823  1.5874 -2.7722 -0.8789
   52MOL   H61032332   1.974   5.690   6.661  0.0222 -0.2738  0.4611
   52MOL   H61132333   2.087   5.888   6.611  1.4527 -1.7554  0.4521
   52MOL   H61232334   2.006   5.989   6.724  0.7117 -0.1927  2.0267
   52MOL   H61332335   2.210   5.771   6.780 -0.8226  0.0461 -1.5364
   52MOL   H61432336   2.129   5.867   6.906 -0.7469 -0.4263 -0.8493
   52MOL   H61532337   2.270   5.999   6.674  0.4842  0.0126  0.0246
   52MOL   H61632338   2.268   6.070   6.823 -0.9579  0.3715 -1.7172
   52MOL   H61732339   2.504   5.966   6.769  0.1425 -0.4349 -0.0088
   52MOL   H61832340   2.441   5.815   6.745  3.6648  0.3167  0.1223
   52MOL   H61932341   2.428   5.900   6.912  2.6879  0.3499  0.0859
   52MOL   H62032342   1.439   5.945   6.502  0.9694 -1.3730  1.1567
   52MOL   H62132343   1.298   6.021   6.582 -1.1632 -2.8885 -0.5719
   52MOL   H62232344   1.450   6.057   6.646 -0.7905  0.7609 -0.1052
   53MOL     C132345   5.918   6.084   2.086 -0.3144 -0.3358  0.4248
   53MOL     O232346   5.924   6.064   1.943  0.4790 -0.5378  0.1415
   53MOL     C332347   6.057   6.074   1.895 -0.8022 -0.6616 -0.6309
   53MOL     C432348   6.100   5.936   1.835 -0.1214 -0.3631 -0.1670
   53MOL     C532349   6.104   5.823   1.940  0.5529 -0.1539 -0.2104
   53MOL     C632350   6.240   5.817   2.017 -0.5742  0.2605 -0.2881
   53MOL     C732351   6.249   5.688   2.096  0.8450  0.3804  0.5241
   53MOL     C832352   6.384   5.672   2.173  0.3651  0.8981 -0.1525
   53MOL     C932353   6.373   5.574   2.290 -0.0856 -0.1972 -0.5499
   53MOL    C1032354   6.514   5.525   2.352  0.1563  0.1142 -0.3799
   53MOL    C1132355   5.771   6.096   2.113  0.3864  0.1381 -0.1241
   53MOL    H1232356   5.972   5.996   2.121  1.7459  0.3190 -1.0234
   53MOL    H1332357   6.124   6.100   1.978 -0.9080 -1.4619 -0.2904
   53MOL    H1432358   6.058   6.153   1.820  0.2984 -0.1263 -0.0602
   53MOL    H1532359   6.199   5.951   1.793 -0.1800 -0.7598 -0.4528
   53MOL    H1632360   6.040   5.912   1.747 -0.8424 -0.0401  0.2272
   53MOL    H1732361   6.017   5.818   2.006 -0.0340  0.9728 -0.8893
   53MOL    H1832362   6.095   5.730   1.883  1.6473  0.0822 -0.7836
   53MOL    H1932363   6.331   5.835   1.959 -1.5829  0.7449 -1.7554
   53MOL    H2032364   6.244   5.899   2.088 -1.5124 -0.5908  0.7568
   53MOL    H2132365   6.161   5.678   2.160  0.3010 -1.4429 -0.4776
   53MOL    H2232366   6.229   5.603   2.031  0.9500  0.8043 -0.0600
   53MOL    H2332367   6.433   5.765   2.200 -0.3289  1.0481  0.5984
   53MOL    H2432368   6.459   5.639   2.101  0.2663 -0.8573  0.5272
   53MOL    H2532369   6.308   5.613   2.368  0.5538  0.2705 -0.2440
   53MOL    H2632370   6.313   5.489   2.257 -0.2150  0.3978 -1.8788
   53MOL    H2732371   6.569   5.609   2.395 -0.7279 -0.9568  2.9802
   53MOL    H2832372   6.572   5.476   2.274  0.2096  1.1112 -0.9742
   53MOL    H2932373   6.481   5.460   2.433  1.1277  3.1691  2.5924
   53MOL    H3032374   5.721   6.182   2.068 -2.6108 -1.6839 -0.3911
   53MOL    H3132375   5.708   6.018   2.070 -0.1052 -0.4543  1.6390
   53MOL    H3232376   5.973   6.170   2.124  0.5079 -0.7190  0.1156
   53MOL    C3332377   5.740   6.104   2.264  0.0251 -0.0961 -0.0683
   53MOL    O3432378   5.821   6.203   2.321  0.0933  0.6366  0.4612
   53MOL    C3532379   5.813   6.336   2.274  0.2797 -0.1774  0.0122
   53MOL    C3632380   5.912   6.431   2.345 -0.0087 -0.1018  0.5707
   53MOL    C3732381   5.913   6.424   2.492 -0.2916  0.1379 -0.1985
   53MOL    C3832382   6.024   6.507   2.558 -0.2616  0.0163  0.1067
   53MOL    C3932383   6.013   6.502   2.712 -0.1460 -0.0717 -0.0362
   53MOL    C4032384   6.119   6.578   2.788  0.3739 -0.2682  0.2626
   53MOL    C4132385   6.104   6.560   2.939 -0.3766 -0.5064 -0.1627
   53MOL    C4232386   6.163   6.668   3.028 -0.4376  0.1494  0.4032
   53MOL    C4332387   5.765   5.961   2.326 -0.1311  0.1829  0.5018
   53MOL    H4432388   5.633   6.118   2.281  0.2211 -1.5222  2.7433
   53MOL    H4532389   5.711   6.366   2.299  0.8995  1.5582  0.5681
   53MOL    H4632390   5.811   6.349   2.166 -1.3871 -0.3106  0.0104
   53MOL    H4732391   5.896   6.535   2.319  1.0567 -0.1886 -0.4692
   53MOL    H4832392   6.017   6.415   2.320 -0.6930 -3.1855 -0.6271
   53MOL    H4932393   5.816   6.452   2.533 -0.4846  0.7959 -1.1015
   53MOL    H5032394   5.920   6.320   2.525  0.5229 -0.7347 -3.0511
   53MOL    H5132395   6.126   6.482   2.526 -0.3476 -2.0068  1.3258
   53MOL    H5232396   6.017   6.611   2.526  1.3642  0.6963  1.8692
   53MOL    H5332397   5.917   6.546   2.737  0.0075  0.7952 -0.9608
   53MOL    H5432398   6.022   6.396   2.738  2.9680 -0.2572 -1.6708
   53MOL    H5532399   6.101   6.682   2.764  0.5793 -0.9211 -2.9194
   53MOL    H5632400   6.221   6.548   2.763  0.6792  0.1340  1.0192
   53MOL    H5732401   5.999   6.556   2.968 -0.8227 -0.7125 -1.7455
   53MOL    H5832402   6.146   6.464   2.970  0.7585  0.4846  1.4475
   53MOL    H5932403   6.264   6.705   3.009 -0.9192  1.3331  0.0291
   53MOL    H6032404   6.160   6.635   3.132  2.6913 -0.5779  0.2927
   53MOL    H6132405   6.107   6.762   3.018 -0.4467 -0.1228 -2.5125
   53MOL    H6232406   5.690   5.893   2.285  0.3449  0.2949 -0.5746
   53MOL    H6332407   5.864   5.923   2.303  0.2702  2.1550 -1.1711
   53MOL    C6432408   5.766   5.953   2.479 -0.0523 -0.1460 -0.0750
   53MOL    O6532409   5.745   5.815   2.518  0.4044 -0.4818 -0.5636
   53MOL    C6632410   5.863   5.738   2.532 -0.1782 -0.4741 -0.4135
   53MOL    C6732411   5.818   5.597   2.576 -0.5769 -0.5887  0.2082
   53MOL    C6832412   5.786   5.590   2.726 -0.6074  0.1688 -0.1767
   53MOL    C6932413   5.678   5.477   2.756 -0.1463  0.1202 -0.7329
   53MOL    C7032414   5.638   5.482   2.899 -0.2000  0.0485 -0.1943
   53MOL    C7132415   5.517   5.574   2.941  0.4836  0.3022 -0.0980
   53MOL    C7232416   5.461   5.560   3.087 -0.5130 -0.1887 -0.2615
   53MOL    C7332417   5.386   5.432   3.107 -0.2149  0.0875  0.7656
   53MOL    C7432418   5.650   6.025   2.551  0.5345 -0.2721  0.3763
   53MOL    H7532419   5.858   5.989   2.525 -1.3077  0.3049  2.1344
   53MOL    H7632420   5.928   5.794   2.599 -0.3639  0.9861 -1.4257
   53MOL    H7732421   5.917   5.721   2.439 -0.3765 -0.3902 -0.5433
   53MOL    H7832422   5.895   5.528   2.542  2.1499  0.6900  3.5423
   53MOL    H7932423   5.728   5.578   2.518  0.8485  0.8817 -2.5932
   53MOL    H8032424   5.875   5.556   2.779  0.8311 -0.9599 -3.1727
   53MOL    H8132425   5.759   5.685   2.772  0.4373 -0.1397  1.0860
   53MOL    H8232426   5.598   5.484   2.683 -0.2486 -1.2321 -0.7768
   53MOL    H8332427   5.720   5.377   2.739 -0.1025 -0.4079  2.1820
   53MOL    H8432428   5.599   5.383   2.924  0.4648 -0.0563  0.4190
   53MOL    H8532429   5.727   5.486   2.962  0.7433  1.3355 -1.5602
   53MOL    H8632430   5.440   5.577   2.864  1.4255  0.9396 -1.0362
   53MOL    H8732431   5.546   5.679   2.928 -0.5967  1.2054  3.8880
   53MOL    H8832432   5.553   5.550   3.145 -1.2429  0.9504  1.0996
   53MOL    H8932433   5.413   5.648   3.128  1.5047  1.0799 -0.5244
   53MOL    H9032434   5.431   5.344   3.062 -0.9916  0.6916 -1.2346
   53MOL    H9132435   5.286   5.444   3.063 -0.3564  2.6374  1.6543
   53MOL    H9232436   5.364   5.412   3.212  0.2569 -2.1000  0.4531
   53MOL    H9332437   5.650   6.128   2.516  1.5797 -0.9444 -1.7385
   53MOL    H9432438   5.557   5.985   2.512  1.4221 -0.7732 -1.2987
   53MOL    C9532439   5.653   6.016   2.705 -0.4650  0.7541  0.0869
   53MOL    O9632440   5.528   6.071   2.757 -0.9393 -0.6198 -0.4314
   53MOL    C9732441   5.436   5.979   2.815  0.0473  0.2155  0.2778
   53MOL    C9832442   5.322   6.058   2.859 -0.2775  0.6201  0.3192
   53MOL    C9932443   5.225   5.973   2.951  0.5523 -0.4137 -0.7065
   53MOL   C10032444   5.101   6.048   3.010  0.3618  0.3525  0.5507
   53MOL   C10132445   5.019   6.091   2.891  0.3483 -0.2507  0.1095
   53MOL   C10232446   4.871   6.114   2.927  0.4115  0.1396  0.5369
   53MOL   C10332447   4.804   5.997   3.002 -0.3344  0.1034  0.3162
   53MOL   C10432448   4.662   6.049   3.026 -0.4168  0.2008 -0.4535
   53MOL   C10532449   5.771   6.080   2.769 -0.5390  0.0603 -0.7470
   53MOL   H10632450   5.639   5.911   2.733 -2.3727  0.4996 -1.6444
   53MOL   H10732451   5.479   5.909   2.886 -0.7370 -0.3148  0.2376
   53MOL   H10832452   5.405   5.908   2.738  1.4235 -1.9814  1.6905
   53MOL   H10932453   5.270   6.095   2.771  0.0247  0.0249 -0.1110
   53MOL   H11032454   5.351   6.146   2.916 -0.3111  0.5138  0.4988
   53MOL   H11132455   5.200   5.874   2.912 -1.4967 -0.6160  1.0201
   53MOL   H11232456   5.274   5.947   3.045  1.7705  2.5417 -0.4875
   53MOL   H11332457   5.052   5.980   3.079 -1.0831 -0.5435 -1.2930
   53MOL   H11432458   5.136   6.132   3.070 -0.1580 -0.8692  2.6079
   53MOL   H11532459   5.057   6.183   2.848  0.3236 -0.7395 -0.9585
   53MOL   H11632460   5.025   6.012   2.817  0.7293  1.4025 -1.6591
   53MOL   H11732461   4.818   6.144   2.836  0.1978  0.5378  0.7933
   53MOL   H11832462   4.863   6.202   2.991 -1.3415  0.1973  0.2728
   53MOL   H11932463   4.800   5.912   2.934 -0.9543 -0.3271  0.8844
   53MOL   H12032464   4.852   5.973   3.097  1.1104  0.6365 -0.2517
   53MOL   H12132465   4.613   6.064   2.930  2.0097 -1.4433 -2.0011
   53MOL   H12232466   4.649   6.140   3.085 -1.1801  0.0241 -0.3423
   53MOL   H12332467   4.602   5.980   3.086 -1.2308  1.2509 -0.0565
   53MOL   H12432468   5.861   6.032   2.730  1.5360  0.3767  3.3021
   53MOL   H12532469   5.774   6.185   2.741  0.2957  0.3902  0.5048
   53MOL   C12632470   5.773   6.076   2.927 -0.1208 -1.0438  0.7845
   53MOL   O12732471   5.894   6.147   2.973  0.7745 -0.3861  0.2844
   53MOL   C12832472   5.862   6.285   2.992 -0.5297 -0.0431 -0.5427
   53MOL   C12932473   5.801   6.311   3.128  0.3552  0.2551  0.2325
   53MOL   C13032474   5.739   6.449   3.119 -0.4608  0.0026  0.0357
   53MOL   C13132475   5.659   6.472   3.246 -0.4790 -0.0496  0.5983
   53MOL   C13232476   5.621   6.613   3.281  0.2635 -0.4323 -0.4242
   53MOL   C13332477   5.557   6.616   3.420 -0.2864  0.3601 -0.3986
   53MOL   C13432478   5.496   6.754   3.452  0.2335  0.4941  0.1663
   53MOL   C13532479   5.399   6.764   3.573  0.5192 -0.5548  0.5254
   53MOL   C13632480   5.793   5.924   2.974 -0.2617  0.1380  0.6936
   53MOL   H13732481   5.682   6.118   2.968 -1.3668 -2.7356 -0.1691
   53MOL   H13832482   5.789   6.311   2.915 -0.4707 -0.4448 -0.7342
   53MOL   H13932483   5.955   6.341   2.991 -0.4662 -0.1245  0.5264
   53MOL   H14032484   5.881   6.302   3.203 -0.1887  0.0981  0.7979
   53MOL   H14132485   5.734   6.228   3.152 -1.1250  1.0676 -1.0659
   53MOL   H14232486   5.825   6.516   3.127  2.5388 -3.8238  1.8749
   53MOL   H14332487   5.678   6.472   3.032 -1.0323  1.2675  0.7634
   53MOL   H14432488   5.558   6.433   3.233  0.9136 -3.4264 -0.5727
   53MOL   H14532489   5.707   6.416   3.326  0.9886  0.5133  0.1301
   53MOL   H14632490   5.709   6.677   3.280 -1.1648  1.5411 -0.5986
   53MOL   H14732491   5.547   6.640   3.206 -2.4617  1.2583  2.7398
   53MOL   H14832492   5.627   6.605   3.503 -2.3218 -0.6684  1.2236
   53MOL   H14932493   5.466   6.559   3.434 -0.6553  1.3511  1.4167
   53MOL   H15032494   5.574   6.828   3.469 -0.2571  0.7936  1.1183
   53MOL   H15132495   5.435   6.788   3.367  0.4276  0.4368  0.0035
   53MOL   H15232496   5.436   6.749   3.675  1.5696 -0.7436  0.1185
   53MOL   H15332497   5.326   6.684   3.565 -0.1104  0.1713 -1.3765
   53MOL   H15432498   5.341   6.857   3.567  0.5061 -0.6029 -0.1544
   53MOL   H15532499   5.728   5.849   2.928  1.4054 -0.6953 -0.3334
   53MOL   H15632500   5.884   5.879   2.935 -1.6667 -1.3750 -0.8922
   53MOL   C15732501   5.787   5.893   3.126  0.0132  0.1413 -0.2841
   53MOL   O15832502   5.810   5.747   3.134 -0.0590  0.2154  0.3147
   53MOL   C15932503   5.947   5.702   3.147 -0.6178 -0.1277 -0.5877
   53MOL   C16032504   5.952   5.550   3.155 -0.4556  0.8687  0.1647
   53MOL   C16132505   6.093   5.502   3.200  0.4448  0.6491 -0.8963
   53MOL   C16232506   6.130   5.362   3.163 -0.1653 -0.1605 -0.1897
   53MOL   C16332507   6.274   5.307   3.201 -0.0209 -0.2115 -0.4149
   53MOL   C16432508   6.385   5.337   3.101 -0.0915  0.3471  0.2925
   53MOL   C16532509   6.366   5.253   2.972  0.6019 -0.1319 -0.0898
   53MOL   C16632510   6.475   5.277   2.868  0.1407  0.2690 -0.1077
   53MOL   C16732511   5.650   5.930   3.190  0.3275  0.3713  0.5914
   53MOL   H16832512   5.865   5.945   3.181  0.1449  0.5472 -0.8492
   53MOL   H16932513   5.985   5.737   3.243  0.0781 -0.3401 -0.7876
   53MOL   H17032514   6.014   5.746   3.074 -1.0492  1.2819 -0.1481
   53MOL   H17132515   5.927   5.510   3.057  0.1740 -2.2466  1.2119
   53MOL   H17232516   5.870   5.529   3.225  0.6027 -0.4400  1.0433
   53MOL   H17332517   6.166   5.574   3.161  1.2565  0.1849 -0.2584
   53MOL   H17432518   6.088   5.515   3.308 -1.2916  2.3069 -1.1538
   53MOL   H17532519   6.060   5.289   3.205 -0.8776  0.7985  0.2873
   53MOL   H17632520   6.101   5.348   3.059  2.3512  1.2539 -1.1163
   53MOL   H17732521   6.313   5.324   3.301 -1.2193 -0.8203  0.1681
   53MOL   H17832522   6.266   5.198   3.204  0.8020 -0.2537  0.1896
   53MOL   H17932523   6.481   5.305   3.139  0.2060 -0.3341 -1.0110
   53MOL   H18032524   6.384   5.444   3.081  2.1539  0.1243 -1.1077
   53MOL   H18132525   6.369   5.145   2.987 -1.5124 -0.4236 -1.4768
   53MOL   H18232526   6.274   5.280   2.920 -0.2904 -0.7172  1.1695
   53MOL   H18332527   6.498   5.383   2.862  1.0841  0.1109  0.6127
   53MOL   H18432528   6.439   5.233   2.775  1.7058 -0.7362 -0.2708
   53MOL   H18532529   6.566   5.224   2.897 -2.9575 -4.0013  2.2984
   53MOL   H18632530   5.626   6.032   3.161  0.9835  0.1805 -0.6530
   53MOL   H18732531   5.564   5.871   3.159  0.4907  0.4299  0.0325
   53MOL   C18832532   5.659   5.926   3.347 -0.4015  0.5239 -0.0272
   53MOL   O18932533   5.534   5.882   3.405  0.0549 -0.5212 -0.5894
   53MOL   C19032534   5.500   5.746   3.411  0.4436 -0.4243 -0.4084
   53MOL   C19132535   5.363   5.715   3.473  0.3949 -0.7257 -0.2637
   53MOL   C19232536   5.243   5.756   3.393  0.4068  0.0895 -0.3063
   53MOL   C19332537   5.114   5.753   3.471  0.6111  0.3108  0.4549
   53MOL   C19432538   4.993   5.792   3.389 -0.0916  0.1306  0.5180
   53MOL   C19532539   4.864   5.799   3.468 -0.1903  0.5667  0.2513
   53MOL   C19632540   4.827   5.672   3.534  0.3826  0.4729 -1.0187
   53MOL   C19732541   4.686   5.683   3.598 -0.2324  0.0146 -0.0384
   53MOL   C19832542   5.703   6.059   3.411  0.3564 -0.1480 -0.0543
   53MOL   H19932543   5.739   5.861   3.383 -1.5362 -0.6414  0.4211
   53MOL   H20032544   5.500   5.694   3.315 -1.7268 -2.0519  0.4418
   53MOL   H20132545   5.582   5.698   3.463  2.0286  0.7761 -1.7507
   53MOL   H20232546   5.359   5.754   3.575  1.4264 -0.5694 -0.2766
   53MOL   H20332547   5.356   5.609   3.494 -0.4894 -0.3013  1.6848
   53MOL   H20432548   5.256   5.859   3.360 -0.7852  0.7260  1.1656
   53MOL   H20532549   5.230   5.691   3.307 -1.0018 -1.4826  1.0697
   53MOL   H20632550   5.106   5.657   3.523  1.2096 -1.3202 -2.3285
   53MOL   H20732551   5.111   5.822   3.555 -1.2276  0.8789 -0.0614
   53MOL   H20832552   5.012   5.888   3.343 -1.1222 -0.3615 -0.9643
   53MOL   H20932553   4.981   5.711   3.317  1.2433 -0.8360  1.3559
   53MOL   H21032554   4.788   5.830   3.396 -0.7380  1.5175  1.2129
   53MOL   H21132555   4.868   5.876   3.546 -0.8905 -2.0097  2.8910
   53MOL   H21232556   4.826   5.580   3.475  0.1971  0.7091 -1.3823
   53MOL   H21332557   4.895   5.661   3.618 -0.5119 -1.6298 -0.5394
   53MOL   H21432558   4.621   5.763   3.560 -1.2439 -0.2974  0.9988
   53MOL   H21532559   4.711   5.710   3.700 -1.2793  2.2594 -0.3310
   53MOL   H21632560   4.629   5.592   3.612  1.0948 -0.8937 -0.4382
   53MOL   H21732561   5.804   6.088   3.382 -0.4506  2.0551 -0.7681
   53MOL   H21832562   5.636   6.142   3.392 -2.0613 -1.7136  1.4070
   53MOL   C21932563   5.702   6.048   3.560 -0.1484 -0.4485  0.4043
   53MOL   O22032564   5.740   6.176   3.607 -0.0978 -0.0569  0.6183
   53MOL   C22132565   5.715   6.214   3.740 -0.6102  0.1491 -0.5603
   53MOL   C22232566   5.754   6.356   3.756  0.8958  0.3636 -0.2305
   53MOL   C22332567   5.905   6.369   3.798 -0.0288 -0.0438  0.2280
   53MOL   C22432568   5.952   6.509   3.841 -0.0668  0.3661 -0.3421
   53MOL   C22532569   5.888   6.555   3.978  0.4301  0.0817  0.1980
   53MOL   C22632570   5.951   6.683   4.035 -0.0812  0.3063 -0.4416
   53MOL   C22732571   5.915   6.713   4.190  0.0183  0.5804 -0.6333
   53MOL   C22832572   5.974   6.841   4.251  0.6396  0.1135  0.4768
   53MOL   C22932573   5.780   5.931   3.625 -0.0884 -1.2563 -0.0406
   53MOL   H23032574   5.601   6.025   3.594  0.7588 -1.2721  2.6175
   53MOL   H23132575   5.758   6.157   3.823  1.6508  0.0291 -1.7855
   53MOL   H23232576   5.607   6.216   3.756 -0.5672 -0.3674 -0.1835
   53MOL   H23332577   5.692   6.404   3.831 -1.1446 -0.5609 -1.2828
   53MOL   H23432578   5.737   6.411   3.663  0.1523 -0.1134 -0.3823
   53MOL   H23532579   5.937   6.297   3.873  2.0229 -1.8528 -2.3017
   53MOL   H23632580   5.966   6.334   3.715 -0.1990 -0.0365  0.0974
   53MOL   H23732581   6.058   6.500   3.865 -0.2417 -1.7910 -0.2783
   53MOL   H23832582   5.933   6.579   3.760 -0.9072 -0.5437 -0.9495
   53MOL   H23932583   5.782   6.576   3.966  0.9869  0.5930 -4.4187
   53MOL   H24032584   5.901   6.473   4.049  3.6884 -0.9947 -1.5186
   53MOL   H24132585   5.908   6.765   3.978  1.9827  0.9178 -1.1713
   53MOL   H24232586   6.060   6.683   4.028 -0.1835  0.6826 -2.2843
   53MOL   H24332587   5.808   6.705   4.207  0.2932  3.0161  2.8926
   53MOL   H24432588   5.948   6.630   4.251 -0.7554  0.1600 -0.7793
   53MOL   H24532589   5.933   6.869   4.348  0.4022  0.1461  0.3685
   53MOL   H24632590   5.943   6.930   4.197 -0.2222  0.6301  1.7898
   53MOL   H24732591   6.082   6.830   4.243  0.7840  2.0432 -0.4118
   53MOL   H24832592   5.765   5.941   3.733 -1.0238  3.5373 -0.4847
   53MOL   H24932593   5.731   5.838   3.597 -0.9738 -1.3425  1.7374
   53MOL   C25032594   5.936   5.921   3.607  0.3626 -0.3599  0.5680
   53MOL   O25132595   5.988   5.801   3.664  0.2574  0.3811 -1.0501
   53MOL   C25232596   5.965   5.681   3.593 -0.2231 -0.5583 -0.6978
   53MOL   C25332597   6.043   5.565   3.671  0.0970  0.6208  0.4544
   53MOL   C25432598   6.185   5.564   3.616 -0.1040 -0.5458  0.3750
   53MOL   C25532599   6.265   5.432   3.627 -0.4155 -0.2038  0.5598
   53MOL   C25632600   6.408   5.453   3.593  0.3211 -0.5858  0.1052
   53MOL   C25732601   6.480   5.311   3.564 -0.4050  0.1260  0.2071
   53MOL   C25832602   6.620   5.339   3.529 -0.6323  0.6082 -0.0723
   53MOL   C25932603   6.699   5.206   3.520 -0.7445  0.1888 -0.4405
   53MOL   C26032604   6.018   6.045   3.648  0.1280  1.0318 -0.1796
   53MOL   H26132605   5.944   5.915   3.498 -0.4436  1.4472  0.3842
   53MOL   H26232606   5.994   5.687   3.488  0.5159  0.2630 -0.4523
   53MOL   H26332607   5.857   5.666   3.591 -0.3295  0.1124 -0.2520
   53MOL   H26432608   5.998   5.471   3.640  2.4705  0.0528 -1.4628
   53MOL   H26532609   6.038   5.573   3.780 -1.4031 -1.6353  0.5742
   53MOL   H26632610   6.183   5.591   3.511  1.0144  3.7498  1.3913
   53MOL   H26732611   6.239   5.648   3.659  1.7645 -1.7938  0.4913
   53MOL   H26832612   6.258   5.402   3.731 -0.8220 -0.2502  0.5180
   53MOL   H26932613   6.217   5.354   3.568  1.1475 -1.2557  0.6477
   53MOL   H27032614   6.411   5.510   3.500 -1.6510 -0.9848 -0.2281
   53MOL   H27132615   6.453   5.510   3.674 -1.8028  0.6553  0.4592
   53MOL   H27232616   6.433   5.265   3.476  1.7920  1.0391 -1.4711
   53MOL   H27332617   6.465   5.256   3.657  0.0546  0.4589  0.4725
   53MOL   H27432618   6.621   5.376   3.426  0.8688  0.6198 -0.0605
   53MOL   H27532619   6.665   5.405   3.603  0.6821 -1.3649  0.9192
   53MOL   H27632620   6.696   5.155   3.617 -0.6697  0.0335 -0.5198
   53MOL   H27732621   6.804   5.230   3.500 -1.4471  1.7078 -2.4749
   53MOL   H27832622   6.665   5.139   3.442  2.9056 -3.6183  0.9990
   53MOL   H27932623   5.981   6.129   3.588 -2.3749  0.7016  0.8107
   53MOL   H28032624   5.988   6.063   3.752  0.0905 -0.4035  0.0598
   53MOL   C28132625   6.178   6.032   3.636 -0.1264  0.1544 -0.0663
   53MOL   O28232626   6.236   6.142   3.696 -0.1101  0.7125 -0.2825
   53MOL   C28332627   6.243   6.136   3.842 -0.1697  0.1877  0.6156
   53MOL   C28432628   6.330   6.246   3.906 -0.3225  0.2679  0.2752
   53MOL   C28532629   6.482   6.223   3.885 -0.4426 -0.3139 -0.4033
   53MOL   C28632630   6.579   6.300   3.977 -0.1375  0.6023 -1.1174
   53MOL   C28732631   6.572   6.450   3.954 -0.3772 -0.3994 -0.3922
   53MOL   C28832632   6.697   6.526   4.019 -0.5399 -0.0060 -0.0988
   53MOL   C28932633   6.714   6.521   4.167  0.3078 -0.5054  0.2497
   53MOL   C29032634   6.813   6.628   4.213  0.2113 -0.2378  0.1584
   53MOL   C29132635   6.229   6.012   3.493  0.0214 -0.0630 -0.1307
   53MOL   H29232636   6.218   5.947   3.692 -0.0251 -0.0179 -0.3997
   53MOL   H29332637   6.282   6.041   3.881 -0.6442 -0.4136 -0.3481
   53MOL   H29432638   6.150   6.145   3.900 -1.3684 -1.1625 -1.0395
   53MOL   H29532639   6.320   6.254   4.014  4.5137  0.5069  0.8326
   53MOL   H29632640   6.305   6.343   3.862  1.8749  1.3275  1.2690
   53MOL   H29732641   6.507   6.119   3.905  1.8702  0.1894 -0.6019
   53MOL   H29832642   6.501   6.235   3.778 -0.9915 -0.5513 -0.5317
   53MOL   H29932643   6.564   6.278   4.083  1.4143  3.0238 -0.3604
   53MOL   H30032644   6.682   6.269   3.964 -0.4021 -0.2648 -1.1537
   53MOL   H30132645   6.562   6.460   3.846 -0.2022  0.9822 -0.2853
   53MOL   H30232646   6.479   6.489   3.996  0.1452 -1.5408  1.9123
   53MOL   H30332647   6.681   6.628   3.986  0.5810 -0.6658 -2.8230
   53MOL   H30432648   6.787   6.481   3.975 -1.2842 -0.3143 -1.3470
   53MOL   H30532649   6.629   6.547   4.230  0.1326  1.0173 -0.5992
   53MOL   H30632650   6.739   6.422   4.206  1.2196 -0.3954 -0.0362
   53MOL   H30732651   6.781   6.727   4.180 -0.1598  0.1455  1.6218
   53MOL   H30832652   6.904   6.608   4.157  0.2722 -1.5833  0.7148
   53MOL   H30932653   6.828   6.617   4.321  0.8913  2.1032  0.3397
   53MOL   H31032654   6.338   6.012   3.482 -0.0260  0.1767 -0.6156
   53MOL   H31132655   6.186   5.918   3.460  0.2035 -0.5275  0.9212
   53MOL   C31232656   6.167   6.096   3.379 -0.2048 -0.6860  0.1923
   53MOL   O31332657   6.227   6.055   3.253 -0.0926  0.2121 -0.2147
   53MOL   C31432658   6.140   6.065   3.144 -0.4784  0.6266  0.5049
   53MOL   C31532659   6.246   6.058   3.025 -0.0677 -0.0522 -0.4277
   53MOL   C31632660   6.176   6.071   2.881  0.0141 -0.4848  0.2675
   53MOL   C31732661   6.272   6.075   2.752  0.9366 -0.6093 -0.1959
   53MOL   C31832662   6.209   6.169   2.651 -0.2808  0.2957 -0.1138
   53MOL   C31932663   6.279   6.188   2.524  0.4552  0.8159  0.2150
   53MOL   C32032664   6.325   6.054   2.461 -0.0784  0.8829 -0.1917
   53MOL   C32132665   6.384   6.059   2.312  0.6895 -1.0441 -0.0012
   53MOL   C32232666   6.164   6.251   3.401 -0.3647 -0.4189  0.1083
   53MOL   H32332667   6.061   6.074   3.371 -0.4001 -0.6268  2.3507
   53MOL   H32432668   6.083   6.157   3.134 -3.0506 -1.0287 -0.9432
   53MOL   H32532669   6.075   5.978   3.158 -1.9684  1.3062 -1.9658
   53MOL   H32632670   6.293   5.960   3.031  0.4875  0.2904  0.9550
   53MOL   H32732671   6.329   6.130   3.024 -1.0395  1.0881 -0.7413
   53MOL   H32832672   6.099   5.997   2.860 -0.5238  0.4106 -0.9678
   53MOL   H32932673   6.114   6.161   2.887 -1.0208 -1.2680  1.9010
   53MOL   H33032674   6.369   6.118   2.779 -0.0966  1.6815 -0.0488
   53MOL   H33132675   6.301   5.978   2.712  0.6814 -0.7063 -0.1456
   53MOL   H33232676   6.113   6.129   2.620  0.6287  0.2213 -2.9876
   53MOL   H33332677   6.196   6.263   2.705  0.5938 -0.2775  1.1333
   53MOL   H33432678   6.361   6.260   2.521 -0.7528  2.2429  0.5949
   53MOL   H33532679   6.209   6.227   2.450 -0.9801 -0.2284  1.0061
   53MOL   H33632680   6.408   6.014   2.519  1.0734  0.4068 -2.1008
   53MOL   H33732681   6.239   5.987   2.470  2.5113 -2.9756 -2.2878
   53MOL   H33832682   6.439   5.969   2.284  2.0125 -0.3568  0.3188
   53MOL   H33932683   6.458   6.139   2.317 -1.1731  0.7270 -0.5244
   53MOL   H34032684   6.305   6.072   2.239 -0.2103 -2.4594  0.6956
   53MOL   H34132685   6.092   6.303   3.338 -1.2576 -1.1937  0.4809
   53MOL   H34232686   6.124   6.280   3.498  0.5367 -0.7879  0.6045
   53MOL   C34332687   6.298   6.331   3.385  0.3348  0.3950  0.6574
   53MOL   O34432688   6.286   6.461   3.452  0.0503  0.0469 -0.3273
   53MOL   C34532689   6.316   6.460   3.589  0.4840  0.7944  0.1834
   53MOL   C34632690   6.308   6.592   3.659  0.3548 -0.1249  0.0287
   53MOL   C34732691   6.377   6.710   3.595 -0.2682  0.3368  0.4730
   53MOL   C34832692   6.535   6.694   3.596 -0.4789 -0.3073 -0.2890
   53MOL   C34932693   6.603   6.781   3.491 -0.1981  0.4569  0.2020
   53MOL   C35032694   6.760   6.770   3.482 -0.6789  0.3033 -0.1444
   53MOL   C35132695   6.821   6.879   3.403  0.0334  0.1994 -0.2961
   53MOL   C35232696   6.970   6.857   3.381  0.6009  0.3125  1.1539
   53MOL   C35332697   6.326   6.367   3.241 -0.4341  0.4850  0.6713
   53MOL   H35432698   6.381   6.274   3.427  1.2310  0.8624 -0.4423
   53MOL   H35532699   6.407   6.403   3.606 -0.1557  0.2046  1.7310
   53MOL   H35632700   6.239   6.403   3.641  0.1976  1.8430  0.9331
   53MOL   H35732701   6.337   6.583   3.764 -1.2513 -1.9336  0.3553
   53MOL   H35832702   6.200   6.611   3.654  0.5506  1.1209  0.5569
   53MOL   H35932703   6.336   6.718   3.495 -1.8785  1.6712  1.2074
   53MOL   H36032704   6.354   6.802   3.649  0.9771  0.9858 -0.0922
   53MOL   H36132705   6.564   6.723   3.697  0.0844 -1.3475 -0.1473
   53MOL   H36232706   6.565   6.590   3.583  1.3519  0.0172  1.0469
   53MOL   H36332707   6.565   6.744   3.396 -0.1552  1.9427 -0.4129
   53MOL   H36432708   6.568   6.884   3.502 -1.1401  0.3339 -1.6045
   53MOL   H36532709   6.783   6.679   3.428  3.0825  0.8388  0.4532
   53MOL   H36632710   6.794   6.754   3.584 -0.2721  2.3265  0.0552
   53MOL   H36732711   6.771   6.910   3.312  0.7092 -1.7463 -1.3503
   53MOL   H36832712   6.802   6.961   3.472  2.1339  0.5450 -0.0747
   53MOL   H36932713   7.025   6.952   3.377  1.0526  0.0088 -0.1041
   53MOL   H37032714   7.002   6.795   3.298  1.0227  2.8130 -0.6238
   53MOL   H37132715   7.016   6.811   3.469 -0.4665 -0.8177  1.1283
   53MOL   H37232716   6.288   6.289   3.174  0.0882  1.3860 -0.6846
   53MOL   H37332717   6.265   6.454   3.217 -0.3782  0.4515  0.4091
   53MOL   C37432718   6.476   6.398   3.208  0.5499  0.7863  0.4058
   53MOL   O37532719   6.484   6.481   3.087  0.1210  0.6306  0.1989
   53MOL   C37632720   6.478   6.417   2.963  0.1454  0.6220 -0.1234
   53MOL   C37732721   6.497   6.540   2.864  0.3506  0.5827 -0.0986
   53MOL   C37832722   6.513   6.490   2.720  0.6890 -0.3297 -0.3663
   53MOL   C37932723   6.533   6.599   2.614  0.6465  0.1220  0.4210
   53MOL   C38032724   6.669   6.667   2.622 -0.0546 -0.4664  0.0533
   53MOL   C38132725   6.672   6.810   2.559 -0.0365  0.1146 -0.0053
   53MOL   C38232726   6.817   6.864   2.572 -0.1412  0.6497 -0.1310
   53MOL   C38332727   6.839   6.993   2.509  0.3635  0.2091  0.1975
   53MOL   C38432728   6.576   6.277   3.206 -0.3730 -0.0238  0.0464
   53MOL   H38532729   6.508   6.463   3.289  0.9041  0.9081  0.1688
   53MOL   H38632730   6.383   6.369   2.942 -0.8852  1.6578  2.0155
   53MOL   H38732731   6.562   6.348   2.959  0.9676  1.6815 -2.0526
   53MOL   H38832732   6.575   6.605   2.904  1.1363  0.3435 -1.2136
   53MOL   H38932733   6.408   6.603   2.871  0.6859  0.7532  2.9737
   53MOL   H39032734   6.598   6.421   2.721  1.6572  0.8606 -0.0837
   53MOL   H39132735   6.429   6.430   2.683  1.4696 -1.3943 -0.4354
   53MOL   H39232736   6.531   6.554   2.515  1.0152 -0.4131  0.6519
   53MOL   H39332737   6.451   6.670   2.605  0.1101 -0.3686  1.3690
   53MOL   H39432738   6.713   6.667   2.721 -0.1415  0.6519  0.0939
   53MOL   H39532739   6.739   6.608   2.563  1.5449  1.3827  0.0510
   53MOL   H39632740   6.596   6.876   2.600 -1.8885 -1.3554 -0.9525
   53MOL   H39732741   6.638   6.806   2.456 -0.2955 -0.7662  0.1104
   53MOL   H39832742   6.848   6.855   2.676 -1.8488  1.6062  0.4811
   53MOL   H39932743   6.875   6.797   2.509 -0.8082 -0.2459  0.2044
   53MOL   H40032744   6.791   7.066   2.575 -0.8326  0.6907 -1.1829
   53MOL   H40132745   6.804   6.996   2.406  0.8822 -0.2524  0.0041
   53MOL   H40232746   6.948   7.001   2.503  0.4535 -1.0712  0.1135
   53MOL   H40332747   6.542   6.230   3.298 -0.6397  0.8461  0.3980
   53MOL   H40432748   6.570   6.213   3.118  0.9647 -1.0016  0.6299
   53MOL   C40532749   6.721   6.321   3.231  0.3577  0.2305  0.1079
   53MOL   O40632750   6.764   6.383   3.114  0.0330  0.3339 -0.2585
   53MOL   C40732751   6.870   6.482   3.118 -0.2093  0.2523  0.3300
   53MOL   C40832752   6.904   6.521   2.974 -0.6463 -0.4284  0.5058
   53MOL   C40932753   7.029   6.607   2.960 -0.1220 -0.9033 -0.4317
   53MOL   C41032754   7.084   6.624   2.813  0.1808 -0.8618  0.1604
   53MOL   C41132755   7.194   6.730   2.811  0.3144  0.0737 -0.2093
   53MOL   C41232756   7.270   6.755   2.676  0.8855 -0.7756 -0.7151
   53MOL   C41332757   7.197   6.862   2.599  0.0809  0.0958  0.1616
   53MOL   C41432758   7.274   6.898   2.469  0.1708  0.0637 -0.7623
   53MOL   C41532759   6.805   6.208   3.266 -0.1565 -0.4421 -0.1345
   53MOL   H41632760   6.718   6.396   3.311 -0.1357 -0.4326  0.7115
   53MOL   H41732761   6.957   6.428   3.155  1.3901  1.3434 -1.7042
   53MOL   H41832762   6.837   6.565   3.180 -1.8574 -0.5726  0.5848
   53MOL   H41932763   6.811   6.553   2.928 -0.3678 -0.7157 -0.2542
   53MOL   H42032764   6.918   6.434   2.911 -0.3128 -0.5188  0.7019
   53MOL   H42132765   6.991   6.695   3.011 -1.5488 -1.0290 -1.2733
   53MOL   H42232766   7.105   6.559   3.022 -0.2317 -0.2323  0.2293
   53MOL   H42332767   7.110   6.522   2.785 -2.4141 -1.4041 -0.4483
   53MOL   H42432768   7.004   6.649   2.744 -1.1393 -0.4576  1.8074
   53MOL   H42532769   7.168   6.827   2.854  0.6405  0.0108  0.1319
   53MOL   H42632770   7.263   6.684   2.882 -1.2798  0.8326  1.8612
   53MOL   H42732771   7.276   6.659   2.625  1.0950 -0.8024 -0.6438
   53MOL   H42832772   7.373   6.784   2.697  1.0925 -2.0111  0.0045
   53MOL   H42932773   7.099   6.819   2.576 -0.8934  1.1515  2.1813
   53MOL   H43032774   7.173   6.950   2.658 -0.6350  0.7982 -1.1645
   53MOL   H43132775   7.244   6.996   2.431  1.4167  0.3141 -1.1159
   53MOL   H43232776   7.263   6.821   2.393 -0.1125  0.7234 -1.3939
   53MOL   H43332777   7.381   6.908   2.489  0.0631 -0.5725  0.1424
   53MOL   H43432778   6.782   6.122   3.204  0.3890 -0.9297  0.3322
   53MOL   H43532779   6.909   6.235   3.245 -0.7282  1.7982 -0.1714
   53MOL   C43632780   6.799   6.162   3.413  0.6816  0.6020 -0.4076
   53MOL   O43732781   6.847   6.277   3.483 -0.1327 -0.1765 -0.1370
   53MOL   C43832782   6.769   6.333   3.591 -0.3359  0.2719  0.5558
   53MOL   C43932783   6.841   6.458   3.651 -0.5405 -0.1526  0.4460
   53MOL   C44032784   6.972   6.424   3.714 -0.5516 -0.1785  0.1951
   53MOL   C44132785   7.044   6.545   3.771 -0.5106 -0.2561 -0.1990
   53MOL   C44232786   7.162   6.519   3.868 -0.3103  0.1937 -0.0792
   53MOL   C44332787   7.226   6.647   3.920  0.2985  0.1274 -0.3519
   53MOL   C44432788   7.145   6.704   4.049 -0.2156 -0.3693  0.2591
   53MOL   C44532789   7.203   6.841   4.099  0.1885 -0.3191 -0.1693
   53MOL   C44632790   6.880   6.035   3.445  0.4250 -0.2353 -0.0208
   53MOL   H44732791   6.695   6.143   3.438  1.7887 -2.2116  2.2825
   53MOL   H44832792   6.677   6.365   3.543 -0.1387 -0.7181 -0.4994
   53MOL   H44932793   6.747   6.257   3.666  2.3303 -2.1638 -1.0071
   53MOL   H45032794   6.779   6.514   3.721 -0.6279  0.2931  0.0131
   53MOL   H45132795   6.859   6.529   3.570  0.4131  0.8660  1.5371
   53MOL   H45232796   6.955   6.342   3.784 -2.0292 -0.6374 -0.6754
   53MOL   H45332797   7.037   6.383   3.637 -0.3384  0.9055 -0.2067
   53MOL   H45432798   7.071   6.609   3.687  0.0901  1.3900  1.2090
   53MOL   H45532799   6.965   6.598   3.824 -0.0240 -0.3465  0.6284
   53MOL   H45632800   7.129   6.463   3.955  1.1425  0.0565  0.3921
   53MOL   H45732801   7.229   6.451   3.815 -1.3892 -1.2618  0.3951
   53MOL   H45832802   7.220   6.713   3.833  0.4584  0.0995 -0.3840
   53MOL   H45932803   7.331   6.635   3.944  0.4580  0.2886 -0.9592
   53MOL   H46032804   7.042   6.708   4.014  0.2764 -0.1022 -1.1835
   53MOL   H46132805   7.146   6.632   4.132  2.0181 -0.4540  0.1913
   53MOL   H46232806   7.185   6.922   4.028 -1.1170 -0.1661  0.3158
   53MOL   H46332807   7.310   6.823   4.097  0.0468 -1.1974 -0.1959
   53MOL   H46432808   7.172   6.865   4.200  0.9911  1.0313 -0.2298
   53MOL   H46532809   6.849   5.956   3.376  1.7384 -1.2692  0.5586
   53MOL   H46632810   6.985   6.053   3.419  0.4582 -0.3175  0.0593
   53MOL   C46732811   6.878   5.989   3.590  0.1193 -0.2250 -0.4792
   53MOL   O46832812   6.958   5.871   3.604 -0.1097 -0.6787 -0.3805
   53MOL   C46932813   7.056   5.887   3.708  1.0096  0.0734 -0.3894
   53MOL   C47032814   7.129   5.765   3.711 -0.5398 -0.0761 -0.4045
   53MOL   C47132815   7.227   5.744   3.830 -0.3915 -0.4268  0.2278
   53MOL   C47232816   7.294   5.607   3.843  0.4459  0.0013 -0.5005
   53MOL   C47332817   7.217   5.499   3.926  0.7529 -0.0741  0.0166
   53MOL   C47432818   7.287   5.366   3.917 -0.0993  0.1173  0.0686
   53MOL   C47532819   7.208   5.260   3.983 -0.4544  0.1165  0.2986
   53MOL   C47632820   7.278   5.123   3.979 -0.9584 -0.4087 -0.3008
   53MOL   C47732821   6.750   5.946   3.656 -0.0755  0.6748 -0.2319
   53MOL   H47832822   6.921   6.070   3.649 -1.7529 -0.8109  1.7676
   53MOL   H47932823   7.008   5.905   3.804  1.5138  2.8195 -0.6154
   53MOL   H48032824   7.123   5.972   3.694  0.1131  1.0541  1.0847
   53MOL   H48132825   7.170   5.760   3.610  0.0050  0.9521 -0.2476
   53MOL   H48232826   7.058   5.683   3.712  1.1567 -1.5614  0.5524
   53MOL   H48332827   7.298   5.825   3.816 -0.1488 -0.5174  0.9429
   53MOL   H48432828   7.170   5.765   3.921 -0.8170  1.6199 -0.4923
   53MOL   H48532829   7.324   5.562   3.749 -2.3463 -2.1334 -0.4224
   53MOL   H48632830   7.386   5.630   3.897  0.3834 -0.7497 -0.0692
   53MOL   H48732831   7.195   5.516   4.031  1.4431 -1.5336  0.4075
   53MOL   H48832832   7.125   5.482   3.870  0.0916  0.9197  0.7823
   53MOL   H48932833   7.383   5.378   3.968 -1.5658 -0.1300  3.0413
   53MOL   H49032834   7.312   5.336   3.816  0.3493  0.0793  0.1907
   53MOL   H49132835   7.184   5.283   4.086 -1.1608 -0.0890  0.1832
   53MOL   H49232836   7.112   5.270   3.933 -1.2206 -0.3870  1.6573
   53MOL   H49332837   7.218   5.059   4.044  0.7083 -0.5675  1.0929
   53MOL   H49432838   7.374   5.129   4.030 -0.9105 -0.2686 -0.4055
   53MOL   H49532839   7.285   5.078   3.880 -1.5212 -1.8089  0.2901
   53MOL   H49632840   6.778   5.930   3.761  1.8663 -1.0808 -0.9786
   53MOL   H49732841   6.683   6.032   3.653 -0.5882  0.3920  1.9427
   53MOL   C49832842   6.659   5.832   3.604 -0.2497  0.2497  0.3890
   53MOL   O49932843   6.607   5.877   3.478 -0.4558 -0.2645  0.9755
   53MOL   C50032844   6.606   5.784   3.371  0.1155  0.1561 -0.5269
   53MOL   C50132845   6.576   5.856   3.241 -0.2940  0.0093  0.6057
   53MOL   C50232846   6.552   5.755   3.131 -0.4814 -0.2292 -0.2883
   53MOL   C50332847   6.563   5.828   2.994 -0.0135  0.3142  0.1343
   53MOL   C50432848   6.500   5.753   2.875 -0.3038 -0.6957  0.4752
   53MOL   C50532849   6.356   5.702   2.887 -0.0252  0.1635  0.6139
   53MOL   C50632850   6.302   5.642   2.756 -0.6152  0.2085  0.1371
   53MOL   C50732851   6.155   5.596   2.775 -0.1822 -0.0618  0.5844
   53MOL   C50832852   6.534   5.801   3.684  0.7553  0.0386  0.5903
   53MOL   H50932853   6.720   5.742   3.596  2.0226  1.6634  1.1065
   53MOL   H51032854   6.527   5.713   3.397  0.9254 -1.0841 -1.3980
   53MOL   H51132855   6.699   5.727   3.367  0.7409  1.2828 -2.5423
   53MOL   H51232856   6.659   5.922   3.217 -1.2839  0.4993 -1.6495
   53MOL   H51332857   6.488   5.920   3.248 -1.0894 -0.9305 -0.5175
   53MOL   H51432858   6.614   5.666   3.137  1.5936  1.0540 -1.9804
   53MOL   H51532859   6.456   5.706   3.144 -0.4061 -0.4352 -0.5134
   53MOL   H51632860   6.520   5.927   3.010  1.0683  0.6896  0.7671
   53MOL   H51732861   6.666   5.839   2.961  0.1571 -0.6989  0.3283
   53MOL   H51832862   6.507   5.815   2.786  0.9003 -1.2235  0.1825
   53MOL   H51932863   6.573   5.673   2.857 -1.1351 -0.9173 -2.0966
   53MOL   H52032864   6.294   5.787   2.916 -0.4733  0.1919 -0.4229
   53MOL   H52132865   6.346   5.629   2.967 -1.7288 -0.4906 -0.1822
   53MOL   H52232866   6.312   5.712   2.673  0.4998  0.1136  0.1874
   53MOL   H52332867   6.358   5.552   2.732 -1.8096 -0.1781 -1.2537
   53MOL   H52432868   6.093   5.679   2.810  1.3990  1.3701  0.0737
   53MOL   H52532869   6.153   5.514   2.847 -2.6781 -1.2131 -0.7257
   53MOL   H52632870   6.113   5.569   2.678  0.0198 -0.9522  0.7389
   53MOL   H52732871   6.468   5.888   3.689 -1.8817 -1.9574  1.4583
   53MOL   H52832872   6.484   5.725   3.625  0.8404  0.4681 -0.0348
   53MOL   C52932873   6.557   5.754   3.830  1.0834  0.4402 -0.5028
   53MOL   O53032874   6.633   5.632   3.831 -0.0128 -0.6230  0.5236
   53MOL   C53132875   6.755   5.646   3.901  0.4277 -0.6406 -0.7017
   53MOL   C53232876   6.815   5.506   3.915 -0.3567  0.4919 -0.3802
   53MOL   C53332877   6.726   5.401   3.990  0.4910  0.3109  0.0835
   53MOL   C53432878   6.790   5.259   3.992  0.1363  0.1698 -0.0381
   53MOL   C53532879   6.710   5.176   4.096 -0.0317  0.9190  0.4155
   53MOL   C53632880   6.783   5.040   4.114 -0.1021 -0.0530  0.0814
   53MOL   C53732881   6.707   4.955   4.216 -0.3048 -0.6587 -0.2628
   53MOL   C53832882   6.733   4.797   4.205 -0.7754 -0.3385 -0.5276
   53MOL   C53932883   6.424   5.715   3.892 -0.0225  0.0774  0.0282
   53MOL   H54032884   6.607   5.834   3.885  0.5354  1.4682 -1.4573
   53MOL   H54132885   6.824   5.713   3.849 -0.2813 -0.2090 -1.0914
   53MOL   H54232886   6.721   5.696   3.992 -1.3836 -0.5397 -1.4074
   53MOL   H54332887   6.919   5.519   3.946  0.0915  0.3283 -1.7851
   53MOL   H54432888   6.824   5.472   3.812 -2.4876  0.3801 -0.5637
   53MOL   H54532889   6.716   5.432   4.094  0.7891  1.8290 -0.3303
   53MOL   H54632890   6.633   5.403   3.932  0.8244 -0.4046 -0.4885
   53MOL   H54732891   6.788   5.212   3.893  0.4168  1.8546 -0.8690
   53MOL   H54832892   6.895   5.246   4.016 -0.3149 -0.3714  1.6499
   53MOL   H54932893   6.714   5.229   4.192  1.4176 -0.8149  1.3266
   53MOL   H55032894   6.607   5.161   4.063  0.5108 -1.2817 -0.3377
   53MOL   H55132895   6.884   5.068   4.144  0.5885  0.5158 -2.5944
   53MOL   H55232896   6.788   4.982   4.022  0.6298 -2.0745  1.3868
   53MOL   H55332897   6.740   4.994   4.312 -2.0251  2.6429 -0.9503
   53MOL   H55432898   6.599   4.970   4.205 -0.2722 -1.3643 -1.6389
   53MOL   H55532899   6.798   4.757   4.283 -0.4381  0.9506 -0.1434
   53MOL   H55632900   6.791   4.781   4.114 -1.3541  2.6641 -1.4795
   53MOL   H55732901   6.640   4.741   4.208  0.2055 -2.1044 -2.0717
   53MOL   H55832902   6.341   5.784   3.875 -1.1425 -1.1232  0.5402
   53MOL   H55932903   6.395   5.626   3.838 -1.0067  0.8409 -0.7072
   53MOL   C56032904   6.436   5.696   4.042  0.0173 -0.2178 -0.3898
   53MOL   O56132905   6.339   5.600   4.087  0.0591  0.4572 -0.4566
   53MOL   C56232906   6.372   5.463   4.071  0.4944 -0.0812 -0.1335
   53MOL   C56332907   6.238   5.388   4.074  0.3068 -0.8091  0.0284
   53MOL   C56432908   6.256   5.249   4.025  0.1865  0.2466 -0.9780
   53MOL   C56532909   6.128   5.163   4.051  0.7358 -0.0638 -0.1335
   53MOL   C56632910   6.146   5.005   4.038  0.0237  0.2531 -0.1031
   53MOL   C56732911   6.242   4.949   4.146 -0.8382  0.0520 -0.3000
   53MOL   C56832912   6.241   4.791   4.158 -0.2459 -0.6059 -0.3699
   53MOL   C56932913   6.315   4.755   4.297  0.0362 -0.3660  0.2685
   53MOL   C57032914   6.407   5.825   4.122 -0.0348  0.2731  0.1613
   53MOL   H57132915   6.532   5.657   4.074 -0.3214 -0.1438  0.7414
   53MOL   H57232916   6.441   5.414   4.140 -0.0310 -0.8511 -0.1566
   53MOL   H57332917   6.408   5.445   3.970  1.8225  0.8481  0.1543
   53MOL   H57432918   6.165   5.443   4.014 -0.7669 -2.0340  0.1844
   53MOL   H57532919   6.207   5.388   4.178 -0.9692 -3.0990 -0.3056
   53MOL   H57632920   6.264   5.260   3.917 -2.0711 -1.9045 -1.4296
   53MOL   H57732921   6.348   5.206   4.064 -1.0360 -0.5234  1.1589
   53MOL   H57832922   6.084   5.189   4.147 -1.0493 -1.0424 -0.6694
   53MOL   H57932923   6.046   5.188   3.984 -2.0079  0.7629  3.3950
   53MOL   H58032924   6.047   4.962   4.052  0.6118 -1.0612  0.1272
   53MOL   H58132925   6.177   4.978   3.937  1.5523  0.6987  0.2312
   53MOL   H58232926   6.206   4.996   4.238  0.5642  1.3643 -0.4100
   53MOL   H58332927   6.343   4.985   4.127 -0.7640 -0.5017 -1.0048
   53MOL   H58432928   6.136   4.766   4.172 -0.7899  1.9281  0.3563
   53MOL   H58532929   6.274   4.741   4.068 -0.4138 -0.7919 -0.3271
   53MOL   H58632930   6.332   4.649   4.314  0.4496 -0.3795 -0.2065
   53MOL   H58732931   6.261   4.795   4.384 -1.5608 -0.7037 -0.5531
   53MOL   H58832932   6.411   4.804   4.315  0.4753 -1.2498  0.3802
   53MOL   H58932933   6.486   5.891   4.087  0.7414 -0.4572  0.5009
   53MOL   H59032934   6.318   5.872   4.082 -0.3277 -2.2615 -2.3432
   53MOL   C59132935   6.404   5.811   4.283  0.4213  0.1499 -0.1876
   53MOL   O59232936   6.396   5.934   4.340  0.6490  0.6889  0.2760
   53MOL   C59332937   6.370   5.944   4.481 -0.7795 -0.0623 -0.3513
   53MOL   C59432938   6.361   6.088   4.526  0.2278  0.1751 -0.2005
   53MOL   C59532939   6.491   6.156   4.479 -0.5624  0.6234 -0.4035
   53MOL   C59632940   6.497   6.297   4.542 -0.5645 -0.2075 -0.0048
   53MOL   C59732941   6.624   6.371   4.505 -0.6613  0.1924 -0.6638
   53MOL   C59832942   6.638   6.514   4.559  0.0885 -0.0521  0.5767
   53MOL   C59932943   6.633   6.530   4.711 -0.2758 -0.6973 -0.1360
   53MOL   C60032944   6.725   6.645   4.768 -0.1147  1.4794 -0.6459
   53MOL   C60132945   6.529   5.740   4.339 -1.0314 -0.1995  0.1766
   53MOL   H60232946   6.310   5.761   4.307  0.3652  0.3378 -0.0180
   53MOL   H60332947   6.449   5.889   4.532 -0.8760 -1.6841 -1.9067
   53MOL   H60432948   6.281   5.886   4.504 -0.6378 -1.6872 -3.6443
   53MOL   H60532949   6.339   6.096   4.632  1.1639  0.6203 -0.0345
   53MOL   H60632950   6.276   6.135   4.476 -1.5143 -2.7249 -0.1056
   53MOL   H60732951   6.580   6.099   4.506 -0.7035  0.3595 -0.4943
   53MOL   H60832952   6.500   6.160   4.370  1.0182 -1.2291 -0.3659
   53MOL   H60932953   6.409   6.361   4.541 -0.6789 -0.3586  0.3346
   53MOL   H61032954   6.504   6.265   4.646  1.7763 -1.3169 -0.4639
   53MOL   H61132955   6.709   6.314   4.541 -1.0878  1.0801  1.8238
   53MOL   H61232956   6.621   6.388   4.397  1.2639  1.1361 -0.5971
   53MOL   H61332957   6.553   6.564   4.512 -0.7191 -1.9093  0.0130
   53MOL   H61432958   6.734   6.548   4.523  1.2290 -0.5519  3.0509
   53MOL   H61532959   6.535   6.555   4.751  0.2461  1.5095 -0.1962
   53MOL   H61632960   6.654   6.433   4.757  1.4451  0.1435  0.8960
   53MOL   H61732961   6.822   6.643   4.718  1.1372  2.0314  1.6543
   53MOL   H61832962   6.753   6.632   4.873  1.4856 -2.5571 -1.4907
   53MOL   H61932963   6.677   6.743   4.761 -0.5426  1.3222  0.0603
   53MOL   H62032964   6.523   5.723   4.447  1.0629  0.6713  0.4588
   53MOL   H62132965   6.546   5.638   4.305  0.7887 -0.9025  2.9558
   53MOL   H62232966   6.621   5.789   4.308 -0.4630 -1.9423 -1.0010
   54MOL     C132967   7.673   3.290   5.055 -0.8489 -0.2521  0.7450
   54MOL     O232968   7.668   3.425   5.007 -0.1535 -0.5129 -0.5389
   54MOL     C332969   7.682   3.518   5.116  0.5218 -0.0828  0.5873
   54MOL     C432970   7.666   3.663   5.059 -0.0232  0.0640  0.5780
   54MOL     C532971   0.001   3.700   4.968  0.4699  0.4370  0.3355
   54MOL     C632972   0.014   3.852   4.938  0.6795 -0.3379 -1.0572
   54MOL     C732973   0.120   3.894   4.836 -0.0514 -0.2326 -0.2406
   54MOL     C832974   0.130   4.040   4.803 -0.4930  0.0695 -0.2068
   54MOL     C932975   0.246   4.067   4.716  0.4548 -0.0951 -0.1527
   54MOL    C1032976   0.236   4.209   4.637 -0.3959  0.4695  0.0462
   54MOL    C1132977   7.649   3.188   4.940 -0.4310 -0.2511 -0.6611
   54MOL    H1232978   7.761   3.264   5.113 -0.7710 -0.6081  0.4689
   54MOL    H1332979   0.007   3.503   5.160  1.6447  1.0564 -1.4349
   54MOL    H1432980   7.600   3.510   5.186 -0.2151  2.4884  0.0423
   54MOL    H1532981   7.665   3.732   5.144  3.4973  0.0717  0.6822
   54MOL    H1632982   7.571   3.677   5.008  0.8525  2.8586 -0.3295
   54MOL    H1732983   0.091   3.680   5.027  0.5881 -0.0509 -0.0098
   54MOL    H1832984   7.771   3.641   4.877 -0.0371  1.1026 -0.0723
   54MOL    H1932985   7.692   3.890   4.904  1.2157  1.7029 -0.3537
   54MOL    H2032986   0.026   3.902   5.034 -2.3954 -1.7942  0.1411
   54MOL    H2132987   0.216   3.858   4.875 -0.3015 -0.0813  0.5274
   54MOL    H2232988   0.108   3.841   4.741 -0.6376  0.2636 -0.4438
   54MOL    H2332989   0.150   4.085   4.901 -1.0786  1.7037 -0.8107
   54MOL    H2432990   0.033   4.078   4.768 -0.7749 -1.3645 -1.0093
   54MOL    H2532991   0.337   4.056   4.775  0.8117  0.8261 -0.5244
   54MOL    H2632992   0.254   3.993   4.636 -1.5826  0.8989 -1.3172
   54MOL    H2732993   0.146   4.215   4.576 -0.7341  1.8189  0.6548
   54MOL    H2832994   0.318   4.210   4.565  0.3908 -0.8377  0.9100
   54MOL    H2932995   0.246   4.291   4.708 -0.8537  0.0575  0.5886
   54MOL    H3032996   7.546   3.201   4.909 -0.7378 -0.7778  0.1254
   54MOL    H3132997   7.707   3.215   4.852  2.1243  0.3556  1.1418
   54MOL    H3232998   7.592   3.268   5.125 -0.9580  0.7563  0.9396
   54MOL    C3332999   7.679   3.041   4.963 -0.3050  0.3258  0.4366
   54MOL    O3433000   7.601   2.997   5.075  0.5089 -0.1528 -0.1416
   54MOL    C3533001   7.464   2.975   5.048 -0.4308  0.1075  0.1606
   54MOL    C3633002   7.440   2.830   5.005 -0.3242 -0.1381 -0.1184
   54MOL    C3733003   7.302   2.801   4.968  0.7136  0.4881 -0.7540
   54MOL    C3833004   7.283   2.649   4.935  0.8149  0.1626  0.1377
   54MOL    C3933005   7.296   2.549   5.054 -0.1667  0.5139  0.2444
   54MOL    C4033006   7.249   2.404   5.018 -0.5687 -0.1499  0.0250
   54MOL    C4133007   7.243   2.310   5.139  0.7495  0.1734  0.2716
   54MOL    C4233008   7.380   2.232   5.147 -0.0938 -0.5113  0.0873
   54MOL    C4333009   0.053   3.015   5.004  0.2648 -0.1113 -0.0034
   54MOL    H4433010   7.650   2.969   4.887 -2.0689  1.1448  0.3235
   54MOL    H4533011   7.424   3.041   4.971  1.6806  0.4950 -0.6361
   54MOL    H4633012   7.405   2.991   5.139  0.7820  1.0801  0.7905
   54MOL    H4733013   7.468   2.754   5.077 -0.1624 -0.9224 -0.9945
   54MOL    H4833014   7.504   2.813   4.918  1.8900  0.7546  1.3015
   54MOL    H4933015   7.222   2.831   5.035 -0.2064  0.9980 -2.0500
   54MOL    H5033016   7.279   2.853   4.875  3.8002  3.8864  0.2516
   54MOL    H5133017   7.189   2.634   4.881  0.8695  1.1139 -0.2232
   54MOL    H5233018   7.361   2.626   4.863 -1.7312 -1.4515 -2.1597
   54MOL    H5333019   7.400   2.531   5.079 -1.0121 -3.9177  0.8737
   54MOL    H5433020   7.239   2.582   5.141  0.2005 -0.8679  1.0204
   54MOL    H5533021   7.302   2.361   4.933  1.8071  1.5303  0.6103
   54MOL    H5633022   7.149   2.427   4.983  0.3836  1.4446 -1.7433
   54MOL    H5733023   7.230   2.370   5.229 -2.7876  1.3228 -0.9042
   54MOL    H5833024   7.157   2.244   5.133  1.1605 -0.4374  1.0639
   54MOL    H5933025   7.397   2.183   5.243  1.3720 -0.5830 -0.2065
   54MOL    H6033026   7.464   2.300   5.133 -1.9251  1.7112 -0.3379
   54MOL    H6133027   7.373   2.148   5.077 -1.8628 -2.0116  1.9968
   54MOL    H6233028   0.069   3.066   5.099 -1.6417  2.1184 -0.8552
   54MOL    H6333029   0.053   2.910   5.034 -0.2410 -0.1988 -0.3114
   54MOL    C6433030   0.163   3.045   4.902 -0.0282  0.7522  0.5820
   54MOL    O6533031   0.108   2.985   4.787  0.2041  0.3467  0.1902
   54MOL    C6633032   0.145   3.046   4.663 -0.4778 -0.2687 -0.6936
   54MOL    C6733033   0.081   2.971   4.544 -1.2333 -0.4525 -0.1734
   54MOL    C6833034   7.702   2.966   4.555 -0.0727  0.0410 -0.2141
   54MOL    C6933035   7.639   2.894   4.436  0.4239 -0.3535  0.0939
   54MOL    C7033036   7.488   2.886   4.469 -0.3911 -0.0052 -0.0764
   54MOL    C7133037   7.398   2.842   4.356  0.2550  0.1990  0.2717
   54MOL    C7233038   7.251   2.846   4.384  0.4083 -0.7875  0.1716
   54MOL    C7333039   7.174   2.814   4.254 -0.3509  0.0809  0.5892
   54MOL    C7433040   0.299   2.993   4.942 -0.2531  0.2848  0.5350
   54MOL    H7533041   0.160   3.153   4.888  0.1653  0.5486 -1.2057
   54MOL    H7633042   0.254   3.052   4.657 -0.4844  2.0572  0.5985
   54MOL    H7733043   0.127   3.153   4.655 -0.1794 -0.1719 -0.1299
   54MOL    H7833044   0.113   2.867   4.542  2.6568  0.6747 -1.0003
   54MOL    H7933045   0.115   3.029   4.457  0.9902 -0.1879  0.8336
   54MOL    H8033046   7.667   2.921   4.648 -1.7119 -1.9701 -1.7890
   54MOL    H8133047   7.668   3.069   4.571 -1.3379 -0.4323  0.1527
   54MOL    H8233048   7.659   2.946   4.342  0.0085  0.2656  0.3482
   54MOL    H8333049   7.680   2.794   4.420 -0.0034 -0.3279 -1.2264
   54MOL    H8433050   7.477   2.815   4.551  2.9682  0.5567  0.9346
   54MOL    H8533051   7.443   2.976   4.510 -0.9452 -0.6029  0.6468
   54MOL    H8633052   7.428   2.748   4.310 -0.8278 -1.8430  3.5937
   54MOL    H8733053   7.420   2.912   4.275 -3.2000  0.4164 -0.5446
   54MOL    H8833054   7.228   2.769   4.457  1.5901  0.1128  1.5061
   54MOL    H8933055   7.218   2.942   4.424 -2.7646 -1.4254 -0.7297
   54MOL    H9033056   7.196   2.712   4.222 -2.6422 -0.0648 -0.7037
   54MOL    H9133057   7.194   2.875   4.166  2.1947 -2.6127 -0.7672
   54MOL    H9233058   7.067   2.831   4.268 -0.5361  0.1926 -0.8692
   54MOL    H9333059   0.292   2.884   4.941  3.0402  0.0311  0.6239
   54MOL    H9433060   0.375   3.014   4.867 -0.9330 -0.7824 -0.4670
   54MOL    C9533061   0.352   3.061   5.071  0.5446  0.0539  0.0657
   54MOL    O9633062   0.388   3.192   5.044  0.0872  0.1884  0.3044
   54MOL    C9733063   0.355   3.285   5.154  0.3406  0.4639 -0.4084
   54MOL    C9833064   0.455   3.399   5.165 -0.1088 -0.4845 -0.0286
   54MOL    C9933065   0.450   3.485   5.040  0.0896  0.5145 -0.0045
   54MOL   C10033066   0.594   3.521   4.990  0.1529  0.1990  0.0249
   54MOL   C10133067   0.587   3.606   4.867 -0.6275  0.2693  0.1009
   54MOL   C10233068   0.730   3.644   4.805 -0.2565 -0.7345  0.5756
   54MOL   C10333069   0.717   3.719   4.663  0.3475 -0.5392 -0.4512
   54MOL   C10433070   0.658   3.859   4.684 -0.3460  0.1883 -0.6697
   54MOL   C10533071   0.480   2.986   5.119  0.3185 -0.4382  0.4559
   54MOL   H10633072   0.276   3.050   5.148  0.1929 -1.0733 -0.4346
   54MOL   H10733073   0.370   3.236   5.250 -1.7720 -0.7973 -0.6883
   54MOL   H10833074   0.252   3.322   5.149 -0.2118 -0.5843  2.4363
   54MOL   H10933075   0.549   3.349   5.189  0.4400  0.4009 -0.3039
   54MOL   H11033076   0.438   3.473   5.242 -1.0038  1.9130 -2.4474
   54MOL   H11133077   0.409   3.426   4.958  1.0415 -1.3512  0.8339
   54MOL   H11233078   0.383   3.571   5.048 -2.6457 -1.5615 -0.0188
   54MOL   H11333079   0.635   3.598   5.056  0.4411  0.9864 -1.0536
   54MOL   H11433080   0.657   3.433   4.990 -0.5608 -0.3164  0.4468
   54MOL   H11533081   0.529   3.549   4.794  1.7204 -1.2593 -0.6257
   54MOL   H11633082   0.537   3.701   4.885 -0.5606  0.4031 -0.4005
   54MOL   H11733083   0.789   3.555   4.786 -0.2568 -0.0855 -2.8307
   54MOL   H11833084   0.795   3.699   4.873  1.0643 -0.1366 -1.1106
   54MOL   H11933085   0.815   3.723   4.615  1.4441 -2.5409  1.5266
   54MOL   H12033086   0.663   3.648   4.600  1.1258  0.3015 -2.1085
   54MOL   H12133087   0.565   3.857   4.740 -0.3813 -0.5569 -0.7462
   54MOL   H12233088   0.641   3.906   4.587 -0.7395  1.1180 -0.1462
   54MOL   H12333089   0.743   3.899   4.740  2.0183 -1.7469 -2.7196
   54MOL   H12433090   0.530   2.940   5.035 -1.9667  0.1908 -1.2892
   54MOL   H12533091   0.548   3.064   5.156  1.7203 -1.2200 -0.4325
   54MOL   C12633092   0.458   2.874   5.219  0.1756  0.0604 -0.2134
   54MOL   O12733093   0.420   2.915   5.346 -0.2074 -0.4366 -0.3228
   54MOL   C12833094   0.316   2.840   5.401 -0.4099 -0.1489 -0.6267
   54MOL   C12933095   0.266   2.926   5.524  0.0656  0.5624  0.5620
   54MOL   C13033096   0.146   2.863   5.593  0.5134  0.5530 -0.0447
   54MOL   C13133097   0.100   2.940   5.716  0.1644  0.2017  0.0279
   54MOL   C13233098   0.002   2.863   5.799 -0.0501  0.6897 -0.3703
   54MOL   C13333099   7.750   2.929   5.942  0.4172  0.2239 -0.0347
   54MOL   C13433100   0.091   2.935   6.041 -0.0241  0.7471 -0.8761
   54MOL   C13533101   0.091   2.817   6.130  0.5949 -0.4649 -0.1227
   54MOL   C13633102   0.590   2.799   5.256 -0.5843 -0.4394  0.3991
   54MOL   H13733103   0.394   2.801   5.169  1.8172 -2.0658  0.7036
   54MOL   H13833104   0.352   2.744   5.437 -2.2662 -0.9578 -0.8599
   54MOL   H13933105   0.234   2.822   5.331 -2.0085  0.6184  0.9958
   54MOL   H14033106   0.241   3.020   5.473 -0.5744 -0.0687 -0.3113
   54MOL   H14133107   0.354   2.940   5.586  0.4810  1.4415 -0.2096
   54MOL   H14233108   0.068   2.865   5.516 -0.4068 -1.2972  0.7959
   54MOL   H14333109   0.155   2.758   5.622 -3.1999  0.6237  1.7478
   54MOL   H14433110   0.185   2.975   5.774 -0.3388 -0.3859  1.1315
   54MOL   H14533111   0.051   3.028   5.674  0.5329  0.5123  0.2420
   54MOL   H14633112   7.677   2.858   5.755  0.8875  0.4775 -2.5393
   54MOL   H14733113   0.040   2.762   5.810  1.8002  1.4258  0.3927
   54MOL   H14833114   7.668   2.877   5.990 -0.0178  0.1799 -0.8038
   54MOL   H14933115   7.730   3.035   5.925 -0.2312  0.2777  1.0194
   54MOL   H15033116   0.178   2.923   5.976  0.7022  0.3224  0.1590
   54MOL   H15133117   0.092   3.028   6.098  1.0426 -1.3502  2.7179
   54MOL   H15233118   0.183   2.811   6.188  1.1822 -3.0290 -1.2367
   54MOL   H15333119   0.085   2.723   6.075 -1.6573 -0.0461 -0.6178
   54MOL   H15433120   0.008   2.811   6.200  0.8374  0.4859  0.2543
   54MOL   H15533121   0.571   2.711   5.318  2.1521 -1.1592  0.3041
   54MOL   H15633122   0.633   2.748   5.170 -1.2229 -0.0441 -0.1601
   54MOL   C15733123   0.714   2.887   5.283  0.4501 -0.3109 -0.1556
   54MOL   O15833124   0.764   2.936   5.160  1.1761  0.1233  0.5963
   54MOL   C15933125   0.846   3.053   5.173 -0.2423  1.5830  0.2911
   54MOL   C16033126   0.923   3.083   5.036  0.3782  0.1060  0.7172
   54MOL   C16133127   0.825   3.105   4.914 -0.2953  0.0364  0.0727
   54MOL   C16233128   0.878   3.180   4.791 -0.0287  0.5143 -0.7200
   54MOL   C16333129   0.788   3.181   4.672  0.3656  0.7108 -0.1144
   54MOL   C16433130   0.698   3.301   4.688 -0.5007  0.1233 -0.3997
   54MOL   C16533131   0.590   3.317   4.576 -0.2608 -0.7635 -0.7303
   54MOL   C16633132   0.644   3.340   4.440 -0.3710 -0.5247  0.0072
   54MOL   C16733133   0.832   2.804   5.349 -0.2169  0.5966 -0.7796
   54MOL   H16833134   0.677   2.969   5.345 -0.2312 -0.6903 -0.0641
   54MOL   H16933135   0.925   3.041   5.246 -0.6188 -1.4720  0.2630
   54MOL   H17033136   0.780   3.135   5.201  0.7414  1.9255  1.6009
   54MOL   H17133137   0.994   3.004   5.010  0.5498  0.5225 -0.1040
   54MOL   H17233138   0.977   3.176   5.052  0.8166 -0.0718  0.3016
   54MOL   H17333139   0.805   3.005   4.876 -0.0227  0.0907 -0.2168
   54MOL   H17433140   0.742   3.160   4.957 -0.6066 -0.9266  0.7375
   54MOL   H17533141   0.908   3.278   4.830 -1.3576 -0.0408  1.8401
   54MOL   H17633142   0.971   3.126   4.774 -1.5388 -2.7773  0.9523
   54MOL   H17733143   0.839   3.205   4.579 -0.5878  1.5570 -0.4173
   54MOL   H17833144   0.733   3.087   4.669  1.1875  0.1809  0.9466
   54MOL   H17933145   0.761   3.389   4.678 -0.5966  0.0941 -1.2946
   54MOL   H18033146   0.632   3.311   4.774 -0.6647 -2.2381 -0.2154
   54MOL   H18133147   0.533   3.224   4.586  2.0508 -1.8598  3.3216
   54MOL   H18233148   0.524   3.394   4.614 -1.5755 -2.3330  0.2134
   54MOL   H18333149   0.701   3.251   4.413 -1.0760 -0.0338 -3.2105
   54MOL   H18433150   0.716   3.421   4.439 -1.4929  0.4930  0.0856
   54MOL   H18533151   0.567   3.355   4.365 -1.2262 -1.6009  0.6527
   54MOL   H18633152   0.856   2.721   5.283  1.6218  1.3864 -1.1316
   54MOL   H18733153   0.922   2.865   5.362  0.2633  0.1102 -1.7623
   54MOL   C18833154   0.816   2.741   5.490 -0.0563 -0.2188 -0.6676
   54MOL   O18933155   0.785   2.851   5.573 -0.2190  0.0469  1.1246
   54MOL   C19033156   0.650   2.848   5.630 -0.5086  0.2074 -0.1074
   54MOL   C19133157   0.621   2.990   5.686  0.1351  0.3967 -0.2059
   54MOL   C19233158   0.649   3.102   5.583 -0.4985  0.2516  0.1671
   54MOL   C19333159   0.637   3.247   5.633 -0.0564  0.0615 -0.2205
   54MOL   C19433160   0.646   3.338   5.505 -0.0149  0.2147  0.7805
   54MOL   C19533161   0.578   3.481   5.526 -0.3698 -0.3999  0.3208
   54MOL   C19633162   0.639   3.561   5.640 -0.2629 -0.4089  0.2557
   54MOL   C19733163   0.567   3.692   5.676  0.2228 -0.7285 -0.3615
   54MOL   C19833164   0.938   2.670   5.536  0.5415 -0.4530 -0.2705
   54MOL   H19933165   0.735   2.668   5.482 -0.5824 -0.3411  4.3075
   54MOL   H20033166   0.581   2.830   5.548 -1.8582  0.8069  0.8917
   54MOL   H20133167   0.649   2.772   5.709  3.2924 -0.7407 -0.8732
   54MOL   H20233168   0.698   3.001   5.762 -0.9941  0.4217  0.9531
   54MOL   H20333169   0.521   2.994   5.731  0.5960 -3.2244  1.3469
   54MOL   H20433170   0.748   3.086   5.539  0.1677  2.7341  0.6709
   54MOL   H20533171   0.579   3.090   5.501 -0.4408 -3.0298  0.5216
   54MOL   H20633172   0.540   3.268   5.679 -0.3611  1.4237 -1.4688
   54MOL   H20733173   0.699   3.262   5.722 -1.0304 -0.8930  0.6374
   54MOL   H20833174   0.751   3.348   5.477 -0.1288  1.4183  0.7411
   54MOL   H20933175   0.582   3.286   5.433  0.2137 -2.6577  2.5697
   54MOL   H21033176   0.472   3.467   5.546 -0.4239  1.5889  1.5254
   54MOL   H21133177   0.585   3.538   5.433 -1.4240  0.3944  0.7245
   54MOL   H21233178   0.649   3.499   5.729  2.9825 -0.5470 -0.1386
   54MOL   H21333179   0.743   3.588   5.621 -0.0318 -0.7102  1.0632
   54MOL   H21433180   0.582   3.773   5.605 -0.9167  0.6386  0.9041
   54MOL   H21533181   0.586   3.730   5.777 -2.7847  0.0667 -0.0509
   54MOL   H21633182   0.460   3.672   5.671 -0.1193  0.9528 -0.2087
   54MOL   H21733183   1.027   2.730   5.512  1.3339 -0.5087  2.3694
   54MOL   H21833184   0.947   2.650   5.642 -0.5862  0.4011 -0.0100
   54MOL   C21933185   0.953   2.530   5.473  0.0554  0.3241 -0.0774
   54MOL   O22033186   0.847   2.465   5.536  0.7714 -0.0713  0.1960
   54MOL   C22133187   0.810   2.345   5.468 -0.9053  0.1794 -0.2756
   54MOL   C22233188   0.656   2.310   5.501  0.8629 -0.1129 -0.9172
   54MOL   C22333189   0.564   2.383   5.409 -0.1646  0.4429 -0.2110
   54MOL   C22433190   0.428   2.344   5.439 -0.6712  0.0468  0.3039
   54MOL   C22533191   0.326   2.406   5.345 -0.1687 -0.3624  0.0682
   54MOL   C22633192   0.178   2.376   5.381  0.2660  0.0809  0.2583
   54MOL   C22733193   0.078   2.420   5.273  0.5076 -0.2073 -0.6442
   54MOL   C22833194   0.064   2.566   5.242  0.2521 -0.3337 -0.2664
   54MOL   C22933195   1.077   2.454   5.516  0.6691  0.2752 -0.2289
   54MOL   H23033196   0.949   2.535   5.364 -1.1833  0.4296 -0.0324
   54MOL   H23133197   0.874   2.261   5.497  1.3509  1.1464 -2.3054
   54MOL   H23233198   0.827   2.353   5.361  0.1499 -0.2076 -0.1415
   54MOL   H23333199   0.623   2.333   5.602 -1.8090  1.6212 -2.1182
   54MOL   H23433200   0.646   2.202   5.487 -0.0666 -0.0872 -0.4963
   54MOL   H23533201   0.580   2.491   5.408 -1.6052  0.6968  1.3885
   54MOL   H23633202   0.579   2.359   5.304 -2.9676  1.1595 -0.8139
   54MOL   H23733203   0.421   2.236   5.433  0.2597 -0.1406  2.1091
   54MOL   H23833204   0.395   2.374   5.539  1.0988  0.7471  0.6987
   54MOL   H23933205   0.328   2.515   5.338 -0.3308 -0.1384  3.0885
   54MOL   H24033206   0.341   2.378   5.240 -2.8508 -2.4182  0.1858
   54MOL   H24133207   0.160   2.422   5.479 -0.4159 -0.8251  0.5629
   54MOL   H24233208   0.169   2.267   5.384 -0.6093  0.1646  1.3925
   54MOL   H24333209   0.094   2.370   5.177 -0.6337 -0.1470 -0.8690
   54MOL   H24433210   7.759   2.378   5.310  0.2081 -0.0016 -1.1688
   54MOL   H24533211   0.034   2.612   5.336  2.6888 -0.0839  0.4223
   54MOL   H24633212   7.759   2.593   5.172 -0.8725 -3.1599 -0.1736
   54MOL   H24733213   0.157   2.613   5.211  0.6605 -1.7542 -1.2836
   54MOL   H24833214   1.075   2.434   5.623  0.2788  1.0849 -0.0827
   54MOL   H24933215   1.079   2.356   5.468  2.0253 -0.0463  0.4503
   54MOL   C25033216   1.215   2.524   5.489 -0.1936 -0.0933  0.2950
   54MOL   O25133217   1.225   2.551   5.350  0.1974  0.3538  0.5828
   54MOL   C25233218   1.283   2.675   5.316  0.5673  0.6016 -0.3477
   54MOL   C25333219   1.319   2.674   5.163 -0.2871 -0.3955 -0.3217
   54MOL   C25433220   1.358   2.818   5.112  0.1661  0.1844 -0.1690
   54MOL   C25533221   1.422   2.821   4.973  0.9706 -0.6666 -0.1391
   54MOL   C25633222   1.411   2.960   4.925  0.1958  0.2955 -0.3182
   54MOL   C25733223   1.492   2.985   4.803  0.4553  0.3731 -0.3696
   54MOL   C25833224   1.475   3.124   4.737  0.1801 -0.1536 -0.1255
   54MOL   C25933225   1.593   3.155   4.633 -0.2345  0.1060 -0.4127
   54MOL   C26033226   1.339   2.446   5.518  0.2410 -0.1225  0.2142
   54MOL   H26133227   1.230   2.616   5.544 -0.8410  0.9240 -1.1885
   54MOL   H26233228   1.364   2.706   5.382 -0.1668  0.4917  0.6168
   54MOL   H26333229   1.202   2.744   5.343 -1.3734 -2.0810  0.9475
   54MOL   H26433230   1.235   2.629   5.111 -0.5564 -1.7969  1.2656
   54MOL   H26533231   1.413   2.620   5.150 -0.6207 -2.0582  3.3510
   54MOL   H26633232   1.261   2.868   5.117 -1.4677 -3.0953  2.0225
   54MOL   H26733233   1.426   2.872   5.178 -1.3339  2.2320 -0.2214
   54MOL   H26833234   1.524   2.785   4.982  0.6910 -1.2700  0.7148
   54MOL   H26933235   1.373   2.754   4.902 -0.1838 -0.4188  0.4086
   54MOL   H27033236   1.310   2.990   4.897 -0.5755 -1.4573  0.4943
   54MOL   H27133237   1.438   3.033   5.002  0.9043 -0.1238 -0.1579
   54MOL   H27233238   1.450   2.916   4.731 -3.6351  2.9803 -0.6175
   54MOL   H27333239   1.597   2.958   4.816  0.0817 -0.5625  0.7796
   54MOL   H27433240   1.380   3.135   4.685 -0.6105 -0.9094  1.1351
   54MOL   H27533241   1.489   3.209   4.803 -0.3749  0.0310 -0.2442
   54MOL   H27633242   1.695   3.152   4.669  0.2643  0.9909 -1.7263
   54MOL   H27733243   1.574   3.252   4.587 -2.1461  0.2014  0.5157
   54MOL   H27833244   1.591   3.082   4.551  1.2784 -1.9195  1.3129
   54MOL   H27933245   1.337   2.355   5.459 -0.3275  1.2325 -1.9107
   54MOL   H28033246   1.427   2.497   5.481 -0.6478  1.2438 -0.0513
   54MOL   C28133247   1.367   2.407   5.666  0.3847 -0.5483 -0.3834
   54MOL   O28233248   1.352   2.518   5.749 -0.2380 -0.0491  0.3043
   54MOL   C28333249   1.364   2.514   5.893 -0.0802  0.1604  0.0104
   54MOL   C28433250   1.375   2.662   5.946 -0.5099  1.3949  0.7196
   54MOL   C28533251   1.371   2.674   6.103 -0.2639  0.0135 -0.1482
   54MOL   C28633252   1.384   2.825   6.152  0.0838 -1.2438  0.4399
   54MOL   C28733253   1.332   2.829   6.301  0.0204  0.5387 -0.3919
   54MOL   C28833254   1.366   2.952   6.385  0.3359  0.2201  0.4419
   54MOL   C28933255   1.311   2.944   6.526  0.1509 -0.9639 -0.2055
   54MOL   C29033256   1.293   3.081   6.592 -0.2806  0.2422 -0.7348
   54MOL   C29133257   1.510   2.346   5.694  0.8213  0.2055 -0.2234
   54MOL   H29233258   1.286   2.346   5.707  0.4825  0.0362  0.7044
   54MOL   H29333259   1.447   2.452   5.928 -0.5761 -1.2879 -1.3009
   54MOL   H29433260   1.283   2.454   5.934 -0.5055  0.2639 -0.6793
   54MOL   H29533261   1.294   2.722   5.905 -1.9767 -1.8451 -1.3520
   54MOL   H29633262   1.478   2.693   5.927  1.1357 -3.1504  1.6611
   54MOL   H29733263   1.281   2.626   6.141 -0.0419 -0.1424  0.1825
   54MOL   H29833264   1.459   2.628   6.147  0.3339  1.0686 -0.2293
   54MOL   H29933265   1.468   2.890   6.127 -0.7828 -0.6033 -0.8785
   54MOL   H30033266   1.311   2.879   6.092  0.7896  0.0436  0.7283
   54MOL   H30133267   1.225   2.836   6.285  0.0535  1.3890 -0.2837
   54MOL   H30233268   1.361   2.736   6.349  1.9555  0.9168 -0.7654
   54MOL   H30333269   1.325   3.034   6.326 -1.2907 -0.0979  1.1089
   54MOL   H30433270   1.472   2.976   6.391 -0.2238  3.0021  0.0940
   54MOL   H30533271   1.210   2.907   6.509  0.3400 -0.8028 -1.7012
   54MOL   H30633272   1.360   2.866   6.584 -1.3865 -1.7889  0.0013
   54MOL   H30733273   1.230   3.153   6.540 -0.2539 -0.7667 -2.1987
   54MOL   H30833274   1.388   3.132   6.605 -0.3112 -0.6363  3.9370
   54MOL   H30933275   1.249   3.076   6.692  0.1277  1.3526 -0.4923
   54MOL   H31033276   1.567   2.433   5.662  0.2246  1.2062  1.3810
   54MOL   H31133277   1.531   2.319   5.798  0.6531  0.4077 -0.1376
   54MOL   C31233278   1.542   2.218   5.621  0.0174  0.4404 -0.0388
   54MOL   O31333279   1.491   2.098   5.684 -0.2382  0.3281  0.5315
   54MOL   C31433280   1.362   2.063   5.644  0.2905  0.8191  0.1469
   54MOL   C31533281   1.326   1.949   5.738  1.0192  0.5445 -0.4384
   54MOL   C31633282   1.211   1.876   5.669 -0.0828  0.0070 -0.3460
   54MOL   C31733283   1.070   1.925   5.705 -0.1467 -0.5186  0.0176
   54MOL   C31833284   0.956   1.859   5.626  0.2867  0.0630  0.6297
   54MOL   C31933285   0.899   1.733   5.691  0.4411  0.0081  0.4753
   54MOL   C32033286   0.773   1.680   5.632 -0.1245  0.5571  0.1121
   54MOL   C32133287   0.653   1.765   5.671  0.7133  1.0429 -0.1382
   54MOL   C32233288   1.692   2.202   5.598 -0.2853  0.0770 -0.3056
   54MOL   H32333289   1.500   2.220   5.521 -2.1604  0.1269  0.8278
   54MOL   H32433290   1.376   2.029   5.541 -2.9133  2.1998 -0.7870
   54MOL   H32533291   1.288   2.141   5.630 -1.5555 -0.9569 -0.1456
   54MOL   H32633292   1.307   1.978   5.841  0.9018  2.0353 -0.8730
   54MOL   H32733293   1.414   1.886   5.748  0.9672 -0.0818 -3.4898
   54MOL   H32833294   1.218   1.855   5.562 -0.7518  1.2557 -0.6411
   54MOL   H32933295   1.210   1.773   5.706 -1.2747  0.2523  0.3242
   54MOL   H33033296   1.050   1.927   5.812 -1.3331 -2.5116 -0.1441
   54MOL   H33133297   1.061   2.028   5.669  1.3058 -0.4710 -0.2597
   54MOL   H33233298   0.872   1.928   5.613 -0.9536 -1.9077 -2.2222
   54MOL   H33333299   0.985   1.831   5.525 -1.8408  0.9775 -0.2686
   54MOL   H33433300   0.889   1.738   5.800 -1.1667 -0.6272  0.3582
   54MOL   H33533301   0.975   1.655   5.682 -0.0455 -0.4110 -0.0392
   54MOL   H33633302   0.781   1.660   5.525  1.6204 -0.4833  0.4100
   54MOL   H33733303   0.773   1.580   5.677 -0.2579 -0.2175 -1.5868
   54MOL   H33833304   0.662   1.872   5.649  2.0316  1.0783  0.4876
   54MOL   H33933305   0.637   1.762   5.779 -1.3848 -3.1930 -0.5054
   54MOL   H34033306   0.565   1.728   5.619 -0.5355  0.2274  2.4881
   54MOL   H34133307   1.750   2.198   5.691 -0.0435 -0.2748 -0.4714
   54MOL   H34233308   1.699   2.100   5.561  0.0004 -0.5225  1.3494
   54MOL   C34333309   1.759   2.293   5.492 -0.2444  1.3235 -0.2400
   54MOL   O34433310   1.686   2.285   5.371 -0.5226  0.3312  0.2799
   54MOL   C34533311   1.703   2.388   5.277  0.5215 -0.1659 -0.1988
   54MOL   C34633312   1.613   2.367   5.148  0.3653 -0.5730  0.0633
   54MOL   C34733313   1.654   2.454   5.024  0.1054 -0.1786 -0.2424
   54MOL   C34833314   1.555   2.441   4.904  0.2615  0.9686  0.2268
   54MOL   C34933315   1.604   2.493   4.763  0.2449  0.3779 -0.2007
   54MOL   C35033316   1.628   2.640   4.742  0.2168 -0.7299  0.3116
   54MOL   C35133317   1.638   2.685   4.600 -0.5653 -0.0110 -0.5082
   54MOL   C35233318   1.511   2.667   4.508 -0.0570  0.6693 -0.3154
   54MOL   C35333319   1.913   2.268   5.485  0.4880  1.0996 -0.0653
   54MOL   H35433320   1.740   2.387   5.544  1.2193 -0.4322  3.7023
   54MOL   H35533321   1.809   2.402   5.254  0.5192 -1.6105 -1.0891
   54MOL   H35633322   1.666   2.475   5.331 -0.1374  0.1805 -1.1906
   54MOL   H35733323   1.509   2.389   5.174  0.1381  0.7753 -1.9168
   54MOL   H35833324   1.616   2.264   5.110  2.1935  0.0214 -1.4672
   54MOL   H35933325   1.665   2.553   5.067  0.4813 -0.4577  0.3074
   54MOL   H36033326   1.749   2.418   4.984  1.1052  0.2888  1.7034
   54MOL   H36133327   1.521   2.338   4.892 -0.5795  1.2939 -0.2405
   54MOL   H36233328   1.458   2.489   4.919 -0.7321 -0.2523 -2.0133
   54MOL   H36333329   1.689   2.430   4.739 -1.8149 -2.4548 -0.3394
   54MOL   H36433330   1.517   2.471   4.700  0.3273 -0.3509 -0.0640
   54MOL   H36533331   1.715   2.673   4.798  0.2799 -0.3046 -0.0417
   54MOL   H36633332   1.541   2.688   4.786  2.0051  0.8681  2.2151
   54MOL   H36733333   1.665   2.790   4.592 -0.7354 -0.0636 -1.9079
   54MOL   H36833334   1.722   2.630   4.556 -1.8362 -2.0150 -0.5241
   54MOL   H36933335   1.523   2.712   4.409 -0.1804  3.0289  0.7219
   54MOL   H37033336   1.424   2.715   4.553 -0.8543 -2.4886  1.6377
   54MOL   H37133337   1.488   2.561   4.499  0.9974  0.3864  0.2342
   54MOL   H37233338   1.951   2.324   5.400  1.6025  0.9296  0.3108
   54MOL   H37333339   1.948   2.313   5.578  0.1254  0.0750  0.5791
   54MOL   C37433340   1.973   2.127   5.451  0.3844 -0.1431  0.0596
   54MOL   O37533341   2.113   2.149   5.479 -0.0302 -0.9354  0.0068
   54MOL   C37633342   2.179   2.027   5.511  0.2290 -0.2166 -0.2621
   54MOL   C37733343   2.319   2.052   5.566  0.6722  0.0514 -0.2540
   54MOL   C37833344   2.406   2.137   5.478 -0.5284  0.1294 -0.4273
   54MOL   C37933345   2.556   2.143   5.511 -0.3346  0.0592 -0.2741
   54MOL   C38033346   2.587   2.141   5.663 -0.7692 -0.2549 -0.6969
   54MOL   C38133347   2.739   2.144   5.699  1.4369 -0.1596  0.3781
   54MOL   C38233348   2.790   2.167   5.848 -0.1837 -0.4022  0.1914
   54MOL   C38333349   2.767   2.040   5.931 -0.6055 -0.0585  1.0027
   54MOL   C38433350   1.950   2.088   5.304  0.0662 -0.6855  0.3930
   54MOL   H38533351   1.927   2.051   5.514  0.2935 -0.7669 -0.7582
   54MOL   H38633352   2.185   1.945   5.439 -0.6432  0.1792 -0.7867
   54MOL   H38733353   2.126   1.978   5.593 -0.1112 -0.7926 -0.8177
   54MOL   H38833354   2.368   1.955   5.578  0.9423 -0.0621 -2.1472
   54MOL   H38933355   2.310   2.086   5.669  0.1309  4.0348 -1.5205
   54MOL   H39033356   2.394   2.099   5.377 -1.4498 -2.1245  0.5042
   54MOL   H39133357   2.367   2.239   5.484 -3.2696 -0.9236  0.2649
   54MOL   H39233358   2.596   2.052   5.467  0.0016  0.0373  0.0799
   54MOL   H39333359   2.605   2.230   5.467 -1.4056 -0.0636 -1.7574
   54MOL   H39433360   2.522   2.212   5.714  0.7001 -1.1257  2.5786
   54MOL   H39533361   2.545   2.051   5.708  1.3466 -0.9620 -0.0862
   54MOL   H39633362   2.793   2.214   5.636 -1.1072  1.6916  0.1638
   54MOL   H39733363   2.768   2.048   5.656 -1.5677 -0.6925 -0.5798
   54MOL   H39833364   2.896   2.188   5.833 -0.5509  1.3478 -0.1326
   54MOL   H39933365   2.740   2.252   5.894 -1.5949  0.0751 -2.1274
   54MOL   H40033366   2.816   2.044   6.029  1.1529  1.5930  0.0729
   54MOL   H40133367   2.801   1.956   5.871 -1.3277 -0.2684  0.8804
   54MOL   H40233368   2.659   2.035   5.948 -0.8631 -0.8816 -0.7794
   54MOL   H40333369   1.930   2.176   5.242  1.7975  0.6287  1.6391
   54MOL   H40433370   2.043   2.043   5.268  0.0296 -0.3355 -0.1502
   54MOL   C40533371   1.853   1.982   5.270 -0.0073  0.3400  0.2826
   54MOL   O40633372   1.908   1.848   5.277  0.1883 -0.0886  0.0699
   54MOL   C40733373   1.878   1.766   5.389  0.0679  0.1421 -0.1285
   54MOL   C40833374   1.925   1.622   5.354  0.0814 -0.2474 -1.2396
   54MOL   C40933375   1.853   1.554   5.245 -0.1996 -0.4305 -0.1277
   54MOL   C41033376   1.885   1.409   5.227  0.3161  0.3114 -0.8743
   54MOL   C41133377   1.797   1.325   5.127 -0.5263  0.2131 -0.2783
   54MOL   C41233378   1.838   1.175   5.121  0.0350  0.2116 -0.7915
   54MOL   C41333379   1.800   1.098   5.249  0.0499 -0.0912  0.2357
   54MOL   C41433380   1.798   0.949   5.225 -0.1131 -0.4227 -0.0253
   54MOL   C41533381   1.781   1.992   5.130 -0.3462 -0.2957 -0.7192
   54MOL   H41633382   1.772   1.986   5.343  1.8840 -1.2942  2.5537
   54MOL   H41733383   1.771   1.757   5.407  0.4729 -0.5512  2.0679
   54MOL   H41833384   1.928   1.800   5.480 -0.3763 -0.7217  0.4440
   54MOL   H41933385   1.906   1.570   5.448 -2.9320  0.8145 -1.2151
   54MOL   H42033386   2.032   1.629   5.335  0.3706 -1.3946 -0.1433
   54MOL   H42133387   1.748   1.582   5.252 -0.1007 -0.1633  0.2970
   54MOL   H42233388   1.880   1.608   5.153  1.5170  0.0107  0.6098
   54MOL   H42333389   1.990   1.405   5.198  0.8073  0.6311  0.7974
   54MOL   H42433390   1.878   1.364   5.326  1.1136  2.9159  0.4266
   54MOL   H42533391   1.692   1.335   5.154  0.1922  1.2277  2.3156
   54MOL   H42633392   1.809   1.370   5.029 -0.8254  0.4928 -0.1904
   54MOL   H42733393   1.947   1.174   5.109  0.2836  0.4950  1.2299
   54MOL   H42833394   1.792   1.135   5.031 -1.4019  0.2681 -0.0929
   54MOL   H42933395   1.868   1.126   5.330 -0.6912  2.2999  0.0905
   54MOL   H43033396   1.708   1.135   5.295  0.0567  0.4698 -0.1984
   54MOL   H43133397   1.736   0.916   5.308 -0.1129  1.3267  0.6994
   54MOL   H43233398   1.893   0.896   5.233 -0.2548 -0.3095  3.5314
   54MOL   H43333399   1.738   0.918   5.140 -1.0336  1.5290 -0.1237
   54MOL   H43433400   1.767   2.099   5.111  1.9534  0.1610  0.0367
   54MOL   H43533401   1.851   1.961   5.054 -0.2185  0.2991 -0.8480
   54MOL   C43633402   1.651   1.908   5.125  0.2493  0.4450  0.1675
   54MOL   O43733403   1.617   1.894   4.987 -0.0614  0.2238  0.1858
   54MOL   C43833404   1.702   1.820   4.908 -0.2465 -0.0415 -0.7851
   54MOL   C43933405   1.630   1.764   4.788 -0.3375 -0.7813  0.4561
   54MOL   C44033406   1.715   1.685   4.686 -0.2579 -0.1264 -0.2681
   54MOL   C44133407   1.631   1.622   4.576 -0.2616 -0.1470  0.2284
   54MOL   C44233408   1.587   1.726   4.477  0.4596  0.0852 -0.2371
   54MOL   C44333409   1.526   1.659   4.350 -0.0959  0.3863  0.0072
   54MOL   C44433410   1.472   1.770   4.261  0.1783 -0.4743  0.2097
   54MOL   C44533411   1.392   1.718   4.137  0.3596  0.1420 -1.2073
   54MOL   C44633412   1.536   1.960   5.210  0.0447  0.2955  0.4237
   54MOL   H44733413   1.666   1.807   5.163 -0.4801  0.6613  1.0452
   54MOL   H44833414   1.777   1.893   4.877 -0.1044  1.0044  1.8779
   54MOL   H44933415   1.755   1.740   4.961 -2.0121 -2.0080 -1.8896
   54MOL   H45033416   1.593   1.857   4.745 -0.9958 -1.3538 -0.2322
   54MOL   H45133417   1.544   1.703   4.818 -1.8512  0.1228 -1.8494
   54MOL   H45233418   1.794   1.742   4.637  1.7317 -2.2452  0.3726
   54MOL   H45333419   1.767   1.608   4.743  2.8040 -0.1044 -2.9426
   54MOL   H45433420   1.695   1.545   4.533  1.8781  1.1413  0.9905
   54MOL   H45533421   1.549   1.564   4.617  0.8853 -2.4361 -0.6024
   54MOL   H45633422   1.517   1.796   4.523 -0.7894 -2.8993  2.6696
   54MOL   H45733423   1.669   1.789   4.444  1.0441 -1.1001 -1.0879
   54MOL   H45833424   1.450   1.588   4.382 -0.6928  0.5942 -0.9349
   54MOL   H45933425   1.604   1.603   4.297  1.6740  0.5749  2.3431
   54MOL   H46033426   1.406   1.836   4.318 -0.8391 -1.4665  0.2070
   54MOL   H46133427   1.549   1.838   4.226  0.0809 -0.4792 -0.0152
   54MOL   H46233428   1.297   1.682   4.176  1.5335 -0.9408  0.7668
   54MOL   H46333429   1.444   1.639   4.083  1.6038 -1.2247  1.8649
   54MOL   H46433430   1.370   1.798   4.067  1.9530  1.4281 -0.2858
   54MOL   H46533431   1.560   1.965   5.316 -0.1028 -2.8990  0.6527
   54MOL   H46633432   1.528   2.067   5.193  1.6134  0.1663 -1.2363
   54MOL   C46733433   1.405   1.870   5.193 -1.1809  0.1733 -0.2784
   54MOL   O46833434   1.300   1.933   5.263 -0.5818  0.8580 -0.0565
   54MOL   C46933435   1.243   2.044   5.196 -0.7098 -0.2897  0.2621
   54MOL   C47033436   1.100   2.076   5.258  0.3849 -0.0405  0.1422
   54MOL   C47133437   0.983   1.998   5.190 -0.0350  0.5208  0.7672
   54MOL   C47233438   0.846   2.062   5.216  0.1197  0.0982  0.5007
   54MOL   C47333439   0.739   1.999   5.134 -0.0588 -0.0044  0.4424
   54MOL   C47433440   0.598   2.026   5.182  0.6184 -0.4112 -0.2952
   54MOL   C47533441   0.555   1.937   5.299 -0.1339  0.3369  0.1561
   54MOL   C47633442   0.528   1.795   5.255 -0.2338  0.2992 -0.1350
   54MOL   C47733443   1.419   1.731   5.255  0.2716 -1.0143  0.4774
   54MOL   H47833444   1.378   1.868   5.087 -1.7701  0.5175 -0.1403
   54MOL   H47933445   1.237   2.032   5.087  0.9828  0.7152  0.0495
   54MOL   H48033446   1.313   2.126   5.211  0.5128 -1.8041  3.0696
   54MOL   H48133447   1.071   2.181   5.261 -0.7048 -0.2405 -2.4179
   54MOL   H48233448   1.102   2.049   5.364 -0.0941  0.2703  0.2285
   54MOL   H48333449   1.005   1.994   5.084 -1.6365  1.7642  0.3838
   54MOL   H48433450   0.988   1.894   5.224  0.0327  0.6109  1.0356
   54MOL   H48533451   0.831   2.054   5.323 -1.4983 -2.4590  0.1143
   54MOL   H48633452   0.852   2.170   5.202  0.5303  0.0369  0.1920
   54MOL   H48733453   0.743   2.039   5.033 -0.6461  0.2508  0.5214
   54MOL   H48833454   0.758   1.891   5.128  1.9838  0.3422  0.3727
   54MOL   H48933455   0.544   2.014   5.088 -1.2296  1.3239  0.5059
   54MOL   H49033456   0.599   2.129   5.215 -0.5562  0.0537 -1.6627
   54MOL   H49133457   0.623   1.953   5.383 -0.8424  1.3636  0.5444
   54MOL   H49233458   0.465   1.970   5.349  0.5971  0.5151  1.3751
   54MOL   H49333459   0.619   1.741   5.227 -0.6948  0.2838 -1.6220
   54MOL   H49433460   0.458   1.802   5.173 -1.5047 -0.7448  0.8453
   54MOL   H49533461   0.478   1.735   5.331  1.1260 -0.3959  0.2413
   54MOL   H49633462   1.510   1.674   5.233 -0.2723 -1.8047  0.2771
   54MOL   H49733463   1.421   1.756   5.361 -0.3376 -1.8123  0.6743
   54MOL   C49833464   1.303   1.637   5.225  0.6618  0.0270  0.7062
   54MOL   O49933465   1.310   1.517   5.317  0.2836  0.3837  0.2999
   54MOL   C50033466   1.284   1.542   5.452 -0.7864  0.4586 -1.3238
   54MOL   C50133467   1.275   1.409   5.522  0.2645  0.5328  1.0367
   54MOL   C50233468   1.206   1.406   5.663  0.0628 -0.1065  0.2437
   54MOL   C50333469   1.284   1.496   5.754  0.1873  0.0712  0.0298
   54MOL   C50433470   1.219   1.503   5.897  0.0629 -0.4108  0.8925
   54MOL   C50533471   1.259   1.622   5.978 -0.3969 -0.5534 -0.1977
   54MOL   C50633472   1.151   1.663   6.080 -0.2078  0.2214  0.1877
   54MOL   C50733473   1.199   1.783   6.163  0.0493 -0.1120 -0.7913
   54MOL   C50833474   1.291   1.591   5.081  0.1025  0.1608 -0.1411
   54MOL   H50933475   1.214   1.696   5.245  0.9976  1.4155 -1.7576
   54MOL   H51033476   1.187   1.591   5.452 -1.0042  0.1344  1.7300
   54MOL   H51133477   1.362   1.608   5.491 -2.1213  1.0668  0.3948
   54MOL   H51233478   1.377   1.375   5.542  0.3906  0.7051  0.6918
   54MOL   H51333479   1.216   1.342   5.460  2.6638 -0.4629 -0.2509
   54MOL   H51433480   1.102   1.434   5.652  0.5788  1.3553 -1.0676
   54MOL   H51533481   1.196   1.312   5.717 -1.2656 -0.5767 -0.8082
   54MOL   H51633482   1.383   1.454   5.770  0.4644  0.2243 -1.1806
   54MOL   H51733483   1.306   1.595   5.713  0.8309  0.8615  2.2400
   54MOL   H51833484   1.111   1.492   5.890  0.1656 -1.1425  0.2832
   54MOL   H51933485   1.249   1.413   5.951  0.8445 -0.7369 -0.0512
   54MOL   H52033486   1.260   1.709   5.913 -0.4229  0.2191  0.8273
   54MOL   H52133487   1.357   1.608   6.025  0.0144 -0.1400 -0.9110
   54MOL   H52233488   1.058   1.689   6.030  0.5171 -0.7511 -1.7068
   54MOL   H52333489   1.127   1.573   6.138 -1.4378 -0.7951 -1.8416
   54MOL   H52433490   1.245   1.859   6.099  1.4861  1.6937  2.2978
   54MOL   H52533491   1.283   1.746   6.221  0.2481  0.7809 -0.4975
   54MOL   H52633492   1.116   1.818   6.224 -0.2412  1.4199 -2.0317
   54MOL   H52733493   1.368   1.640   5.021 -1.1047  0.5395 -1.4175
   54MOL   H52833494   1.305   1.483   5.074 -0.8723  0.0972 -1.4104
   54MOL   C52933495   1.152   1.626   5.018  0.5064  0.3600  0.8084
   54MOL   O53033496   1.063   1.548   5.094 -0.2010 -0.0917 -0.1535
   54MOL   C53133497   0.953   1.616   5.142 -0.6181 -0.3557  0.0169
   54MOL   C53233498   0.866   1.513   5.199 -0.1085 -0.0756  0.0254
   54MOL   C53333499   0.920   1.438   5.323 -0.0120 -0.5825  0.5238
   54MOL   C53433500   0.815   1.336   5.362 -0.1610 -0.4258 -0.2662
   54MOL   C53533501   0.862   1.266   5.497  0.4384 -0.9262  0.6184
   54MOL   C53633502   0.772   1.163   5.561 -0.5173 -0.3182 -0.8668
   54MOL   C53733503   0.633   1.212   5.583  0.4674  0.6580  0.6697
   54MOL   C53833504   0.557   1.106   5.661 -0.2546 -0.2242  0.3351
   54MOL   C53933505   1.129   1.582   4.880  0.4159  0.0244  0.0554
   54MOL   H54033506   1.129   1.732   5.035 -0.5813  0.0890  1.0629
   54MOL   H54133507   0.982   1.678   5.227  1.0198 -2.4861  1.0771
   54MOL   H54233508   0.908   1.671   5.060 -0.7687 -1.0352 -0.3609
   54MOL   H54333509   0.839   1.445   5.117  1.3933 -1.1901  0.4260
   54MOL   H54433510   0.772   1.554   5.237  0.2808  1.1274 -0.2975
   54MOL   H54533511   1.009   1.382   5.296 -0.5366 -0.3592 -1.7871
   54MOL   H54633512   0.960   1.496   5.406  2.8273 -2.0731  0.2490
   54MOL   H54733513   0.720   1.383   5.386 -0.1338 -0.5742  0.1478
   54MOL   H54833514   0.795   1.276   5.274  1.3918  0.3584 -1.1675
   54MOL   H54933515   0.955   1.217   5.467  1.8308  1.3911  1.0048
   54MOL   H55033516   0.876   1.347   5.569  2.5845 -1.7124  1.1400
   54MOL   H55133517   0.812   1.139   5.659  1.0759 -0.1846 -1.4806
   54MOL   H55233518   0.774   1.074   5.498 -2.1673 -1.4533  0.6134
   54MOL   H55333519   0.637   1.298   5.650  2.9753  0.4592  0.8290
   54MOL   H55433520   0.578   1.237   5.492  1.5537  2.1123  0.3823
   54MOL   H55533521   0.597   1.082   5.760 -2.1829  1.3559  1.5347
   54MOL   H55633522   0.549   1.011   5.608  1.3128 -0.2833  0.1787
   54MOL   H55733523   0.459   1.151   5.673 -0.6254 -1.3345  1.5550
   54MOL   H55833524   1.145   1.474   4.871  1.0895 -0.2750  3.8391
   54MOL   H55933525   1.024   1.590   4.851  0.1299  0.9391  1.2874
   54MOL   C56033526   1.210   1.654   4.773  0.7031 -0.1208 -0.6054
   54MOL   O56133527   1.170   1.791   4.741  0.7612 -0.3362  0.1032
   54MOL   C56233528   1.262   1.882   4.699 -0.6844 -0.3490  0.7596
   54MOL   C56333529   1.212   2.026   4.724  0.2369 -0.0735 -0.4128
   54MOL   C56433530   1.061   2.042   4.694  0.2232  0.1646  0.6473
   54MOL   C56533531   1.021   2.179   4.643 -0.6003  0.1779  0.3722
   54MOL   C56633532   0.877   2.194   4.592 -0.1674  0.2380  0.3907
   54MOL   C56733533   0.854   2.318   4.509  0.6778 -0.3079  0.0318
   54MOL   C56833534   0.717   2.336   4.445 -0.1977 -0.0304  0.3762
   54MOL   C56933535   0.671   2.221   4.355 -0.9391 -0.3349  0.1799
   54MOL   C57033536   1.227   1.577   4.638 -0.5880 -0.2116 -0.1715
   54MOL   H57133537   1.316   1.654   4.799  0.2756 -0.9659  1.1728
   54MOL   H57233538   1.289   1.857   4.596 -0.7130  0.6860  0.4906
   54MOL   H57333539   1.356   1.867   4.752 -0.0052 -1.0196 -0.5937
   54MOL   H57433540   1.274   2.095   4.667 -1.7735  0.8785 -1.5184
   54MOL   H57533541   1.231   2.057   4.826 -0.0778 -1.0224 -0.0561
   54MOL   H57633542   1.028   1.972   4.617 -0.5967  2.9746 -1.6221
   54MOL   H57733543   1.002   2.026   4.784 -2.6159  2.8145 -0.6702
   54MOL   H57833544   1.036   2.245   4.728  2.0096 -3.8519  3.2024
   54MOL   H57933545   1.091   2.212   4.565 -1.7809 -0.7327 -1.1112
   54MOL   H58033546   0.841   2.105   4.542 -2.6494  0.8148  1.1045
   54MOL   H58133547   0.814   2.192   4.681  1.4051 -1.1295  1.4962
   54MOL   H58233548   0.928   2.349   4.435  0.9237 -1.7645 -0.3480
   54MOL   H58333549   0.864   2.402   4.577 -2.3457  0.5357 -0.4818
   54MOL   H58433550   0.642   2.334   4.523 -1.8339 -0.3170 -1.1797
   54MOL   H58533551   0.707   2.435   4.400 -1.8759 -0.7736 -0.9523
   54MOL   H58633552   0.646   2.137   4.420 -3.5682  0.3537  0.0910
   54MOL   H58733553   0.740   2.178   4.282 -0.3592 -1.5878  1.4206
   54MOL   H58833554   0.581   2.248   4.300 -0.1728  0.4028 -0.7288
   54MOL   H58933555   1.304   1.624   4.577  0.6319 -0.9775  0.7676
   54MOL   H59033556   1.269   1.479   4.659 -1.5951 -0.9860 -1.6522
   54MOL   C59133557   1.111   1.544   4.551 -0.3426 -0.1995 -0.2139
   54MOL   O59233558   1.171   1.474   4.437 -0.5129  0.3194 -0.1975
   54MOL   C59333559   1.080   1.373   4.381  0.3158 -0.2198  0.5810
   54MOL   C59433560   1.146   1.324   4.246  0.9093 -0.0685 -0.2365
   54MOL   C59533561   1.114   1.397   4.117  1.1620  0.2902 -0.1144
   54MOL   C59633562   0.966   1.418   4.066 -0.1879  0.1284 -0.2351
   54MOL   C59733563   0.889   1.291   4.033 -0.3918  0.7334 -0.0256
   54MOL   C59833564   0.751   1.324   3.971 -0.3271 -0.2282 -0.7673
   54MOL   C59933565   0.676   1.201   3.912  0.1224 -0.4059 -0.0190
   54MOL   C60033566   0.543   1.228   3.852 -0.8190 -0.0302  0.8930
   54MOL   C60133567   1.041   1.669   4.497 -0.0650  0.0726 -0.1943
   54MOL   H60233568   1.036   1.487   4.605 -1.2831  1.0507 -0.1898
   54MOL   H60333569   0.980   1.415   4.372  1.0533  1.4671  0.0397
   54MOL   H60433570   1.069   1.285   4.445 -0.7293  2.1181  3.7028
   54MOL   H60533571   1.131   1.218   4.225  0.8247  0.0864 -1.0012
   54MOL   H60633572   1.253   1.336   4.263  0.6312 -0.1210  1.5926
   54MOL   H60733573   1.170   1.488   4.138 -1.8183  2.2176 -0.2205
   54MOL   H60833574   1.161   1.343   4.035 -0.4172 -1.1211 -0.1066
   54MOL   H60933575   0.908   1.472   4.141 -1.4124 -0.2403 -0.9019
   54MOL   H61033576   0.976   1.491   3.986 -2.4308 -1.1281 -1.6934
   54MOL   H61133577   0.941   1.239   3.952 -0.3420  1.0533 -0.2029
   54MOL   H61233578   0.885   1.218   4.114  0.1761  0.3345 -0.3485
   54MOL   H61333579   0.765   1.393   3.888 -0.0266  0.4569 -0.1544
   54MOL   H61433580   0.697   1.387   4.042  0.7545  0.7288 -0.7655
   54MOL   H61533581   0.741   1.150   3.841  1.3634  0.5867  0.3838
   54MOL   H61633582   0.656   1.128   3.991 -1.5613 -0.5053 -0.5255
   54MOL   H61733583   0.481   1.281   3.924  0.5912  1.1442  1.2560
   54MOL   H61833584   0.498   1.132   3.828  1.6225 -0.6716 -1.2926
   54MOL   H61933585   0.554   1.284   3.760  0.3374 -0.2668  0.8761
   54MOL   H62033586   1.091   1.725   4.419 -2.2377 -0.0039 -1.6779
   54MOL   H62133587   0.954   1.633   4.442 -0.6633 -1.7668  1.8879
   54MOL   H62233588   0.994   1.735   4.571  0.5140  0.5971 -0.2858
   55MOL     C133589   7.431   6.158   6.666 -0.0039  0.7855 -0.0185
   55MOL     O233590   7.523   6.232   6.752  0.1756  0.5941  0.6612
   55MOL     C333591   7.538   6.186   6.887 -0.1605 -0.3237 -1.0337
   55MOL     C433592   7.643   6.267   6.961  0.4530  0.1462 -0.6974
   55MOL     C533593   0.011   6.274   6.902  0.3603 -0.3956 -0.2676
   55MOL     C633594   0.105   6.336   6.993  0.6140  0.0928 -0.9810
   55MOL     C733595   0.246   6.296   6.954 -0.5843  0.0661 -0.4545
   55MOL     C833596   0.349   6.308   7.080 -0.2592  0.6066 -0.0115
   55MOL     C933597   0.494   6.260   7.038  0.1735  0.2844 -0.4997
   55MOL    C1033598   0.558   6.355   6.949  0.0691 -0.5760  0.4828
   55MOL    C1133599   7.440   6.222   6.521 -0.8867  0.2530  0.0777
   55MOL    H1233600   7.451   6.051   6.676  2.8342  1.4048  1.6110
   55MOL    H1333601   7.559   6.080   6.899  1.0260 -0.2864 -2.6102
   55MOL    H1433602   7.445   6.209   6.939  1.4991  0.3965  1.7116
   55MOL    H1533603   7.645   6.228   7.063  2.0908 -0.1058 -0.8042
   55MOL    H1633604   7.602   6.366   6.978 -0.3480 -0.4847  1.1406
   55MOL    H1733605   0.041   6.179   6.858 -1.8052 -1.2502  0.0660
   55MOL    H1833606   7.763   6.340   6.818 -0.5738  3.3426  2.7237
   55MOL    H1933607   0.089   6.443   6.985  1.0239  0.2550  0.2594
   55MOL    H2033608   0.085   6.295   7.092 -0.2776 -2.6291 -2.2449
   55MOL    H2133609   0.247   6.195   6.911 -0.7450 -0.1945  0.1499
   55MOL    H2233610   0.296   6.366   6.887  1.3619 -1.3464 -0.5285
   55MOL    H2333611   0.306   6.247   7.159 -0.6257 -0.0239 -0.6857
   55MOL    H2433612   0.357   6.409   7.121 -0.7490  0.6964 -0.1249
   55MOL    H2533613   0.548   6.229   7.128  1.2223 -2.2373 -1.9406
   55MOL    H2633614   0.492   6.168   6.980  1.3700 -0.0581 -0.0026
   55MOL    H2733615   0.644   6.310   6.899  0.7330 -0.7766  1.7854
   55MOL    H2833616   0.611   6.435   7.002 -0.6766  1.4093 -1.6703
   55MOL    H2933617   0.504   6.394   6.863  1.4880 -0.8006 -0.5331
   55MOL    H3033618   7.548   6.217   6.502 -0.6728  2.0324  0.8293
   55MOL    H3133619   7.392   6.148   6.457 -0.1860 -0.2484  0.1132
   55MOL    H3233620   7.327   6.176   6.694  0.3302 -0.9267  2.4874
   55MOL    C3333621   7.385   6.364   6.504 -0.8048 -0.6677  0.7332
   55MOL    O3433622   7.247   6.355   6.471 -0.4755 -0.4800 -0.1560
   55MOL    C3533623   7.162   6.455   6.528  0.9194 -0.3607  0.0198
   55MOL    C3633624   7.013   6.426   6.492 -0.5811  0.8623  0.7317
   55MOL    C3733625   6.904   6.504   6.547  0.2936  0.4024  0.2143
   55MOL    C3833626   6.767   6.483   6.506  0.2432  0.4138  0.5584
   55MOL    C3933627   6.701   6.359   6.571 -0.2632 -0.5125  0.0142
   55MOL    C4033628   6.552   6.353   6.533 -0.3918  0.0894  0.5419
   55MOL    C4133629   6.532   6.351   6.384  0.5562  0.1759  0.2828
   55MOL    C4233630   6.384   6.360   6.343  0.7664  0.5390  0.2312
   55MOL    C4333631   7.455   6.453   6.402  0.1931 -0.4299 -0.3061
   55MOL    H4433632   7.392   6.410   6.603 -3.5075 -2.2380  1.6980
   55MOL    H4533633   7.185   6.558   6.498  1.9905 -0.8196 -0.7500
   55MOL    H4633634   7.175   6.446   6.636 -0.7519  0.9711  0.3571
   55MOL    H4733635   6.990   6.323   6.519  1.1263  0.7602  1.9127
   55MOL    H4833636   7.004   6.436   6.383 -1.3547 -2.2051  0.4750
   55MOL    H4933637   6.897   6.472   6.651  3.6263 -0.1957  0.3159
   55MOL    H5033638   6.947   6.603   6.530 -0.5361  0.8600  0.7577
   55MOL    H5133639   6.715   6.577   6.525  2.8276  2.6394 -2.7423
   55MOL    H5233640   6.759   6.467   6.399 -0.5547 -1.6755  0.9128
   55MOL    H5333641   6.756   6.273   6.532  0.1735 -0.0789 -0.3293
   55MOL    H5433642   6.708   6.370   6.679  0.4770  1.6058 -0.2354
   55MOL    H5533643   6.505   6.446   6.563 -0.9742 -0.1171  0.2831
   55MOL    H5633644   6.494   6.272   6.577  0.8580 -2.2215 -1.8604
   55MOL    H5733645   6.583   6.423   6.320 -0.4493  0.1913 -0.5063
   55MOL    H5833646   6.561   6.255   6.340  1.7474 -0.6044  2.6436
   55MOL    H5933647   6.370   6.354   6.235 -0.8648 -1.0718  0.4913
   55MOL    H6033648   6.334   6.444   6.390 -0.7051 -1.0886  1.6626
   55MOL    H6133649   6.337   6.273   6.389  1.9648 -0.6195 -0.7043
   55MOL    H6233650   7.426   6.558   6.401  1.6675 -0.0070 -2.7429
   55MOL    H6333651   7.560   6.467   6.430 -0.1403 -1.9354  1.8547
   55MOL    C6433652   7.438   6.408   6.254  1.5410 -0.3772  0.6239
   55MOL    O6533653   7.568   6.399   6.184  0.1288 -0.0889 -0.1383
   55MOL    C6633654   7.644   6.281   6.219 -0.2136  1.3234  0.0107
   55MOL    C6733655   0.010   6.300   6.170 -0.4680 -0.0178  0.3023
   55MOL    C6833656   0.025   6.294   6.015 -0.1990  0.4570 -0.6189
   55MOL    C6933657   0.173   6.307   5.968  0.2522 -0.5216  0.3007
   55MOL    C7033658   0.210   6.264   5.823  0.3252 -0.0056 -0.0194
   55MOL    C7133659   0.354   6.319   5.783  0.6725  0.5337  0.1861
   55MOL    C7233660   0.372   6.322   5.635 -0.2803  0.9049  0.2193
   55MOL    C7333661   0.359   6.186   5.569 -0.4008  0.7288 -0.2914
   55MOL    C7433662   7.347   6.509   6.180 -0.3295 -0.4332 -0.4490
   55MOL    H7533663   7.386   6.313   6.243  0.3802  0.0571  2.1558
   55MOL    H7633664   7.602   6.187   6.181  4.3434 -0.2323 -1.5798
   55MOL    H7733665   7.642   6.262   6.326 -1.1276 -0.9412 -0.3822
   55MOL    H7833666   0.076   6.229   6.219 -0.9652  0.0999  1.1523
   55MOL    H7933667   0.059   6.395   6.193 -2.2401  1.7688 -2.9144
   55MOL    H8033668   7.766   6.194   5.987  1.6883 -0.9521  1.9160
   55MOL    H8133669   7.734   6.371   5.973 -0.3722  1.2577  1.0579
   55MOL    H8233670   0.197   6.413   5.969 -2.2443  0.0738  1.9163
   55MOL    H8333671   0.239   6.268   6.045 -1.1768 -0.7799  1.4104
   55MOL    H8433672   0.198   6.156   5.815  0.7028 -0.0347 -0.2355
   55MOL    H8533673   0.139   6.321   5.764  0.5895 -0.3787 -0.6974
   55MOL    H8633674   0.435   6.257   5.820 -0.2647  0.7664  2.7229
   55MOL    H8733675   0.370   6.415   5.834 -1.5331  0.8322  0.3702
   55MOL    H8833676   0.321   6.400   5.578 -3.0914 -1.6607 -0.8973
   55MOL    H8933677   0.477   6.351   5.625 -0.0439  1.0395  2.8257
   55MOL    H9033678   0.400   6.178   5.469  1.3125 -0.8122  0.4957
   55MOL    H9133679   0.253   6.164   5.557  0.0358 -1.6196  0.0308
   55MOL    H9233680   0.413   6.109   5.624 -1.5221  0.4197  0.3922
   55MOL    H9333681   7.262   6.537   6.243 -0.4516 -1.2207 -0.2662
   55MOL    H9433682   7.413   6.596   6.176 -0.4388 -0.2825  0.7487
   55MOL    C9533683   7.309   6.475   6.037  0.4300  0.6064 -0.2784
   55MOL    O9633684   7.267   6.586   5.961  0.3487  0.2192 -0.0116
   55MOL    C9733685   7.368   6.642   5.881 -0.1675  0.8282  0.9852
   55MOL    C9833686   7.311   6.746   5.795  0.1777  0.6682 -0.1475
   55MOL    C9933687   7.420   6.814   5.714 -0.0527  0.0137 -0.1965
   55MOL   C10033688   7.380   6.891   5.591  0.1865  0.2030 -0.1414
   55MOL   C10133689   7.500   6.970   5.531  0.0001  0.3139 -0.5218
   55MOL   C10233690   7.593   6.889   5.447 -0.0594 -0.1878  0.3153
   55MOL   C10333691   7.699   6.978   5.370 -0.7646  0.1431  0.2752
   55MOL   C10433692   0.024   6.881   5.300  0.0996  0.1410  0.3025
   55MOL   C10533693   7.182   6.381   6.039 -0.1630  0.5275  0.3962
   55MOL   H10633694   7.399   6.430   5.994  0.3194 -1.2215  1.3646
   55MOL   H10733695   7.408   6.563   5.817  1.6015  3.3025 -1.0774
   55MOL   H10833696   7.449   6.678   5.944  1.7902  1.3664 -1.7167
   55MOL   H10933697   7.253   6.810   5.860 -0.8232 -1.8551  1.5055
   55MOL   H11033698   7.239   6.695   5.732 -0.6816  1.3488  0.2808
   55MOL   H11133699   7.474   6.877   5.784 -0.8215 -0.5629  0.9296
   55MOL   H11233700   7.492   6.738   5.685 -1.4930 -0.3927 -2.9384
   55MOL   H11333701   7.341   6.823   5.515  1.0169 -0.2067 -0.2163
   55MOL   H11433702   7.313   6.973   5.617 -0.2809  0.0491 -0.8319
   55MOL   H11533703   7.445   7.041   5.468 -0.8289  1.0097  0.9761
   55MOL   H11633704   7.562   7.023   5.603  2.9795 -3.1401 -0.4101
   55MOL   H11733705   7.549   6.832   5.366  0.2371  1.2367 -0.8625
   55MOL   H11833706   7.646   6.827   5.520 -0.4270  1.6628  2.2170
   55MOL   H11933707   7.654   7.041   5.293 -2.0175 -0.4412  0.5129
   55MOL   H12033708   7.734   7.048   5.446 -0.7070  0.1847  0.2099
   55MOL   H12133709   0.092   6.946   5.246  2.1525 -2.7253 -0.6629
   55MOL   H12233710   7.761   6.815   5.222  2.3112  0.3385 -0.9535
   55MOL   H12333711   0.076   6.812   5.365 -0.1768 -3.0922 -2.7360
   55MOL   H12433712   7.200   6.280   6.075 -0.8368  0.1179 -0.3854
   55MOL   H12533713   7.103   6.426   6.099 -1.2708 -3.6079  2.2150
   55MOL   C12633714   7.106   6.359   5.907  0.1096  0.0940 -0.3504
   55MOL   O12733715   6.982   6.283   5.930 -0.3140 -0.4570  0.1871
   55MOL   C12833716   6.870   6.350   5.973  0.4591  0.1634 -0.2081
   55MOL   C12933717   6.745   6.268   5.951  0.1686  0.1006 -0.1054
   55MOL   C13033718   6.610   6.331   5.984 -0.0278 -0.6575 -0.5686
   55MOL   C13133719   6.480   6.247   5.966  0.2174  0.0793 -0.6508
   55MOL   C13233720   6.466   6.173   5.837  0.0000  0.4343  0.5450
   55MOL   C13333721   6.331   6.102   5.823  0.4518 -0.3880  0.0954
   55MOL   C13433722   6.307   6.027   5.686  0.0664  0.1187 -0.2723
   55MOL   C13533723   6.317   6.121   5.560  0.0264 -0.6023 -0.0876
   55MOL   C13633724   7.190   6.293   5.804  0.1294  0.4454 -0.7397
   55MOL   H13733725   7.080   6.456   5.866  1.9459 -0.2324 -2.3708
   55MOL   H13833726   6.848   6.452   5.940 -1.9546 -0.3055 -0.1618
   55MOL   H13933727   6.877   6.361   6.081  2.0373 -0.3247 -0.2543
   55MOL   H14033728   6.745   6.182   6.017 -3.3684 -0.3662 -0.6289
   55MOL   H14133729   6.738   6.237   5.846  2.6821 -0.6620 -0.0767
   55MOL   H14233730   6.617   6.369   6.085  1.0696 -1.2007 -0.4385
   55MOL   H14333731   6.598   6.417   5.917 -0.2566 -1.1864 -1.2228
   55MOL   H14433732   6.463   6.182   6.052 -0.9076  1.1699 -0.0451
   55MOL   H14533733   6.400   6.320   5.966  0.2008  0.1455  2.7856
   55MOL   H14633734   6.472   6.247   5.757 -0.0553 -0.3745 -0.2105
   55MOL   H14733735   6.550   6.108   5.815 -0.3568 -0.3978  1.5989
   55MOL   H14833736   6.251   6.174   5.840  0.6953 -0.2723  0.7801
   55MOL   H14933737   6.324   6.038   5.912  0.1426 -3.0363 -1.7656
   55MOL   H15033738   6.368   5.939   5.665  1.8889  1.1194  0.7422
   55MOL   H15133739   6.204   5.991   5.692  0.2424 -0.2359  0.6283
   55MOL   H15233740   6.289   6.060   5.474 -0.7297 -2.8033  1.6588
   55MOL   H15333741   6.414   6.170   5.550  0.0742 -0.2630  1.8215
   55MOL   H15433742   6.246   6.202   5.570 -0.9572 -1.4679 -0.0070
   55MOL   H15533743   7.290   6.335   5.805  0.7862 -1.0132 -3.1066
   55MOL   H15633744   7.203   6.189   5.834  0.8868  0.1782 -1.9368
   55MOL   C15733745   7.122   6.292   5.669  0.2240  1.2851 -0.0489
   55MOL   O15833746   7.207   6.223   5.568 -0.1010 -0.0038  0.1006
   55MOL   C15933747   7.200   6.080   5.566  0.6795  0.3695 -0.7156
   55MOL   C16033748   7.316   6.031   5.479 -0.1845  0.2997 -0.1454
   55MOL   C16133749   7.338   6.102   5.351  0.4643 -0.8717 -0.3244
   55MOL   C16233750   7.450   6.047   5.254 -0.1717  0.2962  0.1711
   55MOL   C16333751   7.450   6.137   5.128  0.0102 -0.5409  0.4879
   55MOL   C16433752   7.335   6.101   5.025 -0.1687  0.2954  0.5059
   55MOL   C16533753   7.342   6.181   4.893  0.8750 -0.1953 -0.2079
   55MOL   C16633754   7.268   6.121   4.773 -0.8407 -0.5422  0.8236
   55MOL   C16733755   7.103   6.425   5.596 -0.2980 -0.0325  0.8419
   55MOL   H16833756   7.028   6.239   5.683  0.3092  1.5424  1.5558
   55MOL   H16933757   7.103   6.050   5.526  1.1387 -2.5405  0.1736
   55MOL   H17033758   7.195   6.036   5.665  1.5453 -0.3074 -0.9686
   55MOL   H17133759   7.305   5.925   5.456  0.9416  0.1812 -0.1690
   55MOL   H17233760   7.406   6.030   5.540  0.4534  0.4780 -1.0631
   55MOL   H17333761   7.248   6.097   5.289  0.2971 -0.7455 -0.0935
   55MOL   H17433762   7.359   6.207   5.372 -2.5771 -0.4335  0.8640
   55MOL   H17533763   7.542   6.048   5.313  0.4713  1.9520 -0.8375
   55MOL   H17633764   7.435   5.942   5.230  0.6141  0.0780  0.5843
   55MOL   H17733765   7.454   6.241   5.160 -2.0189 -0.4367  0.4923
   55MOL   H17833766   7.544   6.131   5.074 -0.9595  0.2477 -1.3363
   55MOL   H17933767   7.237   6.121   5.070  0.2348  1.7618  0.7704
   55MOL   H18033768   7.340   5.995   5.000  0.1468  0.8207 -1.7363
   55MOL   H18133769   7.321   6.287   4.911 -2.3111 -0.3157 -2.6880
   55MOL   H18233770   7.447   6.181   4.867  1.3328  3.9211  1.2713
   55MOL   H18333771   7.320   6.030   4.742  0.6643 -0.1455  2.1189
   55MOL   H18433772   7.282   6.181   4.682  0.9457 -1.4948  0.4305
   55MOL   H18533773   7.162   6.103   4.789 -1.2309  0.5195 -0.4399
   55MOL   H18633774   7.073   6.498   5.671 -0.7375 -0.7354  1.3524
   55MOL   H18733775   7.197   6.463   5.555  0.1014  0.4608  2.1933
   55MOL   C18833776   6.983   6.420   5.497 -0.8524 -0.2023  0.4324
   55MOL   O18933777   6.985   6.542   5.427  0.1512  0.3132  0.2262
   55MOL   C19033778   7.062   6.552   5.306 -0.1424 -0.3065 -0.0776
   55MOL   C19133779   7.007   6.486   5.183 -0.1041 -0.2731  0.1834
   55MOL   C19233780   7.095   6.517   5.055 -0.0772  0.6142  0.0273
   55MOL   C19333781   7.025   6.455   4.931 -0.4904  0.4643  0.9295
   55MOL   C19433782   7.100   6.505   4.804 -0.1048 -0.8691  0.3037
   55MOL   C19533783   7.047   6.447   4.673  0.2689  0.3993 -0.2295
   55MOL   C19633784   7.091   6.520   4.548  0.0656 -0.5375 -0.2204
   55MOL   C19733785   7.088   6.443   4.415 -0.5479  0.7368  0.1299
   55MOL   C19833786   6.844   6.404   5.554 -0.1663  0.3250  0.6949
   55MOL   H19933787   6.997   6.339   5.425 -0.0688  1.3723 -1.2418
   55MOL   H20033788   7.063   6.660   5.288 -1.2181 -0.3583 -0.4784
   55MOL   H20133789   7.165   6.527   5.330 -0.1250  0.4671  0.6796
   55MOL   H20233790   6.905   6.523   5.173 -0.3617 -1.3983 -1.7137
   55MOL   H20333791   7.003   6.378   5.196 -1.1941 -0.2754 -0.0527
   55MOL   H20433792   7.109   6.625   5.057  0.8888  0.4777  1.2208
   55MOL   H20533793   7.193   6.470   5.055 -1.0803 -1.5762 -1.3633
   55MOL   H20633794   7.033   6.346   4.937 -2.3791  0.2442 -0.0998
   55MOL   H20733795   6.919   6.475   4.917 -0.1566  0.9461 -1.1564
   55MOL   H20833796   7.117   6.612   4.804  0.0435 -0.8903  1.2036
   55MOL   H20933797   7.202   6.466   4.800 -0.8951 -2.9620 -0.3668
   55MOL   H21033798   6.938   6.444   4.674  0.2589  0.8831  0.3155
   55MOL   H21133799   7.075   6.344   4.651 -0.1590  0.6694 -2.1519
   55MOL   H21233800   7.029   6.609   4.538 -2.5701 -2.1556  1.2754
   55MOL   H21333801   7.192   6.555   4.570  0.3362 -1.7294  0.4509
   55MOL   H21433802   7.149   6.354   4.423 -0.1366  1.0114  0.0546
   55MOL   H21533803   7.127   6.508   4.337 -0.1074  2.3517  1.6694
   55MOL   H21633804   6.987   6.408   4.394 -0.3837  1.9142 -2.9299
   55MOL   H21733805   6.850   6.337   5.640 -2.2512 -0.1058  0.5309
   55MOL   H21833806   6.818   6.502   5.594  1.2158  1.4026 -1.0025
   55MOL   C21933807   6.744   6.350   5.451 -0.7048 -0.7355 -0.2051
   55MOL   O22033808   6.613   6.386   5.479 -0.2900  0.4393  0.2435
   55MOL   C22133809   6.574   6.519   5.439 -0.0527  0.2042 -0.1434
   55MOL   C22233810   6.529   6.509   5.291 -0.1051 -0.4352 -0.3668
   55MOL   C22333811   6.455   6.632   5.242  0.0785 -0.1152 -0.2094
   55MOL   C22433812   6.405   6.635   5.100 -0.0818 -0.1090  0.6502
   55MOL   C22533813   6.325   6.771   5.069 -0.0808  0.6405 -0.0696
   55MOL   C22633814   6.281   6.784   4.922  0.6113 -0.4977  0.4745
   55MOL   C22733815   6.209   6.921   4.893  0.6488 -0.1553 -0.2387
   55MOL   C22833816   6.158   6.925   4.752  0.4075 -0.0952  0.9584
   55MOL   C22933817   6.753   6.193   5.459 -0.1163  0.4353 -0.2535
   55MOL   H23033818   6.782   6.376   5.352  1.4015 -0.8744  0.5488
   55MOL   H23133819   6.647   6.597   5.458  1.2084 -1.3078  1.3862
   55MOL   H23233820   6.493   6.542   5.508  0.5252  1.5070  0.1094
   55MOL   H23333821   6.468   6.423   5.266 -0.0935 -0.6522  0.3332
   55MOL   H23433822   6.616   6.487   5.229  1.7245  3.0663  0.8169
   55MOL   H23533823   6.369   6.647   5.307 -0.2911 -3.0787  0.0120
   55MOL   H23633824   6.514   6.721   5.264 -0.6223  0.3457 -0.1776
   55MOL   H23733825   6.481   6.626   5.022 -1.6787 -0.6360 -0.8557
   55MOL   H23833826   6.332   6.557   5.081  0.6702 -0.8948  0.9566
   55MOL   H23933827   6.236   6.781   5.131 -0.2678 -2.7576  0.2958
   55MOL   H24033828   6.382   6.863   5.084  0.6754  0.3585 -1.1668
   55MOL   H24133829   6.221   6.694   4.905  4.7195 -3.2149 -0.3655
   55MOL   H24233830   6.362   6.774   4.850  0.0204 -1.4164 -0.0781
   55MOL   H24333831   6.129   6.943   4.963  0.2757  0.8263 -0.9655
   55MOL   H24433832   6.287   6.992   4.921  1.4846 -0.3291 -2.0570
   55MOL   H24533833   6.234   6.913   4.675 -0.2825  1.3058  0.0391
   55MOL   H24633834   6.114   7.024   4.743 -0.5855 -0.5979  0.0616
   55MOL   H24733835   6.074   6.858   4.733  0.0087  0.3165  1.2682
   55MOL   H24833836   6.856   6.156   5.452 -0.8370 -1.8307  0.7315
   55MOL   H24933837   6.719   6.165   5.559  0.3451 -0.0078 -0.2149
   55MOL   C25033838   6.660   6.121   5.358 -0.8577 -0.2140 -0.5530
   55MOL   O25133839   6.671   5.982   5.380 -0.5870 -0.0904  0.0609
   55MOL   C25233840   6.574   5.918   5.456  0.0881  0.0934  0.4696
   55MOL   C25333841   6.616   5.774   5.449 -0.0462  0.1610  0.2264
   55MOL   C25433842   6.602   5.716   5.303  0.0621 -0.5303  0.4134
   55MOL   C25533843   6.649   5.564   5.304  0.1248 -0.0495  0.2446
   55MOL   C25633844   6.674   5.497   5.169 -0.0589  0.0885 -0.3420
   55MOL   C25733845   6.752   5.364   5.173 -0.3012 -0.2471 -0.0888
   55MOL   C25833846   6.804   5.311   5.038  1.1454  0.5858  0.2440
   55MOL   C25933847   6.751   5.173   5.020  0.2596 -0.7608  0.2783
   55MOL   C26033848   6.706   6.150   5.217  0.0004 -0.2594 -0.2180
   55MOL   H26133849   6.557   6.151   5.374 -0.3690  2.0918 -1.4458
   55MOL   H26233850   6.480   5.929   5.401  0.9396  2.0207 -0.6801
   55MOL   H26333851   6.563   5.958   5.557  2.2342  2.0699 -0.0474
   55MOL   H26433852   6.549   5.719   5.515  0.6784  0.0718  0.8922
   55MOL   H26533853   6.710   5.752   5.499 -1.0628 -1.1814  1.6053
   55MOL   H26633854   6.499   5.721   5.267  0.3233 -0.4260 -0.3191
   55MOL   H26733855   6.670   5.768   5.236  1.0595 -0.2140  1.6410
   55MOL   H26833856   6.725   5.539   5.378 -1.0912 -2.1084  0.8454
   55MOL   H26933857   6.563   5.512   5.347 -0.6058 -0.0391 -1.1915
   55MOL   H27033858   6.585   5.492   5.107 -0.3898 -0.4492  0.1790
   55MOL   H27133859   6.743   5.560   5.111  1.2773 -2.3754 -1.4895
   55MOL   H27233860   6.687   5.299   5.231  0.7118 -1.8989 -0.7710
   55MOL   H27333861   6.829   5.389   5.247  1.2004 -1.7116 -1.1264
   55MOL   H27433862   6.784   5.378   4.954  2.6062  0.4983 -0.1850
   55MOL   H27533863   6.913   5.303   5.041  1.0642 -0.1190  1.6747
   55MOL   H27633864   6.810   5.092   5.064  0.1542 -1.0102 -0.0389
   55MOL   H27733865   6.761   5.154   4.913 -1.7603 -2.1134  0.3065
   55MOL   H27833866   6.643   5.166   5.034  0.3432 -0.7150  1.0041
   55MOL   H27933867   6.721   6.255   5.195 -2.7735  0.5387  1.5013
   55MOL   H28033868   6.801   6.095   5.212  0.9864  1.1211  2.1470
   55MOL   C28133869   6.617   6.106   5.097  0.2831  0.1887 -0.9562
   55MOL   O28233870   6.663   6.146   4.968 -0.8027 -0.3408 -0.4344
   55MOL   C28333871   6.781   6.081   4.932  0.7209 -0.4312  0.2147
   55MOL   C28433872   6.826   6.116   4.791  0.2782  0.2857 -0.5929
   55MOL   C28533873   6.891   5.997   4.717  0.7703  0.0521 -0.9302
   55MOL   C28633874   6.942   6.032   4.583  0.3088 -0.1807  0.2441
   55MOL   C28733875   7.021   5.920   4.516  0.1260 -0.1962 -0.1160
   55MOL   C28833876   6.940   5.794   4.465 -0.3464  0.0285  0.1651
   55MOL   C28933877   7.024   5.673   4.420 -0.5627 -0.7166 -0.2526
   55MOL   C29033878   6.948   5.583   4.341  0.1430 -0.0907  0.2171
   55MOL   C29133879   6.474   6.171   5.106 -0.1202 -0.8387  0.4771
   55MOL   H29233880   6.605   5.998   5.091  0.7997  0.1315 -1.0365
   55MOL   H29333881   6.775   5.973   4.941  0.3014 -0.3878  0.4485
   55MOL   H29433882   6.865   6.112   4.994  0.5144  0.2626  0.1570
   55MOL   H29533883   6.896   6.199   4.794 -0.7750  1.1265  1.9986
   55MOL   H29633884   6.735   6.141   4.736 -1.0941 -1.8850  0.6252
   55MOL   H29733885   6.980   5.965   4.772 -0.0747  0.8221  0.9004
   55MOL   H29833886   6.813   5.921   4.705  1.7082 -0.6856 -2.6655
   55MOL   H29933887   6.854   6.057   4.523 -0.0172  0.4271  0.9696
   55MOL   H30033888   7.015   6.113   4.587  3.0090 -2.4795 -0.8949
   55MOL   H30133889   7.078   5.952   4.428 -0.6765 -2.1161 -1.3656
   55MOL   H30233890   7.090   5.877   4.588  0.5879  1.5620  0.5050
   55MOL   H30333891   6.893   5.833   4.374  0.5814 -1.5492 -1.0022
   55MOL   H30433892   6.854   5.768   4.527 -0.4919 -0.0794 -0.0803
   55MOL   H30533893   7.100   5.713   4.353 -0.4419 -1.1486 -0.3761
   55MOL   H30633894   7.076   5.630   4.506 -3.3721 -0.9867  1.3695
   55MOL   H30733895   6.884   5.641   4.275  0.4025  0.3886  0.3901
   55MOL   H30833896   6.885   5.524   4.407  1.0419 -0.6226  0.6087
   55MOL   H30933897   7.022   5.525   4.285 -0.4542  0.2786 -0.9767
   55MOL   H31033898   6.432   6.159   5.206 -1.5101  0.8713  0.1170
   55MOL   H31133899   6.483   6.276   5.079 -1.1404 -0.7659  0.4000
   55MOL   C31233900   6.371   6.111   5.005  0.2331  0.2713  0.1708
   55MOL   O31333901   6.259   6.210   4.998 -0.5187  0.4026  0.5638
   55MOL   C31433902   6.280   6.312   4.895  0.2932 -0.7438 -0.4784
   55MOL   C31533903   6.158   6.388   4.859 -0.2438  0.4286 -0.4148
   55MOL   C31633904   6.168   6.475   4.729  0.7599  0.8599 -0.2374
   55MOL   C31733905   6.144   6.393   4.599 -0.5253 -0.3634  0.0062
   55MOL   C31833906   6.150   6.473   4.469 -0.1808  0.1834 -0.2573
   55MOL   C31933907   6.167   6.392   4.341 -0.4388 -0.1716  0.2332
   55MOL   C32033908   6.038   6.322   4.294 -0.0612  0.5882 -0.3424
   55MOL   C32133909   6.052   6.193   4.208 -0.0976  0.0732  0.2884
   55MOL   C32233910   6.314   5.977   5.049  0.7644  0.5724  0.1572
   55MOL   H32333911   6.421   6.080   4.914  1.2673  0.2934  0.7248
   55MOL   H32433912   6.301   6.259   4.803 -0.2090 -0.4398 -0.7723
   55MOL   H32533913   6.370   6.370   4.913 -0.1086 -0.6932  1.5156
   55MOL   H32633914   6.128   6.454   4.940  0.1248  0.2155 -0.1079
   55MOL   H32733915   6.068   6.328   4.854 -0.8076  1.0542  1.7767
   55MOL   H32833916   6.094   6.555   4.730 -1.3870 -1.0821  1.2739
   55MOL   H32933917   6.262   6.532   4.724  0.7366  0.8565 -0.7667
   55MOL   H33033918   6.211   6.308   4.593  0.4923  0.4232  0.0118
   55MOL   H33133919   6.043   6.355   4.614 -1.0899  1.7419  1.7985
   55MOL   H33233920   6.057   6.530   4.462 -0.2586 -0.1457 -2.2654
   55MOL   H33333921   6.227   6.549   4.477 -0.3399  0.3033  0.1652
   55MOL   H33433922   6.256   6.329   4.338 -2.3242 -2.8868 -1.1062
   55MOL   H33533923   6.190   6.459   4.259 -1.8149 -0.2256 -0.2206
   55MOL   H33633924   5.970   6.291   4.373 -2.0168  1.3535 -1.6742
   55MOL   H33733925   5.983   6.400   4.241  1.2931  1.5717 -0.3105
   55MOL   H33833926   5.953   6.153   4.186  1.0894 -2.2949 -0.8980
   55MOL   H33933927   6.111   6.116   4.257  0.2388 -0.2302 -0.5786
   55MOL   H34033928   6.108   6.217   4.117  0.0585  0.3612  0.4577
   55MOL   H34133929   6.388   5.917   5.100 -0.9146  0.4038  2.4713
   55MOL   H34233930   6.257   5.986   5.141  2.2075  0.8677  1.0290
   55MOL   C34333931   6.242   5.879   4.948 -0.0561 -0.1386  0.3565
   55MOL   O34433932   6.325   5.842   4.841  0.1036  1.0147 -0.3022
   55MOL   C34533933   6.432   5.757   4.878  0.1386 -0.4306 -0.0225
   55MOL   C34633934   6.503   5.693   4.761 -0.1316  0.6121 -0.5700
   55MOL   C34733935   6.410   5.598   4.688  0.2052  0.2876 -0.4444
   55MOL   C34833936   6.485   5.490   4.613  0.3678  0.9750  0.7295
   55MOL   C34933937   6.385   5.378   4.571  0.4327 -1.0144  0.0772
   55MOL   C35033938   6.446   5.275   4.475 -0.0935  0.7295  0.0963
   55MOL   C35133939   6.571   5.199   4.530  0.3307 -0.6748 -0.5576
   55MOL   C35233940   6.527   5.080   4.623 -0.0006  0.4585 -0.6694
   55MOL   C35333941   6.125   5.946   4.878 -0.0992 -0.1295  0.2065
   55MOL   H35433942   6.209   5.788   5.000 -0.7784 -1.2687 -1.9837
   55MOL   H35533943   6.387   5.678   4.939 -2.6229  0.5365 -0.7186
   55MOL   H35633944   6.505   5.820   4.929  0.1840 -0.0895 -0.5102
   55MOL   H35733945   6.583   5.635   4.808 -0.9688 -1.9310 -2.1464
   55MOL   H35833946   6.549   5.766   4.695  0.6367  1.7578  1.1987
   55MOL   H35933947   6.339   5.562   4.763 -1.1972 -0.2896 -2.0327
   55MOL   H36033948   6.345   5.647   4.616 -0.0426 -0.0738 -0.4648
   55MOL   H36133949   6.533   5.529   4.523  0.9220 -1.6552 -0.1508
   55MOL   H36233950   6.567   5.448   4.671  0.9301 -2.1075 -2.1377
   55MOL   H36333951   6.344   5.324   4.657  2.2514  0.3153  1.8506
   55MOL   H36433952   6.307   5.420   4.508  2.0511 -0.6532 -1.7243
   55MOL   H36533953   6.463   5.333   4.384 -0.8002  1.0721  0.1764
   55MOL   H36633954   6.369   5.202   4.449 -1.3952  1.6045  1.4525
   55MOL   H36733955   6.632   5.154   4.452  1.0042 -0.1954 -0.3063
   55MOL   H36833956   6.628   5.257   4.602 -3.2499  1.2292  0.8751
   55MOL   H36933957   6.458   5.020   4.565  1.2133 -0.6127 -1.0237
   55MOL   H37033958   6.472   5.108   4.713 -1.9329 -0.2826 -1.6141
   55MOL   H37133959   6.610   5.011   4.639 -1.6143 -1.1839  0.7869
   55MOL   H37233960   6.057   5.961   4.962  0.4791  0.0661  0.6428
   55MOL   H37333961   6.155   6.038   4.827 -0.0992  0.3033  0.9840
   55MOL   C37433962   6.051   5.853   4.774 -0.5479  0.6371  0.1077
   55MOL   O37533963   5.953   5.932   4.709  0.4113  0.6677 -0.3421
   55MOL   C37633964   5.985   5.982   4.578 -0.7091 -0.7904  0.4047
   55MOL   C37733965   5.858   6.039   4.528 -0.1147 -0.0120  0.6062
   55MOL   C37833966   5.737   5.942   4.525 -0.3861  0.0531  0.6899
   55MOL   C37933967   5.600   6.001   4.476  0.3012  0.1440 -0.0650
   55MOL   C38033968   5.486   5.897   4.484  0.3358 -0.6812 -0.4591
   55MOL   C38133969   5.492   5.785   4.379  0.4782 -0.7192 -0.3406
   55MOL   C38233970   5.359   5.702   4.378 -0.2146 -0.1935  0.5781
   55MOL   C38333971   5.344   5.583   4.276  0.5956 -0.1831  0.2273
   55MOL   C38433972   5.982   5.730   4.835  0.4616  0.7425  0.9567
   55MOL   H38533973   6.117   5.817   4.695 -0.8827 -2.2675  1.0698
   55MOL   H38633974   6.022   5.908   4.507 -1.7950 -0.6746 -0.2958
   55MOL   H38733975   6.061   6.060   4.584 -0.1529 -0.9814 -3.0562
   55MOL   H38833976   5.873   6.082   4.429 -0.1561  0.5398  0.8372
   55MOL   H38933977   5.842   6.130   4.587  1.8272  2.3451 -2.3545
   55MOL   H39033978   5.767   5.863   4.456 -5.8304 -0.7895 -0.9401
   55MOL   H39133979   5.724   5.893   4.622 -0.0283  0.2071  0.8165
   55MOL   H39233980   5.565   6.076   4.547  1.1317  1.4532 -1.0089
   55MOL   H39333981   5.599   6.053   4.380 -3.3963 -0.9629 -0.6884
   55MOL   H39433982   5.493   5.851   4.582  2.1418 -1.0549 -0.7340
   55MOL   H39533983   5.389   5.946   4.481  0.3129 -0.8204 -3.0163
   55MOL   H39633984   5.583   5.725   4.388  1.1659 -0.1751 -3.1175
   55MOL   H39733985   5.507   5.828   4.279  0.8858 -0.0454  0.0029
   55MOL   H39833986   5.362   5.665   4.481 -0.0746  0.6055  0.8645
   55MOL   H39933987   5.269   5.764   4.369 -0.5706 -1.0472 -2.0353
   55MOL   H40033988   5.383   5.604   4.177 -0.1396 -2.2238 -0.5290
   55MOL   H40133989   5.241   5.547   4.274 -0.0290  1.6029 -2.8855
   55MOL   H40233990   5.409   5.503   4.313  1.1934 -0.4766 -1.4221
   55MOL   H40333991   6.041   5.665   4.900  1.8436  2.1187  1.1038
   55MOL   H40433992   5.892   5.758   4.890 -0.3823  0.3002 -0.1761
   55MOL   C40533993   5.916   5.634   4.735 -0.2520 -0.5774  0.3841
   55MOL   O40633994   5.799   5.564   4.792 -0.0327  0.3715 -0.0291
   55MOL   C40733995   5.674   5.634   4.781  0.0161  0.2432 -0.0276
   55MOL   C40833996   5.570   5.600   4.890  0.3175 -0.8376  0.6779
   55MOL   C40933997   5.616   5.632   5.031  0.3950  0.0745  0.0209
   55MOL   C41033998   5.510   5.609   5.142 -0.0580 -0.5398 -0.3561
   55MOL   C41133999   5.565   5.619   5.286  0.7901  0.5119 -0.1272
   55MOL   C41234000   5.466   5.591   5.395 -0.6360  0.5274  0.5181
   55MOL   C41334001   5.508   5.652   5.529 -0.6448  0.4387 -0.8080
   55MOL   C41434002   5.404   5.657   5.646  0.1530 -0.2920  0.5582
   55MOL   C41534003   6.019   5.529   4.677  1.2738 -0.5071  0.1309
   55MOL   H41634004   5.886   5.695   4.650 -0.5447 -2.8122 -1.1478
   55MOL   H41734005   5.645   5.611   4.679 -2.6157  1.2193  0.4578
   55MOL   H41834006   5.697   5.741   4.780  1.4107 -0.0157  1.2958
   55MOL   H41934007   5.542   5.494   4.884 -0.0786 -0.7204  0.4705
   55MOL   H42034008   5.484   5.661   4.864 -0.2847 -1.6664  0.7053
   55MOL   H42134009   5.711   5.580   5.042  0.3006 -0.4052 -1.3176
   55MOL   H42234010   5.642   5.737   5.046  0.6485 -0.2365  1.8906
   55MOL   H42334011   5.431   5.679   5.115  1.5266  0.6428 -2.0668
   55MOL   H42434012   5.474   5.507   5.129  0.4221 -0.6190 -1.1145
   55MOL   H42534013   5.651   5.556   5.311 -0.0585 -0.4658  0.3643
   55MOL   H42634014   5.589   5.726   5.288 -0.0299  0.7752 -2.8176
   55MOL   H42734015   5.447   5.484   5.404 -2.1868  0.7258 -0.2715
   55MOL   H42834016   5.374   5.643   5.371  0.2341  1.4538 -0.8647
   55MOL   H42934017   5.604   5.621   5.570 -1.8740 -1.5947  0.6525
   55MOL   H43034018   5.536   5.756   5.519  0.1622  0.0008 -3.4102
   55MOL   H43134019   5.374   5.555   5.668  0.8405 -0.3814  1.1205
   55MOL   H43234020   5.315   5.715   5.620 -0.2469 -0.3252  1.7761
   55MOL   H43334021   5.441   5.699   5.739 -1.5497 -0.7523  1.4736
   55MOL   H43434022   6.117   5.576   4.666  1.3347 -0.9346 -1.2604
   55MOL   H43534023   6.043   5.458   4.757 -1.5445 -1.6581 -0.0132
   55MOL   C43634024   5.977   5.450   4.550  0.2696 -0.5672 -0.0095
   55MOL   O43734025   6.074   5.350   4.532  0.5142  0.7985  0.0569
   55MOL   C43834026   6.058   5.235   4.618  0.4278  0.1868 -0.2189
   55MOL   C43934027   6.066   5.094   4.541 -0.1144  0.1035  0.9459
   55MOL   C44034028   5.943   5.066   4.450 -0.3038 -0.0287  0.0500
   55MOL   C44134029   5.925   4.915   4.417 -0.2376 -0.1456  0.5286
   55MOL   C44234030   5.775   4.882   4.362 -0.0412 -0.1966 -0.3539
   55MOL   C44334031   5.767   4.738   4.308  0.2179  0.1670  0.1193
   55MOL   C44434032   5.634   4.693   4.231  0.2260  0.8655 -0.0218
   55MOL   C44534033   5.623   4.542   4.227 -0.1760  0.3671  0.2213
   55MOL   C44634034   5.974   5.530   4.422  0.0155  0.0397  0.7701
   55MOL   H44734035   5.877   5.411   4.567  0.3534  0.0411  1.9521
   55MOL   H44834036   6.141   5.230   4.688 -2.0227  0.8633  2.9146
   55MOL   H44934037   5.965   5.238   4.677  1.3203  0.1757  1.2167
   55MOL   H45034038   6.075   5.020   4.621 -1.7328 -1.7689 -0.5483
   55MOL   H45134039   6.161   5.079   4.490  0.4730  2.5815  1.2414
   55MOL   H45234040   5.856   5.104   4.505  0.2223 -3.3807  3.3894
   55MOL   H45334041   5.948   5.124   4.358  0.0170 -0.7845 -0.4062
   55MOL   H45434042   6.002   4.903   4.341  0.5326  0.9159  1.1358
   55MOL   H45534043   5.952   4.845   4.496 -1.1447 -1.8800 -0.6526
   55MOL   H45634044   5.695   4.914   4.429 -2.2685 -1.4276 -2.3324
   55MOL   H45734045   5.754   4.955   4.283 -1.0318  0.2859  0.3369
   55MOL   H45834046   5.782   4.667   4.390 -1.7847 -1.1141 -0.5926
   55MOL   H45934047   5.854   4.727   4.243  1.6038  2.4784  1.4943
   55MOL   H46034048   5.544   4.723   4.285 -1.1502 -0.3753 -1.5601
   55MOL   H46134049   5.625   4.735   4.131 -2.8383  1.1305  0.3135
   55MOL   H46234050   5.599   4.493   4.321  0.0562 -1.1976 -0.5159
   55MOL   H46334051   5.714   4.489   4.200  0.0027  1.1392 -0.7064
   55MOL   H46434052   5.551   4.509   4.152  0.8058 -0.2698 -0.4528
   55MOL   H46534053   5.921   5.623   4.442  0.1944  0.2494  0.2887
   55MOL   H46634054   6.077   5.555   4.400 -0.4706  2.2515  0.9407
   55MOL   C46734055   5.911   5.462   4.293  0.1365  0.7635 -0.3359
   55MOL   O46834056   5.875   5.574   4.212  0.2713  0.1389  0.0144
   55MOL   C46934057   5.982   5.632   4.140  0.3547 -0.4897  0.2194
   55MOL   C47034058   5.922   5.741   4.053  0.4082 -0.6182  0.8662
   55MOL   C47134059   5.860   5.855   4.138 -0.4989  0.6589 -0.8958
   55MOL   C47234060   5.747   5.934   4.071  0.2893  0.4107 -0.6052
   55MOL   C47334061   5.643   5.847   4.012 -0.8822 -0.3125 -0.1208
   55MOL   C47434062   5.521   5.929   3.983  0.0583 -0.7432  0.0099
   55MOL   C47534063   5.425   5.859   3.888 -0.2644  0.5951 -0.2485
   55MOL   C47634064   5.286   5.929   3.862  0.6492 -1.0053  0.1979
   55MOL   C47734065   5.780   5.382   4.317  0.0360  0.0283  0.6328
   55MOL   H47834066   5.986   5.398   4.248  0.2117 -0.3203  1.2706
   55MOL   H47934067   6.016   5.571   4.056 -0.8930  0.5234 -1.0458
   55MOL   H48034068   6.064   5.655   4.207  0.9286 -0.0158 -0.6464
   55MOL   H48134069   5.846   5.684   3.998  1.8266 -0.7743 -0.9704
   55MOL   H48234070   5.993   5.771   3.976 -0.4730  1.1149  0.7122
   55MOL   H48334071   5.830   5.831   4.239  3.9161  0.7061  0.5265
   55MOL   H48434072   5.945   5.916   4.168 -0.0188  0.4205 -1.7335
   55MOL   H48534073   5.707   6.006   4.142  0.7110  0.5277 -0.4844
   55MOL   H48634074   5.778   6.003   3.993 -1.5367  0.3151 -1.4311
   55MOL   H48734075   5.676   5.797   3.920 -0.4999 -1.8499  0.8375
   55MOL   H48834076   5.617   5.759   4.070 -3.0255 -0.9960 -2.0324
   55MOL   H48934077   5.537   6.030   3.944 -0.9551 -1.1181 -1.4534
   55MOL   H49034078   5.475   5.949   4.080 -1.2264  0.9351 -0.9162
   55MOL   H49134079   5.481   5.838   3.798 -0.2062 -0.3212 -0.0002
   55MOL   H49234080   5.400   5.758   3.921  1.9217 -0.0661 -0.5969
   55MOL   H49334081   5.226   5.866   3.796  0.8395 -1.3131  0.3196
   55MOL   H49434082   5.290   6.026   3.813 -1.7072 -1.4405 -0.9308
   55MOL   H49534083   5.244   5.947   3.961  0.3879  1.3207 -0.2962
   55MOL   H49634084   5.805   5.286   4.363  2.6920 -0.2877 -1.3766
   55MOL   H49734085   5.718   5.440   4.385  0.5374  4.0856 -2.1815
   55MOL   C49834086   5.713   5.353   4.183 -0.2904 -0.1622  0.2655
   55MOL   O49934087   5.575   5.323   4.203  0.2634  0.5322  0.2074
   55MOL   C50034088   5.535   5.212   4.280 -0.0116  0.8128  0.3388
   55MOL   C50134089   5.377   5.208   4.286 -0.5556 -0.3666 -0.7691
   55MOL   C50234090   5.323   5.156   4.152 -0.2282 -0.6399 -0.7039
   55MOL   C50334091   5.335   5.007   4.129 -0.4374  0.4576 -0.3960
   55MOL   C50434092   5.341   4.965   3.980 -0.2875  0.3815  0.3935
   55MOL   C50534093   5.347   4.812   3.962  0.6720  0.0198  0.2684
   55MOL   C50634094   5.392   4.759   3.827 -0.3030 -0.2153 -0.0109
   55MOL   C50734095   5.409   4.609   3.816  0.0791 -0.7394  0.7081
   55MOL   C50834096   5.787   5.251   4.091 -0.7002  0.1044  0.1524
   55MOL   H50934097   5.702   5.441   4.121 -0.3843  0.0284  0.5515
   55MOL   H51034098   5.585   5.219   4.377  1.7340 -2.6887 -0.2495
   55MOL   H51134099   5.582   5.124   4.237  2.2633  2.6441 -0.9651
   55MOL   H51234100   5.347   5.311   4.307  0.8606 -0.2037  0.5996
   55MOL   H51334101   5.353   5.142   4.370  0.2375  1.1127  0.6655
   55MOL   H51434102   5.218   5.186   4.152 -0.6533 -2.0721 -2.0799
   55MOL   H51534103   5.375   5.221   4.081 -0.8104 -0.4622 -0.9753
   55MOL   H51634104   5.417   4.964   4.186  0.6463  1.3729 -1.2395
   55MOL   H51734105   5.253   4.969   4.190  1.5413 -1.1186  1.3701
   55MOL   H51834106   5.257   5.015   3.932 -0.4771 -1.7348 -1.5913
   55MOL   H51934107   5.438   4.994   3.938 -0.3244 -0.6438 -0.4236
   55MOL   H52034108   5.244   4.777   3.977  0.2001  1.2886  0.1034
   55MOL   H52134109   5.409   4.780   4.046  3.1400 -0.5561 -1.7205
   55MOL   H52234110   5.309   4.791   3.764  1.2183  1.1475 -1.3450
   55MOL   H52334111   5.482   4.808   3.791 -1.2919 -0.0977 -2.4028
   55MOL   H52434112   5.324   4.553   3.857  2.3311 -2.7557  2.7833
   55MOL   H52534113   5.506   4.582   3.858 -0.8251 -1.9162  2.1216
   55MOL   H52634114   5.425   4.590   3.710 -2.5089  0.3660  0.0865
   55MOL   H52734115   5.882   5.294   4.059 -0.6847 -0.7560 -0.9860
   55MOL   H52834116   5.818   5.168   4.156 -0.2566  0.2006  0.0709
   55MOL   C52934117   5.720   5.221   3.960  0.7878 -0.6104  0.7351
   55MOL   O53034118   5.792   5.107   3.907 -0.6507  0.8139 -0.3347
   55MOL   C53134119   5.767   4.975   3.951  0.2538  0.0467 -0.1560
   55MOL   C53234120   5.823   4.879   3.847  0.4680 -0.0877  0.0389
   55MOL   C53334121   5.794   4.728   3.891  0.3855  0.4138  0.2892
   55MOL   C53434122   5.835   4.636   3.780 -0.4269  0.2655  0.4550
   55MOL   C53534123   5.982   4.587   3.800  0.8460  0.2931  0.0696
   55MOL   C53634124   6.004   4.474   3.893 -0.2732 -0.4318 -0.5038
   55MOL   C53734125   6.151   4.432   3.891  1.0155 -0.3304 -0.1650
   55MOL   C53834126   6.195   4.331   3.995  0.0587  0.4613  0.5227
   55MOL   C53934127   5.731   5.343   3.860  0.1047 -0.6087  0.5898
   55MOL   H54034128   5.618   5.188   3.982  1.0710 -2.5107 -0.6538
   55MOL   H54134129   5.828   4.948   4.038 -1.3232  0.1248  0.9940
   55MOL   H54234130   5.659   4.967   3.963  0.3045 -0.7956 -0.2036
   55MOL   H54334131   5.932   4.881   3.845  0.5617  0.9008  2.7513
   55MOL   H54434132   5.787   4.899   3.747  1.5423 -0.6731 -0.4717
   55MOL   H54534133   5.842   4.718   3.988 -0.2305 -0.0613  0.5481
   55MOL   H54634134   5.686   4.718   3.903  0.2731 -0.4691 -1.3941
   55MOL   H54734135   5.759   4.559   3.766 -0.3173 -0.4610  3.4303
   55MOL   H54834136   5.838   4.692   3.687  1.8931  0.4485  0.6050
   55MOL   H54934137   6.013   4.542   3.706 -0.9201  0.0111 -0.3949
   55MOL   H55034138   6.053   4.667   3.824  0.0351  1.6793 -1.9898
   55MOL   H55134139   5.951   4.379   3.879 -0.0810 -0.5271 -0.5916
   55MOL   H55234140   5.985   4.506   3.995 -1.5090 -1.3333 -0.4397
   55MOL   H55334141   6.160   4.400   3.787  0.0507  0.7161 -0.5738
   55MOL   H55434142   6.216   4.519   3.900 -0.9393  1.0165  1.3985
   55MOL   H55534143   6.146   4.234   4.004  1.7768 -0.2924  2.0196
   55MOL   H55634144   6.180   4.379   4.091  1.2174  3.2367 -0.6284
   55MOL   H55734145   6.303   4.321   3.986 -0.2794 -1.7660 -1.7179
   55MOL   H55834146   5.715   5.435   3.917  0.1148  0.2814 -0.8247
   55MOL   H55934147   5.831   5.357   3.819 -1.0971 -0.9640 -2.6020
   55MOL   C56034148   5.637   5.336   3.743  0.3427  0.3015 -0.2622
   55MOL   O56134149   5.504   5.316   3.793  0.2522  0.1643  0.6232
   55MOL   C56234150   5.443   5.424   3.858 -0.3988  0.1607 -0.3567
   55MOL   C56334151   5.296   5.409   3.846  0.5287 -0.1701  0.6545
   55MOL   C56434152   5.207   5.519   3.913  0.0913  0.7340 -0.2490
   55MOL   C56534153   5.060   5.491   3.873 -0.1777  0.5143  0.0446
   55MOL   C56634154   4.964   5.576   3.952 -0.0166  0.3995  0.0896
   55MOL   C56734155   4.822   5.544   3.925  0.1405 -0.0568 -0.3225
   55MOL   C56834156   4.778   5.405   3.972 -0.0397  0.3773  0.0227
   55MOL   C56934157   4.628   5.384   3.966 -0.0541  0.6529 -0.6931
   55MOL   C57034158   5.666   5.227   3.638  0.6056  0.6612  0.1841
   55MOL   H57134159   5.634   5.432   3.691 -1.0507 -1.0934 -2.8487
   55MOL   H57234160   5.475   5.514   3.807  0.4167  0.0725 -0.0034
   55MOL   H57334161   5.477   5.436   3.961  1.2792 -1.3216 -0.7181
   55MOL   H57434162   5.270   5.311   3.886  0.0438  0.4099  1.7605
   55MOL   H57534163   5.277   5.406   3.738  0.1028  0.8091  0.6936
   55MOL   H57634164   5.222   5.516   4.021  1.6812 -1.5088 -0.5055
   55MOL   H57734165   5.239   5.615   3.872 -0.8832  0.6078 -1.3395
   55MOL   H57834166   5.047   5.495   3.765  2.0230 -1.2550 -0.3250
   55MOL   H57934167   5.033   5.388   3.895 -2.0587  1.2659  1.3607
   55MOL   H58034168   4.989   5.564   4.057 -2.3736  0.5938  0.6927
   55MOL   H58134169   4.975   5.684   3.934 -2.8443  0.9565  1.5014
   55MOL   H58234170   4.799   5.547   3.818  1.0165 -1.0442 -0.5453
   55MOL   H58334171   4.758   5.615   3.976 -1.3695 -0.2409 -1.9190
   55MOL   H58434172   4.806   5.324   3.906  0.3574  0.0069  0.6459
   55MOL   H58534173   4.818   5.370   4.067 -4.3375 -2.7580  0.8588
   55MOL   H58634174   4.584   5.400   3.867 -1.5100  2.1989  0.1790
   55MOL   H58734175   4.573   5.447   4.035  0.5374  0.4270 -0.0062
   55MOL   H58834176   4.606   5.279   3.988 -1.2661  0.4463 -2.8237
   55MOL   H58934177   5.767   5.247   3.603  0.6836 -0.9861 -0.5424
   55MOL   H59034178   5.672   5.129   3.685 -0.0089  0.9397  0.8555
   55MOL   C59134179   5.568   5.217   3.513  0.6996  0.6552  0.1352
   55MOL   O59234180   5.578   5.097   3.435 -0.1214 -0.4359 -0.5866
   55MOL   C59334181   5.512   4.984   3.497 -0.0662 -0.3204 -0.5757
   55MOL   C59434182   5.532   4.869   3.403 -0.2991 -0.4148  0.0642
   55MOL   C59534183   5.472   4.736   3.458 -0.0755  0.3822  0.0973
   55MOL   C59634184   5.441   4.625   3.350  0.0005  0.2739  0.1783
   55MOL   C59734185   5.575   4.580   3.276 -0.2987  0.5549 -0.7009
   55MOL   C59834186   5.681   4.533   3.371  0.2052 -0.4202  0.6777
   55MOL   C59934187   5.668   4.385   3.427 -0.5983 -0.0997 -0.0130
   55MOL   C60034188   5.782   4.321   3.501 -0.4279  0.0669  0.5919
   55MOL   C60134189   5.608   5.326   3.416 -0.3476  0.2485  0.2141
   55MOL   H60234190   5.465   5.244   3.536  1.1153  3.9081 -1.5015
   55MOL   H60334191   5.408   5.006   3.518  0.7344 -0.3893  3.9545
   55MOL   H60434192   5.561   4.957   3.591 -0.7993 -0.4621 -0.2289
   55MOL   H60534193   5.636   4.839   3.387 -0.6651 -1.6689  0.0562
   55MOL   H60634194   5.488   4.890   3.305 -1.6152 -1.8099  0.3372
   55MOL   H60734195   5.526   4.692   3.542  0.3477  1.4444  0.3889
   55MOL   H60834196   5.372   4.764   3.490  1.1574  1.7533  2.9440
   55MOL   H60934197   5.398   4.535   3.396 -1.2292  1.3577  1.2036
   55MOL   H61034198   5.372   4.656   3.271 -0.2552 -3.3605 -1.1263
   55MOL   H61134199   5.553   4.496   3.210 -0.3549  0.4589 -0.5601
   55MOL   H61234200   5.611   4.658   3.209  0.8482  1.1028  0.5350
   55MOL   H61334201   5.700   4.600   3.456 -0.5060  0.0091  0.5015
   55MOL   H61434202   5.776   4.536   3.319 -0.4043  0.8183 -0.3971
   55MOL   H61534203   5.581   4.380   3.493  0.2074 -2.4671  0.9077
   55MOL   H61634204   5.638   4.318   3.347  1.3689 -1.4714  0.3736
   55MOL   H61734205   5.795   4.377   3.594  0.4323  0.0175  0.5012
   55MOL   H61834206   5.883   4.324   3.461 -0.1884  1.6552  1.2656
   55MOL   H61934207   5.775   4.213   3.514  1.8054 -0.1795 -0.0985
   55MOL   H62034208   5.711   5.321   3.381  0.1435  3.2289  1.0712
   55MOL   H62134209   5.542   5.326   3.329 -1.6004  4.1236  1.0303
   55MOL   H62234210   5.598   5.426   3.460 -2.9275  0.6227 -1.1251
   56MOL     C134211   2.126   6.463   3.937  0.0759  0.7544  0.4365
   56MOL     O234212   2.094   6.400   3.819  0.3661  0.1198  0.4496
   56MOL     C334213   2.088   6.485   3.701 -0.3168 -0.3046 -0.3096
   56MOL     C434214   2.075   6.393   3.581 -0.8072  0.4122  0.3059
   56MOL     C534215   1.936   6.356   3.563  0.0810 -0.1188 -0.3732
   56MOL     C634216   1.906   6.273   3.433 -0.7300 -0.9636 -0.3300
   56MOL     C734217   1.890   6.350   3.304  0.1492 -0.1157  0.2627
   56MOL     C834218   1.773   6.445   3.302  0.1170  0.3853  0.6114
   56MOL     C934219   1.760   6.517   3.172  0.4142 -0.3798 -0.1790
   56MOL    C1034220   1.880   6.599   3.115  1.4019 -0.1631  0.1506
   56MOL    C1134221   2.115   6.358   4.052  0.2661  0.5022  0.6535
   56MOL    H1234222   2.225   6.507   3.932 -1.0074  3.6806  2.9161
   56MOL    H1334223   2.180   6.544   3.702  0.0796 -0.9020 -1.1159
   56MOL    H1434224   2.000   6.548   3.710 -0.2380 -0.3928  1.3058
   56MOL    H1534225   2.135   6.303   3.597 -2.1028 -0.1931  1.8515
   56MOL    H1634226   2.096   6.452   3.492 -2.4854  0.1986 -0.2457
   56MOL    H1734227   1.907   6.298   3.651 -0.6188  1.9402  0.7920
   56MOL    H1834228   1.874   6.444   3.581  0.9550  0.6933 -1.3007
   56MOL    H1934229   1.988   6.202   3.421 -1.4614 -1.4888 -2.4184
   56MOL    H2034230   1.814   6.223   3.466 -3.4452  3.2111 -1.2020
   56MOL    H2134231   1.977   6.412   3.282  0.9187 -0.7891  1.3392
   56MOL    H2234232   1.878   6.288   3.216 -0.1238  2.1906 -1.3543
   56MOL    H2334233   1.795   6.513   3.385 -0.9118  1.1363  0.2884
   56MOL    H2434234   1.676   6.398   3.318 -0.0423  0.5264  0.0732
   56MOL    H2534235   1.718   6.451   3.097  1.0606  0.3942 -1.2341
   56MOL    H2634236   1.674   6.584   3.177 -0.2947 -1.3071  0.2588
   56MOL    H2734237   1.932   6.530   3.050 -0.6834 -0.0450 -1.7172
   56MOL    H2834238   1.940   6.637   3.198  0.5351  0.2345  0.6029
   56MOL    H2934239   1.836   6.682   3.060 -0.4067 -1.2987 -0.1707
   56MOL    H3034240   2.009   6.330   4.055  0.2282  0.7656  2.0114
   56MOL    H3134241   2.175   6.272   4.023 -0.9124  0.1955 -0.9272
   56MOL    H3234242   2.063   6.549   3.964 -0.1319  1.3804 -1.9524
   56MOL    C3334243   2.175   6.404   4.186 -0.1552  0.0202 -0.0214
   56MOL    O3434244   2.244   6.296   4.243  0.0692  0.3830 -0.6656
   56MOL    C3534245   2.386   6.322   4.263  0.1988 -0.7943 -0.4751
   56MOL    C3634246   2.433   6.184   4.312 -0.0657  0.1862 -0.0437
   56MOL    C3734247   2.588   6.175   4.306  0.1145 -0.3847 -0.1424
   56MOL    C3834248   2.659   6.249   4.417  0.4092 -0.7081 -0.3581
   56MOL    C3934249   2.810   6.251   4.389 -0.2951  0.3822 -0.2429
   56MOL    C4034250   2.901   6.322   4.492  0.0595 -0.2134  0.3947
   56MOL    C4134251   3.043   6.311   4.455  0.3104 -0.0923 -0.0367
   56MOL    C4234252   3.127   6.400   4.554  0.1115 -0.2265 -0.0829
   56MOL    C4334253   2.071   6.435   4.294  0.0140 -0.3477  0.4254
   56MOL    H4434254   2.247   6.486   4.175  0.3550 -0.2637  1.1043
   56MOL    H4534255   2.412   6.398   4.336  0.6824 -1.2049 -0.2211
   56MOL    H4634256   2.440   6.341   4.170  2.1732 -0.6599  0.6853
   56MOL    H4734257   2.392   6.104   4.251 -1.3132  0.6179  0.2255
   56MOL    H4834258   2.401   6.171   4.415 -0.9762  0.3187 -0.3036
   56MOL    H4934259   2.599   6.067   4.318 -2.1903 -0.8124 -1.4891
   56MOL    H5034260   2.623   6.203   4.206 -2.0464  0.5592 -0.6736
   56MOL    H5134261   2.623   6.348   4.445  0.5498 -0.7791  0.0813
   56MOL    H5234262   2.640   6.186   4.505  1.5912 -0.1882  0.2780
   56MOL    H5334263   2.849   6.152   4.370 -0.2699  0.3418  0.0206
   56MOL    H5434264   2.826   6.294   4.290 -0.3754 -0.1495 -0.4880
   56MOL    H5534265   2.878   6.279   4.589  0.2007  0.9769  0.9641
   56MOL    H5634266   2.863   6.424   4.494 -1.5372 -0.7926  0.5336
   56MOL    H5734267   3.072   6.206   4.462  2.1280  0.3264 -0.7904
   56MOL    H5834268   3.060   6.349   4.354  2.7421  1.8491  1.0416
   56MOL    H5934269   3.230   6.399   4.519  0.3955 -0.9795  0.7697
   56MOL    H6034270   3.131   6.359   4.655 -0.1738 -0.5139 -0.1888
   56MOL    H6134271   3.100   6.505   4.563  2.6217  0.5203 -0.8980
   56MOL    H6234272   2.011   6.346   4.309 -1.1161  0.2551 -0.5276
   56MOL    H6334273   2.131   6.450   4.384  4.1254 -2.7352 -1.7551
   56MOL    C6434274   1.988   6.559   4.268  0.0666  0.5168  0.6635
   56MOL    O6534275   2.084   6.657   4.233 -0.5233 -0.4510 -0.2022
   56MOL    C6634276   2.028   6.763   4.147 -0.0565 -0.7976  0.1594
   56MOL    C6734277   2.138   6.852   4.093 -0.9812  0.4554 -0.2948
   56MOL    C6834278   2.101   6.937   3.966  0.7314 -0.1859  0.5934
   56MOL    C6934279   2.060   6.850   3.845  0.0736  0.4453  0.0138
   56MOL    C7034280   2.028   6.939   3.719 -0.4529  0.9226 -0.3446
   56MOL    C7134281   1.973   6.857   3.606 -0.3096 -0.0563  0.0026
   56MOL    C7234282   1.966   6.942   3.478  0.1707  0.8270 -0.6871
   56MOL    C7334283   1.897   6.863   3.374  0.6654  0.2788  0.0992
   56MOL    C7434284   1.902   6.607   4.388  0.1618 -0.1302 -0.1864
   56MOL    H7534285   1.917   6.538   4.188 -1.8069  2.9137  1.6346
   56MOL    H7634286   1.964   6.830   4.205  0.3684  0.4417 -0.7643
   56MOL    H7734287   1.963   6.723   4.069 -0.4109 -0.1916  0.1329
   56MOL    H7834288   2.228   6.798   4.065 -0.9768  0.2335  0.1622
   56MOL    H7934289   2.177   6.922   4.167 -2.3427  0.0043  0.8771
   56MOL    H8034290   2.020   7.006   3.990  1.6458  0.5422  1.5974
   56MOL    H8134291   2.187   6.996   3.936 -0.8034  1.5086 -0.5953
   56MOL    H8234292   2.137   6.777   3.821 -1.4993 -2.1461  2.5011
   56MOL    H8334293   1.972   6.790   3.867  0.5864 -0.6475 -0.8791
   56MOL    H8434294   1.963   7.016   3.759 -0.0801  1.4843 -0.8124
   56MOL    H8534295   2.121   6.990   3.693  0.7836 -1.4100 -0.6369
   56MOL    H8634296   1.873   6.821   3.629 -0.5866  0.5376 -0.2531
   56MOL    H8734297   2.027   6.765   3.582 -0.8691 -0.3644 -0.0660
   56MOL    H8834298   1.903   7.030   3.488  0.1775  0.8960 -1.2084
   56MOL    H8934299   2.068   6.971   3.451  0.8780  0.8619  1.9338
   56MOL    H9034300   1.862   6.927   3.293  0.9043  2.4850  1.6886
   56MOL    H9134301   1.800   6.819   3.397 -1.5730  4.8878  0.0398
   56MOL    H9234302   1.968   6.792   3.331 -0.1833 -0.5019 -0.0338
   56MOL    H9334303   1.961   6.604   4.480  0.4880 -1.8958 -0.4285
   56MOL    H9434304   1.876   6.712   4.374  1.1943  0.0912 -0.4519
   56MOL    C9534305   1.770   6.527   4.411 -0.0012  0.1727 -0.4197
   56MOL    O9634306   1.705   6.537   4.290  0.3721  0.0130 -0.2493
   56MOL    C9734307   1.670   6.408   4.223  0.0159  0.2683 -0.1393
   56MOL    C9834308   1.589   6.439   4.092  0.1230  1.1630 -0.1102
   56MOL    C9934309   1.666   6.485   3.971  0.4712 -0.1970 -0.1487
   56MOL   C10034310   1.577   6.488   3.844 -0.4389 -0.0258  0.2191
   56MOL   C10134311   1.643   6.569   3.729 -0.0723  0.4023 -0.2248
   56MOL   C10234312   1.584   6.548   3.583 -0.4853  0.1376 -0.3650
   56MOL   C10334313   1.432   6.571   3.580 -0.3742  0.5290 -0.2499
   56MOL   C10434314   1.378   6.589   3.433 -0.4471  0.3001  0.7309
   56MOL   C10534315   1.678   6.594   4.519 -0.0949  0.4213  0.0293
   56MOL   H10634316   1.794   6.424   4.439  0.3636  0.7829  1.5583
   56MOL   H10734317   1.612   6.352   4.296  0.8664 -1.9673 -1.1138
   56MOL   H10834318   1.755   6.342   4.205  1.0976  0.6033  3.3951
   56MOL   H10934319   1.523   6.526   4.092  0.5968  1.6288 -3.9397
   56MOL   H11034320   1.536   6.350   4.060 -2.2206  2.1392  0.9109
   56MOL   H11134321   1.715   6.581   3.980 -1.0012  0.8100 -2.5513
   56MOL   H11234322   1.757   6.425   3.964  1.2572  0.9208  0.4102
   56MOL   H11334323   1.568   6.384   3.812  1.3007 -0.3696  0.7623
   56MOL   H11434324   1.479   6.527   3.871 -1.0764 -1.4984  0.0723
   56MOL   H11534325   1.633   6.673   3.761  2.1018  0.4459  0.4018
   56MOL   H11634326   1.751   6.552   3.735 -0.2800 -0.2316  1.8858
   56MOL   H11734327   1.607   6.453   3.533  0.6326  0.5571 -0.6710
   56MOL   H11834328   1.638   6.615   3.517  0.0151 -1.6085 -1.7835
   56MOL   H11934329   1.388   6.483   3.628 -1.6055  0.8492 -0.7870
   56MOL   H12034330   1.401   6.653   3.644 -1.6523 -0.2940  0.1987
   56MOL   H12134331   1.383   6.509   3.360 -0.1142  0.1363  0.9295
   56MOL   H12234332   1.433   6.674   3.392 -1.0237 -0.1216 -0.9625
   56MOL   H12334333   1.273   6.620   3.429 -0.6549 -0.5104 -0.2495
   56MOL   H12434334   1.659   6.697   4.488 -1.3100  0.2280  0.1059
   56MOL   H12534335   1.582   6.542   4.512  0.4148 -0.4129 -0.9592
   56MOL   C12634336   1.719   6.587   4.670 -0.1007 -0.2582  0.3117
   56MOL   O12734337   1.700   6.451   4.699  0.1928  0.5811 -0.0536
   56MOL   C12834338   1.801   6.388   4.778  0.2633 -0.1504  0.3259
   56MOL   C12934339   1.765   6.246   4.813  0.7902  0.4965 -0.8119
   56MOL   C13034340   1.648   6.238   4.908 -0.9793 -0.1924 -0.0232
   56MOL   C13134341   1.565   6.114   4.901 -0.6055 -0.4624 -0.4269
   56MOL   C13234342   1.627   5.974   4.919 -0.4627 -0.0499 -0.0314
   56MOL   C13334343   1.691   5.953   5.063  0.7531  0.0363 -0.7352
   56MOL   C13434344   1.760   5.817   5.077 -0.9274 -0.4161  0.2966
   56MOL   C13534345   1.884   5.788   4.988 -0.0691  0.2799  0.6713
   56MOL   C13634346   1.628   6.670   4.752  0.1577 -0.4929 -0.1305
   56MOL   H13734347   1.820   6.630   4.676 -0.7280  1.3536 -0.3518
   56MOL   H13834348   1.817   6.439   4.872 -1.2544  0.0522  0.4741
   56MOL   H13934349   1.889   6.382   4.714 -0.3189 -0.2179 -0.4791
   56MOL   H14034350   1.844   6.189   4.862  2.7348  1.6279 -2.5486
   56MOL   H14134351   1.735   6.186   4.727 -0.2375 -1.3738  0.8189
   56MOL   H14234352   1.694   6.255   5.005 -0.8420 -1.1449  0.0789
   56MOL   H14334353   1.585   6.323   4.883 -2.5268 -1.3644 -0.1649
   56MOL   H14434354   1.483   6.101   4.972 -3.3914 -0.1939 -3.4800
   56MOL   H14534355   1.502   6.118   4.812 -1.8240  2.0505  0.4934
   56MOL   H14634356   1.546   5.908   4.890 -1.4246  1.9166 -1.9679
   56MOL   H14734357   1.701   5.957   4.840 -1.2677 -1.3448 -0.5315
   56MOL   H14834358   1.610   5.964   5.135 -0.4211 -0.6966 -1.9329
   56MOL   H14934359   1.761   6.031   5.095 -0.0279 -0.2884  1.9325
   56MOL   H15034360   1.780   5.807   5.184  0.0193  0.7956  0.2386
   56MOL   H15134361   1.694   5.732   5.060 -0.1498 -0.8724 -0.4532
   56MOL   H15234362   1.857   5.746   4.891 -0.6681 -1.8702  1.7340
   56MOL   H15334363   1.944   5.705   5.024  1.3124  1.0654  0.1982
   56MOL   H15434364   1.952   5.873   4.977  0.2028  0.2177  1.7898
   56MOL   H15534365   1.615   6.765   4.699  2.5793 -1.4809 -2.5630
   56MOL   H15634366   1.532   6.621   4.740 -1.0769  1.4277  1.4553
   56MOL   C15734367   1.651   6.695   4.896 -0.2219  0.1463 -0.6023
   56MOL   O15834368   1.534   6.753   4.954  0.3864 -0.4934 -0.7484
   56MOL   C15934369   1.428   6.669   5.003 -0.0646 -0.8752 -0.4501
   56MOL   C16034370   1.301   6.747   5.048 -0.0985 -0.1550  0.2416
   56MOL   C16134371   1.334   6.837   5.169 -0.8024  0.2235  0.2765
   56MOL   C16234372   1.241   6.952   5.199 -0.2084 -0.7528  0.4372
   56MOL   C16334373   1.291   7.030   5.328  0.3063 -0.6502 -0.0649
   56MOL   C16434374   1.201   7.146   5.355  0.0005  0.4650 -1.0828
   56MOL   C16534375   1.234   7.219   5.490  0.2148 -0.0644  0.1207
   56MOL   C16634376   1.133   7.340   5.507  0.8658 -0.0423 -0.0503
   56MOL   C16734377   1.771   6.795   4.918  0.2627  0.4132 -0.4072
   56MOL   H16834378   1.678   6.597   4.935 -0.9048 -0.5883 -1.9433
   56MOL   H16934379   1.464   6.611   5.088  1.1740 -0.8028 -0.9278
   56MOL   H17034380   1.399   6.604   4.921 -1.1038  2.7151 -3.0971
   56MOL   H17134381   1.228   6.672   5.077 -0.4325  0.0901  0.0426
   56MOL   H17234382   1.254   6.805   4.968 -1.9035  0.6677  1.8373
   56MOL   H17334383   1.348   6.787   5.264  1.1852 -0.2337 -0.2290
   56MOL   H17434384   1.430   6.883   5.143 -0.8190 -0.4793 -1.1122
   56MOL   H17534385   1.231   7.020   5.115 -0.8335 -1.5639 -0.1504
   56MOL   H17634386   1.141   6.914   5.220 -0.7378 -0.5102 -1.6187
   56MOL   H17734387   1.280   6.954   5.406 -1.6287 -1.5059 -1.1260
   56MOL   H17834388   1.394   7.061   5.315 -0.1767  0.6149 -0.8863
   56MOL   H17934389   1.095   7.122   5.345 -0.1929  0.5673  0.6813
   56MOL   H18034390   1.226   7.215   5.275 -0.2938 -0.1173 -1.6859
   56MOL   H18134391   1.229   7.147   5.572  0.9178 -2.2188 -1.6753
   56MOL   H18234392   1.337   7.256   5.493  0.4003 -0.5590 -0.0167
   56MOL   H18334393   1.155   7.417   5.433  1.4026 -0.1624 -0.0221
   56MOL   H18434394   1.151   7.378   5.607 -2.9120 -0.5412  0.8822
   56MOL   H18534395   1.032   7.302   5.490  1.2882 -0.9958 -0.4770
   56MOL   H18634396   1.863   6.751   4.881 -0.3732 -0.8542 -0.5094
   56MOL   H18734397   1.749   6.875   4.847 -0.3043 -0.2821 -1.0273
   56MOL   C18834398   1.791   6.854   5.059 -0.4376 -0.0733 -0.4614
   56MOL   O18934399   1.890   6.959   5.056 -0.6195 -0.0989  0.1001
   56MOL   C19034400   1.847   7.097   5.068  0.3506  0.0472  0.0647
   56MOL   C19134401   1.967   7.190   5.090  0.7897  0.6070 -0.2453
   56MOL   C19234402   2.038   7.179   5.223  0.1537 -0.4339 -0.0453
   56MOL   C19334403   2.154   7.283   5.225 -0.1897  0.2986  0.6737
   56MOL   C19434404   2.262   7.239   5.327  0.0329  0.7960 -0.2017
   56MOL   C19534405   2.383   7.333   5.316 -0.0682 -0.0400  0.0326
   56MOL   C19634406   2.484   7.291   5.424 -0.2031 -0.3179 -0.0210
   56MOL   C19734407   2.584   7.188   5.384 -0.1588  0.6339 -0.1737
   56MOL   C19834408   1.840   6.748   5.164  0.0072 -0.0143  0.1702
   56MOL   H19934409   1.695   6.901   5.083 -0.0613 -0.1930  1.3491
   56MOL   H20034410   1.798   7.140   4.981  0.2260 -0.1978  0.0156
   56MOL   H20134411   1.775   7.113   5.148 -1.0073 -1.6471 -0.8177
   56MOL   H20234412   1.938   7.294   5.078 -1.3365  0.1372  0.7162
   56MOL   H20334413   2.035   7.167   5.007  0.8304 -0.8457  0.1757
   56MOL   H20434414   1.969   7.187   5.307  0.0286 -1.6157 -0.0223
   56MOL   H20534415   2.066   7.073   5.228 -0.3795 -0.6412 -1.3983
   56MOL   H20634416   2.196   7.275   5.124  0.5256  0.4409  0.9582
   56MOL   H20734417   2.110   7.382   5.238 -2.0816 -0.4391  0.0540
   56MOL   H20834418   2.237   7.230   5.433  1.4487  0.9583  0.1454
   56MOL   H20934419   2.302   7.141   5.300 -0.3785  0.3926  0.6484
   56MOL   H21034420   2.355   7.438   5.306 -0.5089 -0.2336 -0.8092
   56MOL   H21134421   2.434   7.325   5.220  0.4948  0.6770  0.2692
   56MOL   H21234422   2.551   7.376   5.437  0.2145 -0.4840 -1.0831
   56MOL   H21334423   2.433   7.278   5.519 -0.8075  2.6377  0.1163
   56MOL   H21434424   2.653   7.185   5.468  1.5202  0.7052 -1.5143
   56MOL   H21534425   2.635   7.210   5.290  0.3657 -1.3894 -0.3981
   56MOL   H21634426   2.539   7.088   5.378  0.2208  0.5714 -2.3341
   56MOL   H21734427   1.887   6.667   5.108 -1.1040 -1.3803  1.1536
   56MOL   H21834428   1.922   6.804   5.208  1.0444 -0.5138 -1.1103
   56MOL   C21934429   1.722   6.699   5.252 -0.1313  0.6904 -0.3143
   56MOL   O22034430   1.658   6.803   5.322 -0.5370 -0.0718  0.1857
   56MOL   C22134431   1.746   6.902   5.383 -0.3472  0.0549 -0.7276
   56MOL   C22234432   1.653   6.981   5.472  0.3604  0.6850 -0.7352
   56MOL   C22334433   1.570   6.892   5.575 -0.0493 -0.0312  0.1335
   56MOL   C22434434   1.510   6.979   5.680 -0.1423  0.0487  0.0613
   56MOL   C22534435   1.452   6.896   5.795 -0.6730  0.5057 -0.2303
   56MOL   C22634436   1.329   6.818   5.754  0.1307 -0.1172  0.0262
   56MOL   C22734437   1.282   6.737   5.880 -0.0261  0.0754  0.5383
   56MOL   C22834438   1.342   6.601   5.888  0.2751  0.0837 -0.5367
   56MOL   C22934439   1.750   6.573   5.334  0.2810  0.1349 -0.4002
   56MOL   H23034440   1.645   6.677   5.178 -0.0838  2.3983 -0.9147
   56MOL   H23134441   1.807   6.961   5.314  0.1311  0.0800 -0.2926
   56MOL   H23234442   1.821   6.844   5.438 -0.1877 -0.3119 -1.3305
   56MOL   H23334443   1.583   7.034   5.407 -0.4124  1.4969  0.7283
   56MOL   H23434444   1.717   7.051   5.526  0.4817  1.4206 -1.8006
   56MOL   H23534445   1.492   6.843   5.517  0.3803  0.2289 -0.6780
   56MOL   H23634446   1.628   6.806   5.607 -0.9135 -1.2978 -1.6208
   56MOL   H23734447   1.591   7.044   5.712  0.5425 -0.1282 -1.2977
   56MOL   H23834448   1.439   7.056   5.649 -0.6814  1.0190  3.4178
   56MOL   H23934449   1.530   6.832   5.837 -1.6182  0.3315  1.3143
   56MOL   H24034450   1.430   6.965   5.877  0.0080 -1.1953  1.4383
   56MOL   H24134451   1.356   6.752   5.672 -1.0976 -1.3101  0.5483
   56MOL   H24234452   1.249   6.882   5.719  1.4031  2.2618  1.3533
   56MOL   H24334453   1.301   6.795   5.971  0.5590 -0.8823  1.0399
   56MOL   H24434454   1.174   6.731   5.882 -0.1856  2.5038  0.9614
   56MOL   H24534455   1.450   6.588   5.879  0.5235  0.5533  1.3840
   56MOL   H24634456   1.301   6.557   5.797 -1.4529  0.6890 -0.0728
   56MOL   H24734457   1.307   6.552   5.979  0.6289  0.7627 -0.0320
   56MOL   H24834458   1.794   6.497   5.270 -1.8131 -0.7430 -0.8396
   56MOL   H24934459   1.825   6.606   5.406  2.1953 -0.6679 -2.0134
   56MOL   C25034460   1.635   6.514   5.417  0.3572  0.5306 -0.4948
   56MOL   O25134461   1.696   6.413   5.507  0.5641 -0.2225  0.2310
   56MOL   C25234462   1.675   6.449   5.643  0.0581 -0.3861  0.3835
   56MOL   C25334463   1.717   6.335   5.736  0.3301 -0.1473 -0.5484
   56MOL   C25434464   1.606   6.230   5.762 -0.1343 -0.8377  0.2099
   56MOL   C25534465   1.674   6.110   5.836 -0.4565 -0.3684 -0.2039
   56MOL   C25634466   1.585   5.989   5.873 -0.3223  0.0900  0.8301
   56MOL   C25734467   1.643   5.896   5.967  0.1188 -0.4217  0.3109
   56MOL   C25834468   1.672   5.929   6.110  0.4413 -0.3715  0.7407
   56MOL   C25934469   1.707   5.817   6.209  0.0891 -0.1668 -0.3937
   56MOL   C26034470   1.543   6.431   5.328  0.3305 -0.1760  0.3835
   56MOL   H26134471   1.577   6.587   5.474 -0.2590  0.4614 -1.0263
   56MOL   H26234472   1.569   6.464   5.660 -0.0750 -2.2008  1.2692
   56MOL   H26334473   1.727   6.543   5.662  0.5050  0.1105 -2.9825
   56MOL   H26434474   1.731   6.385   5.832 -0.8849 -0.6079 -0.1201
   56MOL   H26534475   1.807   6.285   5.703 -0.3407 -2.0689  0.4641
   56MOL   H26634476   1.531   6.280   5.824  1.5162  1.0345  0.7635
   56MOL   H26734477   1.560   6.207   5.666 -0.9166  0.2845  0.2985
   56MOL   H26834478   1.731   6.064   5.756  0.9358 -1.4747  1.3941
   56MOL   H26934479   1.718   6.141   5.931 -2.1731  1.5406 -0.0016
   56MOL   H27034480   1.495   6.030   5.920 -0.7667 -0.3532  0.3624
   56MOL   H27134481   1.562   5.933   5.783  0.5067  0.6230  0.2840
   56MOL   H27234482   1.737   5.868   5.919  1.9620  1.3700  2.7266
   56MOL   H27334483   1.577   5.809   5.967 -0.1368 -0.2284 -0.0352
   56MOL   H27434484   1.743   6.011   6.111 -0.6515  0.6092 -0.3707
   56MOL   H27534485   1.590   5.984   6.157  1.7159  1.0958  1.3129
   56MOL   H27634486   1.638   5.732   6.212 -0.2035 -0.0202 -2.4638
   56MOL   H27734487   1.715   5.848   6.313 -0.8652 -2.7649  0.5153
   56MOL   H27834488   1.809   5.783   6.191 -0.1403 -1.4638  0.5965
   56MOL   H27934489   1.499   6.507   5.263 -0.9351  0.0171  1.4595
   56MOL   H28034490   1.610   6.363   5.275 -2.0516 -0.9372 -1.7243
   56MOL   C28134491   1.427   6.349   5.396  0.1426  0.0723 -0.2581
   56MOL   O28234492   1.345   6.294   5.293  0.0795 -0.2538 -0.7200
   56MOL   C28334493   1.375   6.158   5.263  0.2078 -0.0625  0.5583
   56MOL   C28434494   1.328   6.056   5.366  0.1529  0.1797 -0.4212
   56MOL   C28534495   1.325   5.914   5.327  0.4634  0.1609  0.3344
   56MOL   C28634496   1.205   5.886   5.242 -0.1136  0.1665  0.1840
   56MOL   C28734497   1.181   5.743   5.199 -0.4791 -0.1411  0.2189
   56MOL   C28834498   1.295   5.690   5.102  0.5066  0.9377  0.1091
   56MOL   C28934499   1.296   5.734   4.956  0.4198 -0.2801  0.8422
   56MOL   C29034500   1.411   5.671   4.876 -0.1517 -0.6827 -0.0249
   56MOL   C29134501   1.329   6.450   5.468  0.0698  0.2681  0.7111
   56MOL   H29234502   1.458   6.274   5.468 -0.4098  0.7517  0.6949
   56MOL   H29334503   1.475   6.149   5.221  0.1800  2.1260 -0.0272
   56MOL   H29434504   1.312   6.154   5.175  0.5363  0.7894  0.2859
   56MOL   H29534505   1.236   6.086   5.415  0.4464 -0.8181  0.7889
   56MOL   H29634506   1.407   6.061   5.441 -1.1443 -0.0125  0.9879
   56MOL   H29734507   1.422   5.893   5.281  1.0203  4.5687 -0.7348
   56MOL   H29834508   1.300   5.865   5.421 -1.6132  1.2129  0.3559
   56MOL   H29934509   1.115   5.912   5.299  0.1218  0.3964  0.4527
   56MOL   H30034510   1.214   5.965   5.167  1.0421  1.0419  1.2158
   56MOL   H30134511   1.174   5.680   5.288 -2.9878 -0.7428 -0.3442
   56MOL   H30234512   1.087   5.747   5.143 -0.6483  0.3314  0.5384
   56MOL   H30334513   1.274   5.584   5.110 -1.9476  1.4843  1.6315
   56MOL   H30434514   1.393   5.719   5.141 -0.5083  0.2981  3.2812
   56MOL   H30534515   1.195   5.715   4.919  0.2015 -0.3314  1.4500
   56MOL   H30634516   1.303   5.843   4.953 -0.5755 -0.2590 -1.3717
   56MOL   H30734517   1.510   5.683   4.919  0.1784 -0.5123 -0.8266
   56MOL   H30834518   1.421   5.720   4.780  1.0125  1.1041  0.9840
   56MOL   H30934519   1.397   5.567   4.845 -0.4511 -0.7651  0.3827
   56MOL   H31034520   1.387   6.512   5.537  2.0397 -0.2135 -0.4619
   56MOL   H31134521   1.284   6.520   5.397 -2.0873 -0.8800  0.8924
   56MOL   C31234522   1.203   6.382   5.540 -0.9265  0.0077 -0.3560
   56MOL   O31334523   1.126   6.492   5.588  0.3043  0.3873  0.2092
   56MOL   C31434524   1.024   6.539   5.493  0.3972 -0.1303  0.1574
   56MOL   C31534525   0.941   6.651   5.558 -0.4849  0.8550 -0.4954
   56MOL   C31634526   0.836   6.712   5.461  0.4142 -0.3165  0.3753
   56MOL   C31734527   0.710   6.627   5.443 -0.1223 -0.9099 -0.0129
   56MOL   C31834528   0.633   6.664   5.312 -0.6816 -0.4158  0.5430
   56MOL   C31934529   0.541   6.551   5.260  0.6593  0.0968  0.1500
   56MOL   C32034530   0.408   6.558   5.339 -0.1975  0.3483  0.0532
   56MOL   C32134531   0.301   6.465   5.282 -0.2225  0.3261 -0.0205
   56MOL   C32234532   1.251   6.307   5.663  0.1619 -0.5588 -0.5275
   56MOL   H32334533   1.146   6.317   5.473 -1.1902  1.1477 -1.2527
   56MOL   H32434534   0.961   6.453   5.469 -0.1600 -0.3351  2.2316
   56MOL   H32534535   1.074   6.567   5.401 -0.4029 -0.2620 -0.3277
   56MOL   H32634536   1.011   6.734   5.572 -0.3886  0.5580  0.8927
   56MOL   H32734537   0.902   6.622   5.656  1.3174  0.4627  0.1335
   56MOL   H32834538   0.800   6.810   5.493  1.5329  0.3210 -0.2901
   56MOL   H32934539   0.888   6.739   5.369 -0.9472 -1.5557 -0.7801
   56MOL   H33034540   0.744   6.524   5.440 -0.0548 -0.9901  2.3119
   56MOL   H33134541   0.655   6.626   5.538 -1.0751 -1.4308 -0.5626
   56MOL   H33234542   0.565   6.747   5.331  2.8517  2.8311 -0.4262
   56MOL   H33334543   0.700   6.697   5.233 -2.8232 -1.0487 -1.5673
   56MOL   H33434544   0.588   6.452   5.263  1.5226  0.5297  1.1156
   56MOL   H33534545   0.534   6.555   5.151  0.5781 -4.5563 -0.1235
   56MOL   H33634546   0.427   6.531   5.443  0.5962  0.4455 -0.0614
   56MOL   H33734547   0.362   6.656   5.350  1.7376  1.1614  1.3474
   56MOL   H33834548   0.217   6.465   5.351 -0.4129 -0.0368 -0.2486
   56MOL   H33934549   0.343   6.371   5.244 -0.5071 -0.8613  2.4855
   56MOL   H34034550   0.269   6.525   5.197 -0.6558 -0.0748 -0.1429
   56MOL   H34134551   1.295   6.221   5.611  3.2324  1.5606 -1.5467
   56MOL   H34234552   1.325   6.361   5.721 -1.3438  0.4131  0.5073
   56MOL   C34334553   1.135   6.264   5.758 -0.5484  0.3307  0.1802
   56MOL   O34434554   1.216   6.215   5.866  0.5806  0.2826  0.2697
   56MOL   C34534555   1.148   6.205   5.993  0.4851  0.6344 -0.4722
   56MOL   C34634556   1.245   6.221   6.110 -0.0345  0.4954  0.6887
   56MOL   C34734557   1.171   6.195   6.243 -0.1852  0.3855 -0.8025
   56MOL   C34834558   1.268   6.220   6.360 -0.2964 -0.2194  0.3284
   56MOL   C34934559   1.318   6.358   6.393  0.4568 -0.2239  0.4238
   56MOL   C35034560   1.393   6.359   6.521  0.2852  0.2605 -0.0107
   56MOL   C35134561   1.475   6.488   6.536 -0.4920 -0.0047  0.2014
   56MOL   C35234562   1.608   6.465   6.611 -0.1128  0.5541 -0.6173
   56MOL   C35334563   1.049   6.141   5.711  0.0487 -0.2173  0.9680
   56MOL   H35434564   1.074   6.351   5.782  0.7623  0.2907  3.8600
   56MOL   H35534565   1.096   6.110   6.003  0.7080  0.4894 -0.6760
   56MOL   H35634566   1.075   6.285   6.001  0.2827  0.3033  1.0971
   56MOL   H35734567   1.291   6.320   6.111  0.0343  0.5195 -2.0796
   56MOL   H35834568   1.328   6.154   6.092  3.2189  3.9941  1.8624
   56MOL   H35934569   1.086   6.263   6.248  1.5350  2.3520  3.9557
   56MOL   H36034570   1.136   6.093   6.256 -0.7354  0.8302  1.3032
   56MOL   H36134571   1.223   6.166   6.443 -2.0048  0.7830  0.0599
   56MOL   H36234572   1.358   6.161   6.341 -0.6613 -0.1929 -1.5516
   56MOL   H36334573   1.365   6.407   6.308  0.5196 -2.0930 -0.6501
   56MOL   H36434574   1.225   6.411   6.413 -0.3728 -1.4136 -0.2401
   56MOL   H36534575   1.454   6.269   6.509 -0.7758 -0.4565 -0.1291
   56MOL   H36634576   1.330   6.343   6.609 -0.6406 -0.1955 -0.7542
   56MOL   H36734577   1.505   6.516   6.435 -1.4294  0.1603 -0.0289
   56MOL   H36834578   1.418   6.561   6.593 -1.1933 -1.3101  1.2087
   56MOL   H36934579   1.679   6.426   6.539  0.5088 -0.0762  0.3149
   56MOL   H37034580   1.614   6.390   6.690 -1.3770  0.4964 -0.5567
   56MOL   H37134581   1.638   6.561   6.652 -1.4351  1.0799 -0.8353
   56MOL   H37234582   1.081   6.112   5.611 -3.1127  1.8351 -0.7290
   56MOL   H37334583   1.064   6.047   5.763 -2.6729 -0.5233  1.2953
   56MOL   C37434584   0.899   6.175   5.712 -0.7709  0.4429  0.2291
   56MOL   O37534585   0.838   6.204   5.843  0.4740 -0.2471 -0.7085
   56MOL   C37634586   0.782   6.333   5.858  0.5202 -0.2819 -0.6377
   56MOL   C37734587   0.696   6.326   5.977  0.0838 -0.2235  0.5883
   56MOL   C37834588   0.644   6.472   6.016 -0.5383  0.3152  0.5089
   56MOL   C37934589   0.528   6.485   6.110  0.4866  0.1432 -0.4675
   56MOL   C38034590   0.502   6.628   6.150  0.8361 -0.0277  0.2631
   56MOL   C38134591   0.440   6.710   6.040  0.8071 -0.6066  0.0924
   56MOL   C38234592   0.438   6.868   6.074  0.1027  0.3182 -0.1442
   56MOL   C38334593   0.373   6.906   6.214 -0.3444  0.1662 -0.1866
   56MOL   C38434594   0.819   6.047   5.670  0.3722  0.8835 -0.2899
   56MOL   H38534595   0.882   6.259   5.646  0.7083  1.9909  1.7457
   56MOL   H38634596   0.729   6.372   5.770 -0.5424 -2.0450 -0.8113
   56MOL   H38734597   0.856   6.412   5.870  0.9664 -0.4019 -2.4157
   56MOL   H38834598   0.746   6.277   6.060  1.4222  1.7799  0.9966
   56MOL   H38934599   0.609   6.263   5.957  1.6801 -2.2092 -0.4191
   56MOL   H39034600   0.734   6.528   6.044 -0.2300 -0.2345  0.6199
   56MOL   H39134601   0.603   6.525   5.930 -0.3701 -1.7141 -0.8626
   56MOL   H39234602   0.442   6.426   6.078  1.3631 -1.4324  0.0432
   56MOL   H39334603   0.547   6.448   6.210  0.2219  0.1113 -0.4311
   56MOL   H39434604   0.429   6.629   6.231  0.0744  0.5810 -0.4186
   56MOL   H39534605   0.592   6.676   6.189  0.4554 -0.5757  1.8851
   56MOL   H39634606   0.345   6.660   6.018  0.8568  0.2559 -2.2290
   56MOL   H39734607   0.516   6.694   5.963  0.7414 -1.4210  0.1889
   56MOL   H39834608   0.538   6.911   6.063  0.5876 -1.4709 -3.0601
   56MOL   H39934609   0.382   6.920   5.997 -2.0015 -1.7697 -0.0937
   56MOL   H40034610   0.275   6.859   6.224  0.4094 -1.2134  0.8290
   56MOL   H40134611   0.361   7.014   6.217 -2.1282 -0.0391  0.6403
   56MOL   H40234612   0.437   6.864   6.292 -2.3314  0.4407  1.6413
   56MOL   H40334613   0.850   5.965   5.735  1.6954  2.6583  1.3742
   56MOL   H40434614   0.711   6.056   5.682  0.2668  0.8109 -1.1515
   56MOL   C40534615   0.830   6.005   5.522  0.1919 -0.8714  0.2763
   56MOL   O40634616   0.790   6.112   5.434 -0.0802 -0.3873 -0.0194
   56MOL   C40734617   0.892   6.155   5.341 -1.0287  0.6879 -0.8512
   56MOL   C40834618   0.846   6.272   5.266 -0.1513 -0.2878  1.2106
   56MOL   C40934619   0.960   6.329   5.181 -0.9013  0.5753  0.7699
   56MOL   C41034620   0.912   6.459   5.111 -0.5707 -0.4682  0.4322
   56MOL   C41134621   1.019   6.524   5.025 -0.1863  0.2034 -0.4309
   56MOL   C41234622   1.038   6.448   4.892  0.4012  0.5908  0.1075
   56MOL   C41334623   1.117   6.525   4.781 -0.0228 -0.1223  0.2795
   56MOL   C41434624   1.169   6.434   4.665 -0.0680  0.3456 -0.1117
   56MOL   C41534625   0.748   5.877   5.494 -0.2691 -0.1963 -0.0630
   56MOL   H41634626   0.934   5.978   5.502  0.2761 -2.3340  2.5575
   56MOL   H41734627   0.926   6.072   5.278  1.2190 -0.3661  1.6703
   56MOL   H41834628   0.975   6.177   5.407 -1.5554  2.0906 -0.6522
   56MOL   H41934629   0.803   6.348   5.332 -1.9092 -0.7686  0.6584
   56MOL   H42034630   0.759   6.250   5.204  0.0946 -0.7525  1.0372
   56MOL   H42134631   1.048   6.354   5.240  1.5836 -0.7129 -2.3067
   56MOL   H42234632   0.995   6.249   5.116  0.4922 -0.5404  2.8404
   56MOL   H42334633   0.817   6.437   5.062 -0.1353  0.0830 -0.6600
   56MOL   H42434634   0.888   6.527   5.193  1.6595 -0.0159  0.7383
   56MOL   H42534635   0.992   6.628   5.008 -0.0959  0.8127  2.8479
   56MOL   H42634636   1.114   6.521   5.077 -1.1147 -1.3709  1.2121
   56MOL   H42734637   0.940   6.417   4.857  0.0251  2.4481 -0.5311
   56MOL   H42834638   1.091   6.356   4.915 -1.4050 -0.5954 -0.4092
   56MOL   H42934639   1.047   6.600   4.744  0.4671  0.3194  0.2549
   56MOL   H43034640   1.204   6.569   4.828 -0.6088  1.3259  0.0422
   56MOL   H43134641   1.085   6.380   4.623  0.0779  1.4713 -1.8662
   56MOL   H43234642   1.248   6.366   4.698  0.6232  0.6141 -1.1874
   56MOL   H43334643   1.212   6.497   4.587  2.7235 -1.6021 -0.2510
   56MOL   H43434644   0.754   5.814   5.582 -0.1245 -0.6490 -0.3977
   56MOL   H43534645   0.641   5.896   5.487 -0.4962 -1.0170  1.1447
   56MOL   C43634646   0.787   5.797   5.372 -0.2875  0.5487  0.9249
   56MOL   O43734647   0.688   5.820   5.274  0.4675 -0.9384  0.5790
   56MOL   C43834648   0.716   5.764   5.145  0.4584 -0.3726 -0.5071
   56MOL   C43934649   0.736   5.887   5.054  0.3787  0.7651  0.1033
   56MOL   C44034650   0.830   5.858   4.932 -0.1300  0.6699 -0.2561
   56MOL   C44134651   0.945   5.954   4.931 -0.6078  0.3080  0.0618
   56MOL   C44234652   1.018   5.954   4.792 -0.3635 -0.2393 -0.0751
   56MOL   C44334653   1.094   6.076   4.763 -0.0664 -0.3379  0.1940
   56MOL   C44434654   1.173   6.074   4.629 -0.6109 -0.0420  0.2010
   56MOL   C44534655   1.082   6.104   4.504  0.4490  0.1609 -0.0159
   56MOL   C44634656   0.790   5.641   5.398  0.2269 -0.2072  0.0417
   56MOL   H44734657   0.882   5.823   5.325  0.2565 -1.7425  0.6808
   56MOL   H44834658   0.802   5.697   5.149  0.5974 -0.1814 -0.2744
   56MOL   H44934659   0.633   5.705   5.107  0.9236  0.1734 -2.4406
   56MOL   H45034660   0.785   5.967   5.110 -3.0890  1.3251  2.4712
   56MOL   H45134661   0.639   5.925   5.021  1.1497  2.1909 -0.5660
   56MOL   H45234662   0.882   5.764   4.947 -1.7847  0.0463  1.8104
   56MOL   H45334663   0.769   5.850   4.842  0.7511 -0.5244 -0.7578
   56MOL   H45434664   0.905   6.054   4.945 -0.7500  0.6525 -2.5537
   56MOL   H45534665   1.008   5.942   5.018  1.4223 -0.2627 -1.4497
   56MOL   H45634666   1.089   5.872   4.781  1.4229  1.6557 -3.4601
   56MOL   H45734667   0.942   5.940   4.715 -2.9884  0.0959  2.3533
   56MOL   H45834668   1.159   6.087   4.850 -1.4958  0.1321  1.2300
   56MOL   H45934669   1.044   6.172   4.773  0.7112  0.1656 -0.7386
   56MOL   H46034670   1.253   6.147   4.628  0.5197 -1.1870  2.7720
   56MOL   H46134671   1.222   5.977   4.618 -0.3829 -0.3005  3.1152
   56MOL   H46234672   0.979   6.117   4.536  0.4762 -1.3184  0.7230
   56MOL   H46334673   1.098   6.020   4.437  0.2497  0.2525 -0.1766
   56MOL   H46434674   1.108   6.195   4.450 -0.5418  0.4601 -0.0013
   56MOL   H46534675   0.692   5.613   5.435  1.0745 -1.6231  1.2279
   56MOL   H46634676   0.811   5.576   5.313 -2.6758  0.6722 -1.4127
   56MOL   C46734677   0.889   5.594   5.508  0.0613  0.2094 -0.0488
   56MOL   O46834678   1.019   5.622   5.457 -0.7863  0.1511  0.2126
   56MOL   C46934679   1.129   5.610   5.544  0.3642  0.2218 -0.4996
   56MOL   C47034680   1.142   5.743   5.619  0.6414 -0.4469  0.2516
   56MOL   C47134681   1.275   5.762   5.703  0.3488 -0.0660 -0.0950
   56MOL   C47234682   1.294   5.669   5.826  0.1305  0.2811  0.5982
   56MOL   C47334683   1.255   5.742   5.960 -0.4698 -0.2816  0.1093
   56MOL   C47434684   1.285   5.659   6.086  0.1858 -0.8219  0.4406
   56MOL   C47534685   1.238   5.717   6.214 -0.1687  0.4225  0.0237
   56MOL   C47634686   1.314   5.688   6.340 -0.0218  0.0370  0.6720
   56MOL   C47734687   0.854   5.444   5.539  0.0025  0.5453 -0.0764
   56MOL   H47834688   0.877   5.649   5.602 -0.0423 -0.1781  0.1666
   56MOL   H47934689   1.210   5.593   5.472  1.6783 -0.4702  1.1181
   56MOL   H48034690   1.114   5.529   5.616 -2.9120  2.9269  2.0174
   56MOL   H48134691   1.059   5.752   5.690  1.0079  0.4127  0.5845
   56MOL   H48234692   1.131   5.825   5.549  2.1796  0.8827  1.5002
   56MOL   H48334693   1.359   5.754   5.634 -0.5775  0.8476 -1.3501
   56MOL   H48434694   1.301   5.862   5.739  1.2108 -0.2287 -0.2501
   56MOL   H48534695   1.240   5.575   5.818  0.4117  0.2580 -1.2228
   56MOL   H48634696   1.399   5.637   5.833  0.5196  0.9973 -1.7259
   56MOL   H48734697   1.322   5.827   5.966 -1.7521  0.7445  0.0732
   56MOL   H48834698   1.150   5.771   5.952 -1.1784 -2.1406  2.1207
   56MOL   H48934699   1.394   5.658   6.082  0.2060  0.7720  0.2973
   56MOL   H49034700   1.252   5.555   6.091  1.2001 -1.1039  1.6944
   56MOL   H49134701   1.228   5.825   6.200 -3.1845  0.0411 -1.1002
   56MOL   H49234702   1.139   5.676   6.234 -0.1413 -0.2265 -1.1103
   56MOL   H49334703   1.272   5.738   6.427  1.7318 -1.5987  2.5009
   56MOL   H49434704   1.417   5.723   6.335 -0.2746  0.8731  1.2442
   56MOL   H49534705   1.324   5.584   6.371 -0.2986 -0.0087  0.6171
   56MOL   H49634706   0.817   5.392   5.451 -2.6000 -0.8166  1.7553
   56MOL   H49734707   0.940   5.387   5.575 -1.2807 -1.9291 -0.8124
   56MOL   C49834708   0.747   5.441   5.648 -0.4810  0.1725 -0.1393
   56MOL   O49934709   0.820   5.499   5.759 -0.2781  0.0916 -0.0611
   56MOL   C50034710   0.740   5.588   5.840  0.5203  0.9406  0.3687
   56MOL   C50134711   0.832   5.661   5.934  0.4860 -0.1104 -0.0391
   56MOL   C50234712   0.748   5.755   6.016  0.0204 -0.0296  0.3197
   56MOL   C50334713   0.836   5.832   6.117 -0.3507  0.3661 -0.0834
   56MOL   C50434714   0.746   5.933   6.195 -0.0604 -1.1354 -0.0859
   56MOL   C50534715   0.825   6.014   6.300  0.4114 -0.1545  0.1243
   56MOL   C50634716   0.735   6.124   6.371  0.3307 -0.1403 -0.4887
   56MOL   C50734717   0.814   6.230   6.453  0.4823 -0.1513 -0.3924
   56MOL   C50834718   0.677   5.310   5.688 -0.0024 -0.1293 -0.4292
   56MOL   H50934719   0.659   5.500   5.623 -1.2733  0.2490  2.7126
   56MOL   H51034720   0.654   5.543   5.891  0.0906  1.4126  0.0699
   56MOL   H51134721   0.699   5.666   5.776 -0.0345  0.1053 -0.3167
   56MOL   H51234722   0.904   5.706   5.866 -0.0739 -1.3503 -1.4687
   56MOL   H51334723   0.886   5.585   5.990  2.4129  1.0304 -0.3172
   56MOL   H51434724   0.709   5.828   5.945  2.0453  0.6333 -0.1375
   56MOL   H51534725   0.665   5.699   6.060  0.3115 -2.2749 -1.8911
   56MOL   H51634726   0.881   5.750   6.174 -0.9468 -0.1245 -0.3187
   56MOL   H51734727   0.921   5.880   6.068 -1.0763  1.4091 -0.3297
   56MOL   H51834728   0.713   6.004   6.118  0.2020  0.9914  1.7265
   56MOL   H51934729   0.658   5.884   6.236 -1.4371  1.6490  0.4476
   56MOL   H52034730   0.910   6.071   6.264  1.4834 -1.0555  1.1840
   56MOL   H52134731   0.859   5.946   6.378  0.1840 -0.5856 -0.1484
   56MOL   H52234732   0.686   6.186   6.296  1.6949  2.0265  0.3635
   56MOL   H52334733   0.660   6.078   6.434 -0.1176  1.4577  0.1573
   56MOL   H52434734   0.747   6.298   6.506  1.4870 -0.1072  0.8424
   56MOL   H52534735   0.873   6.293   6.386  1.4574 -0.7211 -0.0757
   56MOL   H52634736   0.879   6.184   6.527 -1.9830 -2.6175  0.3262
   56MOL   H52734737   0.750   5.242   5.732  0.3265  0.0135 -0.7555
   56MOL   H52834738   0.603   5.332   5.765 -1.5397 -3.9255 -0.6735
   56MOL   C52934739   0.608   5.228   5.570 -0.0282 -0.2933  0.2692
   56MOL   O53034740   0.481   5.277   5.532 -0.8401  0.2813  0.2831
   56MOL   C53134741   0.481   5.377   5.430  0.4505  0.2770  0.0346
   56MOL   C53234742   0.333   5.434   5.421 -0.2363  0.8096  1.0490
   56MOL   C53334743   0.289   5.497   5.554  0.1218  0.1867 -0.7995
   56MOL   C53434744   0.347   5.636   5.586 -0.9545 -0.9626 -0.5480
   56MOL   C53534745   0.303   5.686   5.727  0.2588 -0.6592  0.3775
   56MOL   C53634746   0.376   5.811   5.780  0.2180 -0.3455  0.6975
   56MOL   C53734747   0.324   5.847   5.916 -0.5685 -0.7388  0.3996
   56MOL   C53834748   0.402   5.962   5.987 -0.2210 -0.1306 -0.5675
   56MOL   C53934749   0.574   5.082   5.602  0.6129  0.0805  0.2718
   56MOL   H54034750   0.678   5.231   5.486 -0.6541  0.9159 -0.2178
   56MOL   H54134751   0.553   5.457   5.449  0.3234  0.5206 -0.5058
   56MOL   H54234752   0.497   5.339   5.329  1.3917 -2.5770  1.1968
   56MOL   H54334753   0.260   5.355   5.406 -1.0908  1.6624  0.6867
   56MOL   H54434754   0.318   5.509   5.343 -1.7021 -2.2088 -1.6757
   56MOL   H54534755   0.183   5.521   5.556 -0.1705 -0.9867 -1.9445
   56MOL   H54634756   0.304   5.424   5.634 -1.3131  1.2907  0.4895
   56MOL   H54734757   0.456   5.628   5.589 -0.8897  0.1227  0.3352
   56MOL   H54834758   0.320   5.715   5.516  1.9801 -0.2863 -0.9760
   56MOL   H54934759   0.195   5.698   5.732  0.3300 -0.4155  1.5607
   56MOL   H55034760   0.325   5.609   5.800  3.4429 -0.5462 -0.3939
   56MOL   H55134761   0.363   5.897   5.715  2.1668  0.9886  2.0072
   56MOL   H55234762   0.484   5.797   5.782  0.7905  3.2884 -0.8312
   56MOL   H55334763   0.219   5.875   5.909 -0.8528 -1.3968  1.7987
   56MOL   H55434764   0.318   5.766   5.988  1.3550 -1.8747 -0.6801
   56MOL   H55534765   0.383   6.056   5.935  1.4579 -0.0293 -1.0174
   56MOL   H55634766   0.511   5.959   5.984 -0.2313  0.5308 -1.9188
   56MOL   H55734767   0.365   5.978   6.088  0.6713 -2.2579  0.1490
   56MOL   H55834768   0.662   5.025   5.630  0.9590  1.2787  1.6759
   56MOL   H55934769   0.515   5.085   5.694  0.5045  2.1343  0.1678
   56MOL   C56034770   0.503   5.004   5.487 -0.0514 -0.1670 -0.0238
   56MOL   O56134771   0.488   4.883   5.553  0.7524  0.0251  0.2535
   56MOL   C56234772   0.370   4.803   5.521 -0.4327  0.3779 -0.3238
   56MOL   C56334773   0.402   4.654   5.517 -0.3563 -0.1532  0.0813
   56MOL   C56434774   0.419   4.599   5.658 -0.0157 -0.3226 -0.7314
   56MOL   C56534775   0.453   4.455   5.649 -0.3041 -0.5186 -0.2755
   56MOL   C56634776   0.445   4.391   5.793 -0.8952  0.2450 -0.4080
   56MOL   C56734777   0.467   4.230   5.795  0.0198  0.0731  0.1544
   56MOL   C56834778   0.347   4.137   5.760  0.4955 -0.0659  0.9113
   56MOL   C56934779   0.378   3.993   5.783 -0.1226 -0.8561 -0.6450
   56MOL   C57034780   0.596   4.986   5.363  0.5648  0.3758 -0.2574
   56MOL   H57134781   0.400   5.037   5.471  0.7336  4.1552  2.8055
   56MOL   H57234782   0.333   4.826   5.421  1.2319 -1.1367 -1.3074
   56MOL   H57334783   0.280   4.827   5.579  0.4762  1.7718  0.5530
   56MOL   H57434784   0.493   4.639   5.459  0.5887  1.5100  1.1005
   56MOL   H57534785   0.314   4.607   5.473  1.1900 -3.5096  0.4775
   56MOL   H57634786   0.499   4.650   5.712 -0.4995  2.0191 -2.1695
   56MOL   H57734787   0.326   4.608   5.714  0.6233  3.9140 -0.1956
   56MOL   H57834788   0.391   4.399   5.579 -0.5562  1.4512 -1.6587
   56MOL   H57934789   0.555   4.452   5.611  0.7339 -0.4723  2.4012
   56MOL   H58034790   0.522   4.434   5.856 -0.7790  0.4186 -0.6655
   56MOL   H58134791   0.347   4.404   5.839  0.1868 -0.2827  2.1031
   56MOL   H58234792   0.499   4.200   5.894  1.7803 -0.4779 -0.5687
   56MOL   H58334793   0.557   4.201   5.742 -1.1094 -4.0504  0.3609
   56MOL   H58434794   0.259   4.170   5.814  1.4321 -0.1538  2.5368
   56MOL   H58534795   0.330   4.157   5.655 -1.7120 -0.9615  1.0825
   56MOL   H58634796   0.468   3.964   5.730  0.1091  2.3005 -2.0974
   56MOL   H58734797   0.295   3.933   5.746 -1.1195  0.1609 -0.1100
   56MOL   H58834798   0.375   3.973   5.890  0.1601 -0.3820 -0.5467
   56MOL   H58934799   0.615   5.091   5.339 -1.3929  1.1215  1.3087
   56MOL   H59034800   0.693   4.947   5.393  1.5134  1.1659 -2.1730
   56MOL   C59134801   0.534   4.931   5.241  0.6027 -0.2987  0.2405
   56MOL   O59234802   0.639   4.917   5.148  0.6314  0.5336 -0.3743
   56MOL   C59334803   0.646   4.794   5.087 -0.4588 -0.1643 -0.0203
   56MOL   C59434804   0.784   4.796   5.023 -0.0055  0.7958  1.0624
   56MOL   C59534805   0.808   4.668   4.936  0.1415 -0.1525 -0.3995
   56MOL   C59634806   0.954   4.654   4.887 -0.7975 -0.8133 -0.0891
   56MOL   C59734807   0.996   4.512   4.845 -0.6158 -0.7401  0.8422
   56MOL   C59834808   1.150   4.491   4.848  0.6260  0.5209 -0.5648
   56MOL   C59934809   1.209   4.484   4.987 -0.3199 -0.0751 -0.3660
   56MOL   C60034810   1.360   4.470   4.982 -0.3264  0.0780 -0.1719
   56MOL   C60134811   0.428   5.020   5.182  0.2332  0.3172  0.7946
   56MOL   H60234812   0.490   4.834   5.265  0.4010 -0.8910 -2.4512
   56MOL   H60334813   0.560   4.774   5.023 -0.2663 -0.2027 -0.2670
   56MOL   H60434814   0.650   4.714   5.162 -1.3745 -0.7331 -0.5643
   56MOL   H60534815   0.864   4.799   5.097  0.1951 -0.4091  0.9110
   56MOL   H60634816   0.792   4.885   4.962 -1.2550 -0.9536 -1.7557
   56MOL   H60734817   0.770   4.584   4.994 -1.7905 -0.4305 -1.9826
   56MOL   H60834818   0.739   4.672   4.851 -0.6148  0.9464  0.2461
   56MOL   H60934819   0.980   4.725   4.808 -1.7280 -0.7310 -0.3368
   56MOL   H61034820   1.018   4.683   4.970 -2.0719  0.7052  0.3967
   56MOL   H61134821   0.936   4.452   4.913  0.3892 -0.1930  2.2411
   56MOL   H61234822   0.959   4.497   4.744  1.0676  0.8130 -0.0532
   56MOL   H61334823   1.211   4.565   4.795  1.5303 -0.1137 -0.4283
   56MOL   H61434824   1.174   4.399   4.795  1.6033  1.1272 -1.1893
   56MOL   H61534825   1.200   4.578   5.042  1.8310 -1.1790  1.9793
   56MOL   H61634826   1.169   4.410   5.056 -1.5784 -2.5360 -3.6598
   56MOL   H61734827   1.407   4.425   5.070 -0.3520 -1.8190 -1.0924
   56MOL   H61834828   1.399   4.568   4.956  2.1483 -0.5822  0.8421
   56MOL   H61934829   1.385   4.411   4.894 -1.6491 -1.6264  0.5610
   56MOL   H62034830   0.462   5.121   5.157 -0.1750 -0.1195 -1.6215
   56MOL   H62134831   0.407   4.968   5.089  1.8178 -1.3038  1.3199
   56MOL   H62234832   0.336   5.019   5.241 -1.0090  1.1789 -1.0706
   57MOL     C134833   1.771   7.521   4.151  0.5009  0.1297  0.7882
   57MOL     O234834   1.819   7.639   4.086  0.2476  0.4722 -0.2246
   57MOL     C334835   1.758   7.658   3.964 -0.6054 -0.1325 -0.4875
   57MOL     C434836   1.831   0.000   3.892 -0.0365 -0.0765 -0.3498
   57MOL     C534837   1.742   0.046   3.775  0.0510 -0.5667  0.2259
   57MOL     C634838   1.811   0.162   3.695 -0.4774 -0.0703 -0.3460
   57MOL     C734839   1.728   0.230   3.590  0.0747 -0.4589  0.3811
   57MOL     C834840   1.787   0.371   3.547  0.2726 -0.0971 -0.3268
   57MOL     C934841   1.921   0.375   3.469 -0.1138 -0.0464 -0.4205
   57MOL    C1034842   1.991   0.509   3.472 -0.4687  0.2724 -1.3110
   57MOL    C1134843   1.851   7.507   4.284 -0.1364  0.1414  0.2034
   57MOL    H1234844   1.667   7.537   4.180 -0.3013 -0.2074 -1.7402
   57MOL    H1334845   1.655   7.685   3.986 -0.9066  0.0933 -2.1843
   57MOL    H1434846   1.751   7.574   3.896  1.6306 -0.4985 -0.3091
   57MOL    H1534847   1.927   7.737   3.858  0.3993  0.9713 -0.2798
   57MOL    H1634848   1.855   0.077   3.965 -0.0001  0.0556 -0.5005
   57MOL    H1734849   1.736   7.739   3.703  1.4963 -1.5158  1.1495
   57MOL    H1834850   1.643   0.078   3.807  1.5801  1.5159  3.0819
   57MOL    H1934851   1.846   0.234   3.769 -1.7360  0.2501 -0.0565
   57MOL    H2034852   1.908   0.136   3.652 -0.4326  0.5642 -0.6274
   57MOL    H2134853   1.720   0.170   3.499  1.7499 -0.7524  0.3970
   57MOL    H2234854   1.627   0.246   3.626 -0.7837 -0.6562 -1.8263
   57MOL    H2334855   1.798   0.433   3.636 -1.0491 -1.2328  0.6633
   57MOL    H2434856   1.698   0.411   3.498 -1.3322 -2.3473  0.6525
   57MOL    H2534857   1.989   0.296   3.501  1.6330  1.2663 -0.7795
   57MOL    H2634858   1.902   0.348   3.365 -0.2286 -1.0644 -0.1425
   57MOL    H2734859   1.929   0.597   3.452 -1.3730 -0.3406 -1.2069
   57MOL    H2834860   2.071   0.509   3.398  1.3053  2.1124  0.5610
   57MOL    H2934861   2.030   0.511   3.574  2.0626  0.6095 -2.2427
   57MOL    H3034862   1.828   7.595   4.344 -0.9567 -0.9153  1.4748
   57MOL    H3134863   1.808   7.429   4.347  1.7070  0.7593  2.3159
   57MOL    H3234864   1.769   7.435   4.084  0.6765  0.3878  0.4469
   57MOL    C3334865   1.991   7.465   4.265  0.1647 -0.2825  0.5580
   57MOL    O3434866   1.979   7.333   4.216 -0.2058 -0.2900 -0.5312
   57MOL    C3534867   2.067   7.318   4.107 -0.5253 -0.2711  0.3596
   57MOL    C3634868   2.005   7.359   3.981  0.2870  0.1801  0.4722
   57MOL    C3734869   2.099   7.374   3.861  0.3489  0.3082 -0.0765
   57MOL    C3834870   2.037   7.457   3.748 -0.1830  0.6248 -0.1667
   57MOL    C3934871   1.919   7.395   3.672 -0.3415 -0.1869 -0.4762
   57MOL    C4034872   1.864   7.490   3.559 -0.2873 -0.5013 -0.6679
   57MOL    C4134873   1.735   7.432   3.506 -0.0341  0.4239 -0.3613
   57MOL    C4234874   1.624   7.426   3.619  0.2333  0.6695 -0.4937
   57MOL    C4334875   2.067   7.467   4.395 -0.7224 -0.8548 -0.8957
   57MOL    H4434876   2.037   7.537   4.198  1.3907 -1.3455  0.2466
   57MOL    H4534877   2.105   7.216   4.096 -1.3394 -0.7398  1.7911
   57MOL    H4634878   2.163   7.369   4.111 -0.8345  0.3765 -0.4347
   57MOL    H4734879   1.959   7.456   3.995 -0.1323  0.4127 -2.1802
   57MOL    H4834880   1.921   7.294   3.957 -0.5469  0.7030  1.9094
   57MOL    H4934881   2.194   7.414   3.896  0.0282  0.9552  0.0759
   57MOL    H5034882   2.130   7.283   3.810 -1.9575 -0.2445 -0.5404
   57MOL    H5134883   2.003   7.551   3.791 -0.2465  0.9890 -1.0153
   57MOL    H5234884   2.103   7.486   3.667  0.3438 -0.5778 -0.1774
   57MOL    H5334885   1.943   7.301   3.624  2.8478 -1.0218  2.5484
   57MOL    H5434886   1.838   7.365   3.739 -1.9665  0.0979 -2.2724
   57MOL    H5534887   1.935   7.508   3.478 -0.8364  0.1406 -1.0196
   57MOL    H5634888   1.844   7.591   3.594 -1.4907 -0.7626 -0.5726
   57MOL    H5734889   1.694   7.497   3.428 -1.1607 -0.9877 -0.9822
   57MOL    H5834890   1.753   7.335   3.459  0.4334 -0.5000  1.6714
   57MOL    H5934891   1.619   7.528   3.656  0.9353  0.8202 -0.8201
   57MOL    H6034892   1.637   7.349   3.696  1.0801  1.5481  0.2531
   57MOL    H6134893   1.527   7.415   3.571 -0.2258 -0.5011  0.6546
   57MOL    H6234894   2.018   7.417   4.479 -0.6913  0.4404 -0.0872
   57MOL    H6334895   2.162   7.414   4.385  0.1240 -0.0977  2.4351
   57MOL    C6434896   2.095   7.615   4.450 -0.3041  0.4148  0.5432
   57MOL    O6534897   2.174   7.683   4.347  0.6028  0.3843 -1.0641
   57MOL    C6634898   2.109   0.011   4.287 -0.2016 -0.6072 -0.3654
   57MOL    C6734899   2.208   0.077   4.181 -0.8043 -0.3743 -0.0570
   57MOL    C6834900   2.154   0.179   4.086 -0.2238  0.2414  0.0900
   57MOL    C6934901   2.244   0.193   3.963  0.4648 -0.4536 -0.3628
   57MOL    C7034902   2.182   0.255   3.836 -0.8341  0.1966  0.0059
   57MOL    C7134903   2.235   0.188   3.702 -0.2356 -0.0034 -0.7099
   57MOL    C7234904   2.379   0.235   3.677  0.1626 -0.6668 -0.1430
   57MOL    C7334905   2.385   0.385   3.632 -0.5366  0.0625  0.4043
   57MOL    C7434906   2.183   7.616   4.578 -0.4522 -0.0750 -0.5561
   57MOL    H7534907   2.004   7.674   4.461  0.0163  0.8181  1.0498
   57MOL    H7634908   2.085   0.084   4.363 -1.5559 -2.2564  0.8207
   57MOL    H7734909   2.018   7.758   4.234  1.1774 -1.1246 -2.5333
   57MOL    H7834910   2.249   7.771   4.119  0.9795 -1.4987  2.5284
   57MOL    H7934911   2.290   0.116   4.240 -1.6384 -0.2686  1.0464
   57MOL    H8034912   2.054   0.157   4.048 -0.0628  0.1244 -0.2662
   57MOL    H8134913   2.149   0.278   4.132 -0.3810  0.0449  0.5015
   57MOL    H8234914   2.324   0.261   3.991 -0.2519  0.2135  0.0609
   57MOL    H8334915   2.294   0.097   3.948 -0.1156 -0.9222  0.6300
   57MOL    H8434916   2.074   0.263   3.826 -0.5404  2.5088 -2.0384
   57MOL    H8534917   2.210   0.361   3.832 -1.3221  0.2805 -1.7326
   57MOL    H8634918   2.171   0.219   3.620 -0.5920  1.2976  0.0468
   57MOL    H8734919   2.226   0.079   3.709 -0.8770  0.1053  0.3551
   57MOL    H8834920   2.435   0.225   3.770  1.6274  0.2130 -0.9135
   57MOL    H8934921   2.427   0.179   3.597 -0.4459 -1.5980  0.1250
   57MOL    H9034922   2.338   0.450   3.705  1.9378  1.1412  1.0885
   57MOL    H9134923   2.328   0.406   3.541  1.3948  2.4155 -0.3305
   57MOL    H9234924   2.488   0.420   3.618 -0.0724 -1.8921 -1.2574
   57MOL    H9334925   2.280   7.571   4.556 -0.3419 -0.4992  0.7297
   57MOL    H9434926   2.225   7.715   4.599 -1.7519  0.2264  0.7079
   57MOL    C9534927   2.122   7.551   4.705  0.4947  0.1424 -0.2885
   57MOL    O9634928   1.993   7.599   4.719  0.4496 -0.6242  0.4161
   57MOL    C9734929   1.889   7.503   4.748  0.0916 -0.4879  0.0673
   57MOL    C9834930   1.759   7.586   4.753 -0.3039 -0.0514 -0.2753
   57MOL    C9934931   1.740   7.668   4.883  0.1427  0.1463  0.1596
   57MOL   C10034932   1.593   7.718   4.882 -0.1564  0.5013  0.1835
   57MOL   C10134933   1.563   0.024   5.008 -0.4250 -0.0466  0.5513
   57MOL   C10234934   1.637   0.164   5.011  0.6471  0.5494 -0.1530
   57MOL   C10334935   1.567   0.268   4.924 -0.3333 -1.1065  0.0115
   57MOL   C10434936   1.632   0.403   4.934  0.7643 -0.3102 -0.0315
   57MOL   C10534937   2.199   7.590   4.830  0.1860 -0.0505  0.1008
   57MOL   H10634938   2.120   7.446   4.676 -0.0411 -0.2610  1.1947
   57MOL   H10734939   1.898   7.458   4.847 -0.8578  1.9499  1.3052
   57MOL   H10834940   1.885   7.430   4.667  1.2026 -0.8275  0.3053
   57MOL   H10934941   1.675   7.520   4.732 -1.0736  1.8455 -3.5733
   57MOL   H11034942   1.745   7.655   4.669  2.9639  1.1792  0.0926
   57MOL   H11134943   1.764   7.601   4.965  0.5430  1.5705  1.2365
   57MOL   H11234944   1.820   7.740   4.897  0.3405  0.3914 -2.0434
   57MOL   H11334945   1.554   0.003   4.800 -1.2104  0.2654  0.5053
   57MOL   H11434946   1.530   7.630   4.869  0.3375  0.3692 -1.3619
   57MOL   H11534947   1.458   0.045   5.030 -0.4520  0.4375 -0.0522
   57MOL   H11634948   1.591   7.742   5.098  0.4177  0.4684  0.6138
   57MOL   H11734949   1.737   0.156   4.969  1.1624  1.6990  0.8129
   57MOL   H11834950   1.639   0.194   5.116  0.6348 -0.1702  0.0572
   57MOL   H11934951   1.569   0.242   4.818  0.9136  0.3602 -0.3529
   57MOL   H12034952   1.461   0.273   4.947 -0.1965  0.2449  0.4225
   57MOL   H12134953   1.596   0.456   5.023 -0.1572 -1.0909  0.0625
   57MOL   H12234954   1.600   0.469   4.853 -1.1548  0.9119  1.6684
   57MOL   H12334955   1.741   0.401   4.925  0.6400 -2.5156 -1.1844
   57MOL   H12434956   2.187   7.694   4.860  0.3878  0.6348 -2.1111
   57MOL   H12534957   2.143   7.539   4.909 -0.9639  1.5888  0.3642
   57MOL   C12634958   2.354   7.551   4.847  0.2443 -0.1028  0.3345
   57MOL   O12734959   2.376   7.420   4.886  0.1832  0.3012  0.4841
   57MOL   C12834960   2.422   7.333   4.780 -0.2015  0.5030 -0.0148
   57MOL   C12934961   2.396   7.189   4.828  0.0719 -0.0605  0.2167
   57MOL   C13034962   2.481   7.145   4.955 -0.2760  0.4151  0.2869
   57MOL   C13134963   2.427   7.020   5.028 -0.3414 -0.1401  0.4452
   57MOL   C13234964   2.449   6.890   4.948 -0.7696 -0.1314  0.0011
   57MOL   C13334965   2.399   6.762   5.023 -0.6623 -0.4822 -0.1955
   57MOL   C13434966   2.492   6.705   5.124 -0.7820 -0.4989 -0.2439
   57MOL   C13534967   2.442   6.588   5.206 -0.3210  0.0641 -0.0294
   57MOL   C13634968   2.407   7.629   4.961 -0.0487  0.1688 -0.1936
   57MOL   H13734969   2.405   7.577   4.755  0.8205 -1.6463  0.1896
   57MOL   H13834970   2.530   7.341   4.764 -0.4247 -0.2544 -2.0570
   57MOL   H13934971   2.374   7.348   4.683  0.2877 -0.4681 -0.4152
   57MOL   H14034972   2.418   7.116   4.751  0.0054 -2.4396  2.3911
   57MOL   H14134973   2.292   7.176   4.859 -0.1903  2.0886  0.3153
   57MOL   H14234974   2.584   7.124   4.924 -0.7539 -4.2802  1.5295
   57MOL   H14334975   2.468   7.223   5.030 -0.3998 -0.9490  1.6924
   57MOL   H14434976   2.484   7.005   5.120 -0.2554  3.5303  1.0952
   57MOL   H14534977   2.321   7.031   5.054 -0.6607 -1.3233 -0.3001
   57MOL   H14634978   2.397   6.915   4.855  0.9760 -4.2406 -2.2053
   57MOL   H14734979   2.551   6.873   4.915 -0.9875 -4.6202  1.3948
   57MOL   H14834980   2.374   6.687   4.948 -1.8948  0.5899 -0.8791
   57MOL   H14934981   2.313   6.793   5.084  0.2073  2.1812 -0.2249
   57MOL   H15034982   2.587   6.672   5.082  0.1902  0.1131  1.3950
   57MOL   H15134983   2.535   6.780   5.191  0.2320 -1.1142 -0.2049
   57MOL   H15234984   2.403   6.519   5.132 -2.0913 -0.4209  1.3176
   57MOL   H15334985   2.364   6.625   5.273  2.7114  1.6575  2.7792
   57MOL   H15434986   2.516   6.531   5.263  0.0322  0.0113 -0.5338
   57MOL   H15534987   2.382   7.735   4.952  1.2058  0.4491 -0.4759
   57MOL   H15634988   2.344   7.607   5.047  1.0312  0.4446  0.6789
   57MOL   C15734989   2.554   7.608   5.007 -0.0059 -0.4470  0.1510
   57MOL   O15834990   2.557   7.682   5.130 -0.0045  0.1196  0.8943
   57MOL   C15934991   2.658   7.633   5.214  0.1701 -0.1517 -0.1633
   57MOL   C16034992   2.697   7.725   5.329 -0.7535  0.2306  0.2716
   57MOL   C16134993   2.763   7.637   5.445  0.0870  0.0986 -0.5623
   57MOL   C16234994   2.844   7.739   5.537 -0.2744  0.6440  0.4669
   57MOL   C16334995   2.869   7.692   5.682  0.4217  0.3083  0.0276
   57MOL   C16434996   2.958   0.025   5.753  0.0265 -0.5857  0.0642
   57MOL   C16534997   3.004   7.732   5.884  0.0098 -0.6903 -0.3581
   57MOL   C16634998   3.112   0.045   5.954  0.8937  0.4987 -0.1836
   57MOL   C16734999   2.657   7.669   4.908  0.4719  0.8489  0.7128
   57MOL   H16835000   2.570   7.501   5.013 -1.8427 -0.7397  0.2644
   57MOL   H16935001   2.756   7.609   5.172  1.6630 -1.1211  3.6678
   57MOL   H17035002   2.626   7.541   5.262  0.1752 -0.4489 -0.7362
   57MOL   H17135003   2.610   0.005   5.366 -0.1694  1.5248 -0.2579
   57MOL   H17235004   2.760   0.029   5.289  0.3537  0.0130  1.5780
   57MOL   H17335005   2.694   7.571   5.498  2.5446 -0.3487  2.1986
   57MOL   H17435006   2.834   7.570   5.397  1.2372 -1.1285  2.7562
   57MOL   H17535007   2.941   7.756   5.489  0.7098 -1.2332  1.7221
   57MOL   H17635008   2.791   0.060   5.536 -1.0261  0.2310 -0.1398
   57MOL   H17735009   2.774   7.687   5.734  0.0992  1.5214 -0.4383
   57MOL   H17835010   2.913   7.592   5.686 -1.3061 -0.4510  0.6300
   57MOL   H17935011   2.906   0.119   5.768  3.6667  1.3793  0.9017
   57MOL   H18035012   3.035   0.060   5.684 -0.3961 -1.4771 -0.8831
   57MOL   H18135013   2.920   7.710   5.950 -0.4555  0.4560 -0.5464
   57MOL   H18235014   3.063   7.646   5.853 -0.1049 -1.4559  1.4900
   57MOL   H18335015   3.200   0.000   5.908 -1.1479 -2.3505 -1.3977
   57MOL   H18435016   3.117   0.034   6.062  1.0412 -0.5195 -0.2952
   57MOL   H18535017   3.103   0.148   5.918  0.9023  0.4310 -0.3815
   57MOL   H18635018   2.748   7.629   4.952  0.6347 -3.1591 -2.8477
   57MOL   H18735019   2.656   7.627   4.807  1.4277 -1.6019  1.6933
   57MOL   C18835020   2.658   0.056   4.890 -0.0275  0.1256  1.0548
   57MOL   O18935021   2.710   0.089   4.764  0.2345 -0.1281  0.2540
   57MOL   C19035022   2.606   0.125   4.667  0.1721  0.6305  0.1414
   57MOL   C19135023   2.661   0.163   4.527  0.1685 -0.0198 -0.5126
   57MOL   C19235024   2.555   0.178   4.416 -0.0058  0.7345  0.4343
   57MOL   C19335025   2.488   0.313   4.417  0.4704  0.4266 -0.9960
   57MOL   C19435026   2.579   0.437   4.427 -0.4129  0.2359  0.4646
   57MOL   C19535027   2.501   0.561   4.407 -0.2300 -0.1216  0.5031
   57MOL   C19635028   2.599   0.678   4.415  0.2697 -0.1403  0.1697
   57MOL   C19735029   2.527   0.818   4.406 -0.4119  0.1477  0.4329
   57MOL   C19835030   2.746   0.137   4.989  0.8529 -0.2091  0.0057
   57MOL   H19935031   2.554   0.086   4.897  0.1757  1.1897 -0.3470
   57MOL   H20035032   2.539   0.038   4.667  0.8309  0.1164  1.4154
   57MOL   H20135033   2.534   0.198   4.705 -1.1792 -1.6503  2.1035
   57MOL   H20235034   2.733   0.088   4.495  0.2026  0.7238 -2.2737
   57MOL   H20335035   2.734   0.244   4.532 -1.3033  1.2183  1.8632
   57MOL   H20435036   2.610   0.163   4.323 -0.7963 -0.4713  0.1375
   57MOL   H20535037   2.478   0.101   4.422  0.3953  0.3140  0.2442
   57MOL   H20635038   2.421   0.323   4.331 -1.3800  1.0381  0.4917
   57MOL   H20735039   2.427   0.329   4.506  0.8260  1.0412 -0.8640
   57MOL   H20835040   2.636   0.431   4.519  0.9098 -2.4620 -0.4822
   57MOL   H20935041   2.656   0.438   4.349 -0.3586 -1.7350  0.4623
   57MOL   H21035042   2.427   0.586   4.484 -0.8835  1.9706 -0.7798
   57MOL   H21135043   2.456   0.558   4.308 -1.8564 -2.6573  1.2522
   57MOL   H21235044   2.656   0.677   4.508 -0.8320 -0.2433  0.8478
   57MOL   H21335045   2.672   0.686   4.334 -1.3157  1.7302 -1.1210
   57MOL   H21435046   2.514   0.848   4.510  4.7803  0.8797  1.0350
   57MOL   H21535047   2.435   0.835   4.350 -0.6088  1.4525  1.1468
   57MOL   H21635048   2.599   0.891   4.369 -0.2375 -0.7086 -0.9990
   57MOL   H21735049   2.716   0.108   5.089  1.2352 -2.0468 -0.4046
   57MOL   H21835050   2.851   0.111   4.975  0.5817 -0.5054 -1.5005
   57MOL   C21935051   2.733   0.287   4.970 -0.2213 -0.4770 -0.4246
   57MOL   O22035052   2.868   0.340   4.958 -0.0246 -0.4006  0.1539
   57MOL   C22135053   2.882   0.435   4.852  0.1031 -0.1981 -0.4101
   57MOL   C22235054   3.017   0.506   4.872 -0.0649 -0.4863 -0.3552
   57MOL   C22335055   3.022   0.599   5.000  0.1044  0.5293 -0.3067
   57MOL   C22435056   3.167   0.640   5.036  0.1782  0.0130 -0.4154
   57MOL   C22535057   3.179   0.742   5.147 -0.0503 -0.3166 -0.1193
   57MOL   C22635058   3.120   0.685   5.276  0.4466  0.7577 -0.1459
   57MOL   C22735059   2.978   0.739   5.296  0.5053 -0.8288 -1.0671
   57MOL   C22835060   2.885   0.683   5.415 -0.5602 -0.5104  0.7856
   57MOL   C22935061   2.662   0.359   5.087 -0.0187  0.1070 -0.3007
   57MOL   H23035062   2.670   0.314   4.885 -0.0767  0.9200 -0.0974
   57MOL   H23135063   2.811   0.517   4.864 -0.3917 -0.3912 -1.9191
   57MOL   H23235064   2.862   0.389   4.755  2.5058  0.7511 -1.3777
   57MOL   H23335065   3.035   0.570   4.786 -0.3956 -0.5617 -0.4789
   57MOL   H23435066   3.105   0.442   4.873  0.4483  0.2065 -0.3115
   57MOL   H23535067   2.954   0.684   4.993 -0.8302 -0.0585  1.2078
   57MOL   H23635068   2.980   0.535   5.078  1.6976  1.3289  1.2519
   57MOL   H23735069   3.218   0.549   5.067 -0.5123  0.1749  1.2038
   57MOL   H23835070   3.211   0.668   4.940 -1.6132  2.4428 -0.5781
   57MOL   H23935071   3.287   0.750   5.159  0.1494 -1.1520 -1.2887
   57MOL   H24035072   3.134   0.835   5.113 -2.7007 -0.9293  1.5698
   57MOL   H24135073   3.173   0.730   5.360 -1.1805 -0.5526  1.6381
   57MOL   H24235074   3.123   0.577   5.286 -1.0432  0.7761  0.7663
   57MOL   H24335075   2.977   0.848   5.299 -1.6849 -0.8618  0.9437
   57MOL   H24435076   2.919   0.728   5.205  0.2604  1.1628 -1.1712
   57MOL   H24535077   2.912   0.720   5.514  1.0055  1.3793 -0.3137
   57MOL   H24635078   2.877   0.575   5.422 -0.7366 -0.5785 -0.3394
   57MOL   H24735079   2.781   0.716   5.408  0.1886  2.0202  1.0377
   57MOL   H24835080   2.719   0.359   5.180  0.0006  0.7995 -0.3074
   57MOL   H24935081   2.649   0.465   5.062 -1.8377  0.7313  2.9908
   57MOL   C25035082   2.521   0.309   5.123  0.5200  0.2377  0.2517
   57MOL   O25135083   2.464   0.292   4.994  0.4122 -0.3393  0.2905
   57MOL   C25235084   2.327   0.236   5.009 -0.2421 -0.1404  0.0281
   57MOL   C25335085   2.271   0.210   4.871  0.2006 -0.2159  0.2534
   57MOL   C25435086   2.235   0.345   4.798  0.2275  0.2340 -0.0110
   57MOL   C25535087   2.182   0.327   4.655  0.4522  0.6755 -0.2303
   57MOL   C25635088   2.148   0.456   4.580 -0.1052  0.3403  0.1211
   57MOL   C25735089   2.093   0.416   4.447 -0.0018 -0.3280  0.1006
   57MOL   C25835090   2.037   0.526   4.358 -0.0599  0.2709 -0.0833
   57MOL   C25935091   2.136   0.631   4.317  0.4740 -0.8718 -0.2387
   57MOL   C26035092   2.442   0.413   5.210  0.7616  0.0769 -0.2645
   57MOL   H26135093   2.540   0.215   5.177 -0.7586  0.5244  1.2151
   57MOL   H26235094   2.261   0.306   5.061 -0.0266  0.2690 -0.2465
   57MOL   H26335095   2.326   0.144   5.067 -0.8825  1.2053  2.2121
   57MOL   H26435096   2.182   0.147   4.867  0.4661 -0.6907  1.6294
   57MOL   H26535097   2.338   0.150   4.810  0.4340  1.5709 -1.2953
   57MOL   H26635098   2.155   0.392   4.856  1.0034 -0.1896  1.4323
   57MOL   H26735099   2.322   0.410   4.797 -0.0005  0.6547  2.6119
   57MOL   H26835100   2.262   0.267   4.611  1.6201  1.1692  1.1606
   57MOL   H26935101   2.099   0.257   4.659  0.7036  0.3606 -0.4615
   57MOL   H27035102   2.080   0.516   4.641  1.0068  0.1410  1.5863
   57MOL   H27135103   2.241   0.512   4.574 -0.8931  1.7172  0.4900
   57MOL   H27235104   2.006   0.353   4.469  0.2322 -0.7426 -0.1399
   57MOL   H27335105   2.171   0.354   4.402  0.2737 -0.0220  0.1605
   57MOL   H27435106   1.986   0.503   4.265  1.4949  1.6011 -1.2982
   57MOL   H27535107   1.960   0.570   4.423  0.0685 -0.1569  0.3608
   57MOL   H27635108   2.220   0.572   4.281 -0.0197 -1.6040 -0.2013
   57MOL   H27735109   2.175   0.695   4.397 -0.2033 -1.2983  0.4363
   57MOL   H27835110   2.106   0.689   4.230  2.0809 -3.4102 -2.5365
   57MOL   H27935111   2.390   0.494   5.159  0.4727 -1.0307 -1.7662
   57MOL   H28035112   2.357   0.359   5.251  0.6199  0.2753 -0.2937
   57MOL   C28135113   2.509   0.464   5.335  0.5640  0.1775 -0.3810
   57MOL   O28235114   2.559   0.355   5.409  0.0912 -0.4011 -0.4239
   57MOL   C28335115   2.651   0.386   5.515  0.0350  0.3572 -0.4518
   57MOL   C28435116   2.593   0.355   5.649 -0.6587  0.1414  0.4471
   57MOL   C28535117   2.675   0.395   5.775 -0.1903 -0.2629  0.5665
   57MOL   C28635118   2.633   0.327   5.900  0.2511 -0.2758 -0.3394
   57MOL   C28735119   2.711   0.390   6.016 -0.4326 -0.1112 -0.2434
   57MOL   C28835120   2.717   0.293   6.134  0.0580  0.1949 -0.5308
   57MOL   C28935121   2.811   0.176   6.110 -0.1109  0.3359  0.2044
   57MOL   C29035122   2.885   0.137   6.240  0.6396 -0.1420  0.1865
   57MOL   C29135123   2.417   0.555   5.423  0.5696 -0.1874  0.2854
   57MOL   H29235124   2.596   0.525   5.311  0.2099  1.0126  0.3989
   57MOL   H29335125   2.678   0.491   5.518  0.8339  0.1359  0.5639
   57MOL   H29435126   2.742   0.326   5.505 -1.9923 -2.6942 -1.3414
   57MOL   H29535127   2.563   0.250   5.651  0.6454 -0.2952 -1.5953
   57MOL   H29635128   2.502   0.412   5.662  1.3533  3.0592  2.2612
   57MOL   H29735129   2.774   0.357   5.747  0.9290  3.6032 -0.9925
   57MOL   H29835130   2.685   0.503   5.781 -2.6183  0.0208  0.0966
   57MOL   H29935131   2.525   0.337   5.914  0.5755  1.1818  1.2585
   57MOL   H30035132   2.647   0.220   5.887  1.0443 -0.3224  0.8796
   57MOL   H30135133   2.815   0.406   5.990 -0.1207  2.2785  2.2773
   57MOL   H30235134   2.659   0.480   6.048  0.0525 -0.3701  1.2885
   57MOL   H30335135   2.613   0.267   6.153  0.2952  0.6050  1.3352
   57MOL   H30435136   2.743   0.347   6.224  1.9813 -1.6263  0.0539
   57MOL   H30535137   2.765   0.089   6.062 -1.8592 -0.0811  2.5513
   57MOL   H30635138   2.893   0.207   6.046  0.2062 -0.4843  0.2076
   57MOL   H30735139   2.809   0.120   6.316  1.8437  2.3681  2.0490
   57MOL   H30835140   2.938   0.224   6.279 -1.0555  1.6685 -1.4459
   57MOL   H30935141   2.957   0.056   6.228 -0.0819 -0.8928  0.8709
   57MOL   H31035142   2.328   0.494   5.436  1.5193 -1.8079 -0.6021
   57MOL   H31135143   2.468   0.561   5.519  1.0596 -2.0207  0.1633
   57MOL   C31235144   2.401   0.702   5.373 -0.3997  0.1671 -0.0978
   57MOL   O31335145   2.532   0.756   5.377  0.3096 -0.0584 -0.5621
   57MOL   C31435146   2.562   0.875   5.302 -0.1243 -0.3568  0.4374
   57MOL   C31535147   2.613   0.823   5.168  1.0903 -0.3471 -0.5737
   57MOL   C31635148   2.660   0.937   5.076 -0.3366  0.1851  0.0595
   57MOL   C31735149   2.726   0.887   4.943 -0.1406  0.1872  0.7194
   57MOL   C31835150   2.819   0.994   4.884  0.0543 -0.0323 -0.0404
   57MOL   C31935151   2.851   0.962   4.735 -0.0140 -0.0759 -0.0643
   57MOL   C32035152   2.921   0.824   4.718  0.3479 -0.1458  0.3278
   57MOL   C32135153   2.962   0.802   4.571 -0.5137 -0.0406  0.2393
   57MOL   C32235154   2.306   0.793   5.450  0.1588 -0.7502  0.5458
   57MOL   H32335155   2.374   0.704   5.268 -0.5213 -0.6384 -0.0845
   57MOL   H32435156   2.641   0.925   5.358  0.4174  1.0676 -1.5217
   57MOL   H32535157   2.481   0.947   5.293  0.4396  0.1233 -0.9384
   57MOL   H32635158   2.545   0.760   5.110  0.6347  0.6871 -1.1828
   57MOL   H32735159   2.699   0.758   5.184  1.1661 -0.0674  0.1688
   57MOL   H32835160   2.569   0.982   5.038 -0.7609 -0.6913  0.0127
   57MOL   H32935161   2.729   1.008   5.121  0.0022 -1.8766  2.9153
   57MOL   H33035162   2.798   0.810   4.971  1.7256  1.2838 -0.9987
   57MOL   H33135163   2.651   0.842   4.878  1.5858  2.1501 -2.7404
   57MOL   H33235164   2.767   1.090   4.882 -0.9376 -0.5317  0.8850
   57MOL   H33335165   2.909   1.005   4.945  1.3770 -0.5996 -1.8679
   57MOL   H33435166   2.905   1.048   4.697 -0.4521 -0.6173 -1.9836
   57MOL   H33535167   2.761   0.959   4.673 -0.4790 -3.4969  0.6562
   57MOL   H33635168   3.000   0.807   4.791  1.1556  1.1268 -0.2221
   57MOL   H33735169   2.836   0.757   4.730 -0.8251  0.9476 -1.5790
   57MOL   H33835170   2.948   0.701   4.532 -1.2448 -0.6425  2.0418
   57MOL   H33935171   3.061   0.844   4.554 -1.4365  2.7412  1.3349
   57MOL   H34035172   2.898   0.864   4.507 -0.8544 -0.7208 -0.0834
   57MOL   H34135173   2.323   0.765   5.554  0.0474 -0.2780  0.6950
   57MOL   H34235174   2.322   0.901   5.444 -0.8113 -0.6570 -0.6522
   57MOL   C34335175   2.159   0.766   5.411  0.7090  0.6186  0.3981
   57MOL   O34435176   2.144   0.758   5.268 -0.1100 -0.1295 -0.4604
   57MOL   C34535177   2.073   0.645   5.217  0.6163 -0.4969  0.5582
   57MOL   C34635178   2.065   0.646   5.064  0.2462  0.2088  0.8730
   57MOL   C34735179   1.961   0.740   4.997  0.5144 -0.2484 -0.3418
   57MOL   C34835180   1.958   0.714   4.838 -0.2491  0.1431 -0.5268
   57MOL   C34935181   1.869   0.812   4.763 -0.8124 -0.3550  0.5912
   57MOL   C35035182   1.878   0.780   4.611  0.0419 -0.3299  0.1624
   57MOL   C35135183   1.824   0.886   4.516 -0.1042  0.4199  0.1834
   57MOL   C35235184   1.828   0.853   4.367 -0.5868  0.1454  0.0919
   57MOL   C35335185   2.055   0.867   5.465  0.1272  0.2559 -0.5733
   57MOL   H35435186   2.124   0.671   5.450 -1.5041  0.7801 -1.1029
   57MOL   H35535187   1.974   0.633   5.260  0.0221  0.4634 -0.4960
   57MOL   H35635188   2.124   0.554   5.247  0.5881 -1.2111 -1.4670
   57MOL   H35735189   2.053   0.549   5.015  3.0161  1.2080 -1.9675
   57MOL   H35835190   2.162   0.686   5.034 -0.4707  1.5866  0.3341
   57MOL   H35935191   1.857   0.719   5.024  0.9375 -1.2834  0.4828
   57MOL   H36035192   1.987   0.842   5.026 -0.8383 -0.2556  0.9550
   57MOL   H36135193   2.061   0.716   4.804  0.0395  1.2219  0.3735
   57MOL   H36235194   1.915   0.614   4.826 -0.5904  0.0608  1.3243
   57MOL   H36335195   1.765   0.792   4.789 -0.6289  0.3237  1.9188
   57MOL   H36435196   1.883   0.920   4.775  0.2459 -0.4002 -0.1165
   57MOL   H36535197   1.836   0.681   4.595  1.6118 -1.3380  2.0513
   57MOL   H36635198   1.981   0.771   4.577 -0.4203 -0.2330 -1.2874
   57MOL   H36735199   1.720   0.901   4.543  0.0625  1.2932  0.3678
   57MOL   H36835200   1.883   0.975   4.537  0.2470  0.4256 -0.7897
   57MOL   H36935201   1.762   0.769   4.346  0.1063 -0.0306 -1.5406
   57MOL   H37035202   1.932   0.826   4.346 -0.1793  1.1869  0.7103
   57MOL   H37135203   1.792   0.932   4.301  0.8986  0.6331 -0.1633
   57MOL   H37235204   2.074   0.963   5.418 -0.4007  0.6018 -0.0794
   57MOL   H37335205   1.962   0.821   5.429  0.5493 -0.4868 -0.7248
   57MOL   C37435206   2.029   0.888   5.610  0.3520 -0.6488  0.2784
   57MOL   O37535207   1.904   0.953   5.607  0.5098 -0.0922  0.1184
   57MOL   C37635208   1.829   0.977   5.720  0.2763 -0.1901  0.3808
   57MOL   C37735209   1.719   1.067   5.682 -0.0504  0.8442 -0.0193
   57MOL   C37835210   1.600   1.006   5.611 -1.4538  0.0746 -0.0265
   57MOL   C37935211   1.501   1.120   5.561 -0.5096  0.0065  0.0127
   57MOL   C38035212   1.389   1.067   5.465 -0.8413  0.0063 -0.2697
   57MOL   C38135213   1.273   0.996   5.542 -0.2709  0.9601  0.2964
   57MOL   C38235214   1.172   0.931   5.456 -0.4878  0.9372  0.1304
   57MOL   C38335215   1.055   0.853   5.532 -0.1937 -0.2656  0.2792
   57MOL   C38435216   2.139   0.962   5.691 -0.1995 -0.0446 -0.0284
   57MOL   H38535217   2.015   0.788   5.651 -1.0139 -0.3852  0.4948
   57MOL   H38635218   1.887   1.014   5.804  1.4147 -0.9829 -0.0525
   57MOL   H38735219   1.776   0.887   5.751 -0.8919  0.0089 -0.9661
   57MOL   H38835220   1.765   1.150   5.628 -0.6881  0.9851 -0.3486
   57MOL   H38935221   1.693   1.100   5.782 -1.1214 -0.7899  0.2713
   57MOL   H39035222   1.624   0.948   5.521 -0.9470  1.4354 -0.7792
   57MOL   H39135223   1.553   0.936   5.679 -0.9605  2.1507  2.5078
   57MOL   H39235224   1.462   1.152   5.658 -0.8652 -1.0086  0.2067
   57MOL   H39335225   1.552   1.202   5.511  1.2310 -0.6086  0.7415
   57MOL   H39435226   1.334   1.148   5.418 -2.1612  0.0180  1.2384
   57MOL   H39535227   1.434   1.003   5.389  0.3088  0.2703  0.1833
   57MOL   H39635228   1.229   1.055   5.621  1.1459 -0.7258  2.4070
   57MOL   H39735229   1.320   0.912   5.593  0.4150 -0.1661 -2.0762
   57MOL   H39835230   1.129   1.002   5.386 -1.5514  0.3118  0.1344
   57MOL   H39935231   1.220   0.856   5.393 -0.7825  1.4310 -0.6902
   57MOL   H40035232   0.996   0.925   5.590  1.0700  1.4392 -0.4916
   57MOL   H40135233   1.094   0.771   5.591 -0.1614 -0.8958 -0.6156
   57MOL   H40235234   0.981   0.817   5.461 -0.1132 -0.7298  0.4333
   57MOL   H40335235   2.101   0.972   5.792 -0.5906  0.8218 -0.2508
   57MOL   H40435236   2.230   0.901   5.696 -0.5733 -0.4928  1.4449
   57MOL   C40535237   2.160   1.107   5.647  0.1868  0.0585 -0.6827
   57MOL   O40635238   2.244   1.123   5.532 -0.2192 -0.2953 -0.2115
   57MOL   C40735239   2.229   1.236   5.447 -0.1754 -0.1885 -0.0845
   57MOL   C40835240   2.293   1.231   5.307 -0.1610 -0.4101  0.4959
   57MOL   C40935241   2.239   1.122   5.218 -0.0632 -0.9184  0.1567
   57MOL   C41035242   2.286   1.146   5.073 -0.1898 -0.2308 -0.3300
   57MOL   C41135243   2.222   1.065   4.958  0.2476  0.8149 -0.1702
   57MOL   C41235244   2.296   1.108   4.830 -0.6684 -0.5953 -0.0435
   57MOL   C41335245   2.226   1.025   4.715 -0.2980  0.1359 -0.0207
   57MOL   C41435246   2.250   1.069   4.578 -0.0159  0.3007  0.2622
   57MOL   C41535247   2.213   1.194   5.760  0.4330 -0.3802 -0.5076
   57MOL   H41635248   2.065   1.140   5.607 -1.4223 -1.1426  2.0012
   57MOL   H41735249   2.267   1.323   5.500 -1.3836  0.1717  0.2267
   57MOL   H41835250   2.124   1.265   5.441  0.3217  1.0955 -3.4505
   57MOL   H41935251   2.400   1.213   5.313  0.1324  0.7800 -0.7902
   57MOL   H42035252   2.270   1.330   5.269  0.1383 -0.9783 -1.2238
   57MOL   H42135253   2.273   1.021   5.242  1.3036 -0.6569 -0.6224
   57MOL   H42235254   2.130   1.128   5.209 -0.1795 -3.3096 -0.2637
   57MOL   H42335255   2.259   1.250   5.054 -2.2936 -0.9578 -1.4013
   57MOL   H42435256   2.395   1.149   5.078 -0.3072  0.4636  2.9218
   57MOL   H42535257   2.237   0.957   4.966 -2.2960  0.4106 -0.3276
   57MOL   H42635258   2.118   1.095   4.944  0.3465  0.9106 -0.7378
   57MOL   H42735259   2.400   1.079   4.843 -0.2177  0.1889 -1.8559
   57MOL   H42835260   2.289   1.214   4.809 -1.5055 -0.5687  0.3193
   57MOL   H42935261   2.255   0.920   4.725  2.1365  0.9265  1.9985
   57MOL   H43035262   2.118   1.034   4.727 -0.4485 -0.7809 -0.6230
   57MOL   H43135263   2.219   0.996   4.503 -1.7533 -0.0883  1.3193
   57MOL   H43235264   2.357   1.084   4.563  0.2517 -2.9777 -1.4825
   57MOL   H43335265   2.200   1.163   4.551  1.7202  1.1471 -0.0671
   57MOL   H43435266   2.296   1.133   5.795  0.2411 -0.8000 -0.7844
   57MOL   H43535267   2.270   1.277   5.718  1.1552 -0.1047  0.9816
   57MOL   C43635268   2.115   1.261   5.856 -0.4793 -0.0721 -0.1796
   57MOL   O43735269   2.048   1.361   5.777 -0.5565  0.2203 -0.1884
   57MOL   C43835270   1.908   1.371   5.814 -0.6462  0.5288  0.0248
   57MOL   C43935271   1.838   1.473   5.725 -0.6291 -1.0415  0.3647
   57MOL   C44035272   1.695   1.506   5.782  1.0323  0.6640 -0.1579
   57MOL   C44135273   1.629   1.627   5.711  0.3612 -0.1103 -0.5343
   57MOL   C44235274   1.683   1.759   5.776  1.0439 -0.0391  0.3432
   57MOL   C44335275   1.621   1.795   5.918  0.1705  0.3557  0.4509
   57MOL   C44435276   1.653   1.944   5.953 -0.5980  0.4657  0.4504
   57MOL   C44535277   1.562   1.993   6.067  0.6569 -0.6904 -0.4957
   57MOL   C44635278   2.191   1.331   5.969 -0.0732 -0.4315  0.1672
   57MOL   H44735279   2.046   1.182   5.886 -1.7434  1.1341  0.1717
   57MOL   H44835280   1.862   1.273   5.800 -0.2892  0.2307  0.9095
   57MOL   H44935281   1.909   1.405   5.918 -0.8908  0.7100 -0.0295
   57MOL   H45035282   1.840   1.443   5.620  0.5767 -1.0142  0.3806
   57MOL   H45135283   1.901   1.562   5.724  1.6995 -2.6721  0.4859
   57MOL   H45235284   1.630   1.418   5.783  2.7958 -0.6904  1.4972
   57MOL   H45335285   1.715   1.521   5.888  1.5235  1.0562 -0.3034
   57MOL   H45435286   1.652   1.631   5.605 -0.3791 -1.6279 -0.7686
   57MOL   H45535287   1.521   1.625   5.722  0.5134  0.4514  1.3114
   57MOL   H45635288   1.791   1.749   5.769  0.7441 -1.8100 -2.5581
   57MOL   H45735289   1.667   1.843   5.709 -0.7880  0.7625  1.7163
   57MOL   H45835290   1.659   1.719   5.986  1.8345 -0.5725 -1.4737
   57MOL   H45935291   1.513   1.786   5.919  0.0669  1.5242  0.5963
   57MOL   H46035292   1.761   1.949   5.971 -0.6974 -1.0486  1.6130
   57MOL   H46135293   1.636   2.002   5.862  1.7095 -0.0061 -0.3125
   57MOL   H46235294   1.589   2.099   6.077 -1.9351 -0.1301  0.8214
   57MOL   H46335295   1.571   1.938   6.160  1.7425  0.0517 -0.1407
   57MOL   H46435296   1.457   1.990   6.041  0.3108 -1.4541  0.9560
   57MOL   H46535297   2.270   1.384   5.916  1.3264 -4.2975 -1.8194
   57MOL   H46635298   2.125   1.401   6.020 -1.6036 -1.2825 -0.6143
   57MOL   C46735299   2.264   1.243   6.070  0.5565  0.1656 -0.0021
   57MOL   O46835300   2.163   1.173   6.144 -0.2835 -0.2193  0.5039
   57MOL   C46935301   2.190   1.034   6.166  0.1881  0.2923  0.4293
   57MOL   C47035302   2.217   1.016   6.320 -0.5634 -0.7078 -0.2971
   57MOL   C47135303   2.244   0.875   6.362 -0.1365 -0.2778  0.5637
   57MOL   C47235304   2.300   0.865   6.506  0.2255 -0.1683  0.8350
   57MOL   C47335305   2.444   0.899   6.528  0.0021 -0.3418  0.1954
   57MOL   C47435306   2.497   0.847   6.663  0.5228 -0.4190 -0.4444
   57MOL   C47535307   2.639   0.897   6.703  0.3251  0.3121  0.1538
   57MOL   C47635308   2.658   1.048   6.748 -0.2820  0.3669 -0.4567
   57MOL   C47735309   2.342   1.333   6.167  0.3985  0.0742  0.6211
   57MOL   H47835310   2.337   1.176   6.025  0.6036  1.3031 -1.6707
   57MOL   H47935311   2.279   0.999   6.112 -0.3360 -0.5370  0.0814
   57MOL   H48035312   2.106   0.976   6.129  0.2532  0.9172 -0.7399
   57MOL   H48135313   2.138   1.055   6.384  0.1341 -0.3325  0.3326
   57MOL   H48235314   2.310   1.065   6.348 -1.4669  1.2430 -0.6469
   57MOL   H48335315   2.156   0.813   6.342  0.8031 -0.5882 -2.8727
   57MOL   H48435316   2.326   0.838   6.301 -0.2014  0.2315  0.1680
   57MOL   H48535317   2.236   0.909   6.581  1.3428  1.4176  0.8762
   57MOL   H48635318   2.284   0.760   6.533  0.1295 -0.1463  0.8628
   57MOL   H48735319   2.511   0.871   6.447 -0.3375  0.5625 -0.4041
   57MOL   H48835320   2.464   1.006   6.531  1.5645 -0.6434  1.7766
   57MOL   H48935321   2.492   0.738   6.662 -2.4870 -0.3653  1.6753
   57MOL   H49035322   2.420   0.883   6.731  1.1036  1.1323 -0.5937
   57MOL   H49135323   2.689   0.837   6.779  0.6704  2.2995  1.5105
   57MOL   H49235324   2.703   0.875   6.616  0.0726 -2.7292  0.6871
   57MOL   H49335325   2.608   1.110   6.673  1.8654  1.3302 -1.1389
   57MOL   H49435326   2.761   1.082   6.751 -0.8141  1.8960  3.6886
   57MOL   H49535327   2.617   1.069   6.846 -0.0203  0.2066 -0.3120
   57MOL   H49635328   2.278   1.418   6.190  2.1556  1.9365 -1.2256
   57MOL   H49735329   2.357   1.286   6.264 -0.1332  0.2137  0.7720
   57MOL   C49835330   2.479   1.390   6.121 -0.1978 -0.1616  0.2051
   57MOL   O49935331   2.590   1.332   6.177 -0.2058 -0.7651 -0.3084
   57MOL   C50035332   2.612   1.198   6.130 -0.6216  0.3059 -0.4639
   57MOL   C50135333   2.750   1.152   6.178 -0.0965 -0.0532 -0.2143
   57MOL   C50235334   2.754   1.102   6.325  0.0246 -0.1630 -0.0902
   57MOL   C50335335   2.898   1.058   6.372  0.2745  0.6432 -1.2623
   57MOL   C50435336   2.975   0.955   6.292 -0.5829  0.2852  0.3021
   57MOL   C50535337   2.909   0.815   6.285  0.4472 -0.2623  0.5526
   57MOL   C50635338   3.019   0.728   6.221  0.4702 -0.2270 -0.4122
   57MOL   C50735339   2.993   0.587   6.235 -0.1861  0.3231 -0.6514
   57MOL   C50835340   2.495   1.544   6.137  0.0151 -0.2441 -0.1960
   57MOL   H50935341   2.465   1.370   6.014 -1.9666  1.4481  0.1232
   57MOL   H51035342   2.620   1.191   6.022  2.4760  1.8491 -0.3912
   57MOL   H51135343   2.533   1.129   6.158 -0.7308 -0.0842 -1.6887
   57MOL   H51235344   2.821   1.231   6.156  1.1156 -0.8177  0.8867
   57MOL   H51335345   2.788   1.073   6.113  3.3378  0.1153  1.4817
   57MOL   H51435346   2.702   1.173   6.389  0.4037 -1.4921  1.7453
   57MOL   H51535347   2.690   1.014   6.326 -2.8596  1.8889  0.4732
   57MOL   H51635348   2.967   1.142   6.371  0.3333  0.6582  0.9126
   57MOL   H51735349   2.905   1.036   6.479  2.3786 -0.2173 -1.5487
   57MOL   H51835350   2.988   0.994   6.191  1.5311  1.4671  1.0027
   57MOL   H51935351   3.078   0.942   6.325  0.7554 -0.1052 -3.7063
   57MOL   H52035352   2.818   0.820   6.226  0.3306  1.0005  0.8136
   57MOL   H52135353   2.894   0.781   6.387  1.2940 -1.8783  0.1677
   57MOL   H52235354   3.019   0.762   6.117  2.4745 -3.0700 -1.4236
   57MOL   H52335355   3.116   0.751   6.266  0.1564  0.8588 -0.2996
   57MOL   H52435356   2.891   0.565   6.204 -0.7945 -1.4481  2.4475
   57MOL   H52535357   3.004   0.555   6.338 -2.4200  3.2787  0.6045
   57MOL   H52635358   3.062   0.537   6.168 -1.0838  1.1596 -2.2290
   57MOL   H52735359   2.408   1.599   6.101  0.6052  0.1772 -0.9985
   57MOL   H52835360   2.506   1.553   6.245 -1.7751  0.0294 -0.0225
   57MOL   C52935361   2.616   1.595   6.058  0.0828 -0.7410  0.1046
   57MOL   O53035362   2.671   1.703   6.139 -0.0041 -0.1920  0.0522
   57MOL   C53135363   2.764   1.673   6.248 -0.0954  0.0372 -1.0222
   57MOL   C53235364   2.739   1.775   6.362 -0.4455  0.1628 -0.1630
   57MOL   C53335365   2.590   1.793   6.401 -0.1570 -0.0060 -0.6143
   57MOL   C53435366   2.558   1.918   6.487 -0.8910  0.3182  0.3259
   57MOL   C53535367   2.405   1.935   6.501  0.0852 -0.2869  0.3427
   57MOL   C53635368   2.331   1.809   6.541 -0.2556  0.4373  0.5924
   57MOL   C53735369   2.182   1.832   6.556 -0.5198 -0.0372 -0.6984
   57MOL   C53835370   2.095   1.783   6.435 -0.6793  0.0980 -0.0837
   57MOL   C53935371   2.585   1.661   5.922 -0.0640 -0.3278 -0.1698
   57MOL   H54035372   2.686   1.514   6.036 -0.4211 -0.6941 -1.7960
   57MOL   H54135373   2.743   1.575   6.293 -3.3119  1.3728  0.5553
   57MOL   H54235374   2.866   1.670   6.209  0.4789 -0.3092  0.4661
   57MOL   H54335375   2.781   1.874   6.340 -1.1877  0.6190  0.4494
   57MOL   H54435376   2.784   1.749   6.458 -2.3410 -1.2282  0.3697
   57MOL   H54535377   2.538   1.812   6.308  1.8291  2.7527 -1.2294
   57MOL   H54635378   2.547   1.703   6.445 -0.9631 -0.1231 -1.6260
   57MOL   H54735379   2.595   1.907   6.588 -3.0629  1.0486  1.2452
   57MOL   H54835380   2.596   2.007   6.437 -1.0831  0.0275 -0.3484
   57MOL   H54935381   2.385   2.011   6.576  2.4480 -0.0527  0.7759
   57MOL   H55035382   2.365   1.983   6.411  0.4530  1.5501  1.1385
   57MOL   H55135383   2.375   1.770   6.633 -0.8130 -1.6552 -0.0028
   57MOL   H55235384   2.340   1.731   6.465 -1.0320  1.8367 -0.9751
   57MOL   H55335385   2.141   1.781   6.643 -1.5823 -0.5746 -1.4974
   57MOL   H55435386   2.155   1.936   6.574  0.0496  0.0907 -0.5843
   57MOL   H55535387   2.120   1.823   6.337 -1.6389 -0.7930 -0.6981
   57MOL   H55635388   1.992   1.814   6.453 -0.9024 -1.6182  1.8020
   57MOL   H55735389   2.090   1.675   6.431  0.7641 -0.0099  0.7836
   57MOL   H55835390   2.537   1.753   5.955 -1.5763 -0.7371 -1.2100
   57MOL   H55935391   2.687   1.679   5.888 -0.1132  0.1978 -0.0471
   57MOL   C56035392   2.494   1.592   5.815  0.4896 -0.2912 -0.0830
   57MOL   O56135393   2.544   1.459   5.802 -0.0268 -0.0184  0.3107
   57MOL   C56235394   2.654   1.441   5.720 -0.1952 -0.0080  0.2155
   57MOL   C56335395   2.689   1.289   5.723  0.1922  0.5637  0.5152
   57MOL   C56435396   2.573   1.214   5.643 -0.2148  0.1382 -0.5921
   57MOL   C56535397   2.584   1.060   5.667  0.1658  0.0719  0.4729
   57MOL   C56635398   2.562   1.006   5.815  0.6317 -0.7395 -0.4968
   57MOL   C56735399   2.534   0.860   5.820 -0.3756  0.5045  0.1403
   57MOL   C56835400   2.505   0.794   5.951 -0.2499  0.2980  0.7401
   57MOL   C56935401   2.626   0.793   6.044 -0.3954  0.4978  0.4406
   57MOL   C57035402   2.464   1.675   5.692  0.8952  0.6784 -0.0866
   57MOL   H57135403   2.392   1.586   5.854  1.3252  0.8179  2.4250
   57MOL   H57235404   2.735   1.503   5.759  0.2738 -0.4163 -0.1123
   57MOL   H57335405   2.635   1.475   5.619 -1.3079 -3.0819 -0.6566
   57MOL   H57435406   2.695   1.259   5.828 -1.0968 -0.4754  0.2984
   57MOL   H57535407   2.780   1.264   5.668 -2.0525 -0.1985 -3.0390
   57MOL   H57635408   2.471   1.246   5.662 -0.0522  1.3362 -1.6152
   57MOL   H57735409   2.578   1.232   5.535 -0.0528  1.2303 -0.4080
   57MOL   H57835410   2.516   1.013   5.596  0.2462 -0.7884  0.9676
   57MOL   H57935411   2.687   1.029   5.647 -0.2534  0.1527 -1.9582
   57MOL   H58035412   2.644   1.019   5.885  2.7116 -3.5935 -2.3085
   57MOL   H58135413   2.475   1.058   5.857  0.2597 -1.6921 -0.0512
   57MOL   H58235414   2.591   0.800   5.749 -1.9593  1.4815 -2.0340
   57MOL   H58335415   2.444   0.856   5.757 -0.7586 -2.3565  0.7649
   57MOL   H58435416   2.428   0.848   6.008  0.7385 -0.9265  3.2953
   57MOL   H58535417   2.471   0.692   5.936 -1.9436  0.4375  3.3220
   57MOL   H58635418   2.704   0.728   6.005 -0.2755  0.7216  0.3037
   57MOL   H58735419   2.608   0.750   6.143 -1.0758  1.2473  0.6514
   57MOL   H58835420   2.688   0.883   6.053  1.2668 -0.4240 -1.3251
   57MOL   H58935421   2.439   1.778   5.719 -1.2937  1.4509 -4.5913
   57MOL   H59035422   2.561   1.683   5.643  0.3626  0.7770 -1.1360
   57MOL   C59135423   2.352   1.615   5.597 -0.6664  0.2106  0.6654
   57MOL   O59235424   2.355   1.689   5.476 -0.8588 -0.0751  0.4745
   57MOL   C59335425   2.457   1.657   5.381  0.1653 -0.3060 -0.1157
   57MOL   C59435426   2.438   1.753   5.265  0.1985 -0.1445  0.3713
   57MOL   C59535427   2.302   1.735   5.178 -0.0606 -0.5075  0.1826
   57MOL   C59635428   2.296   1.791   5.034  0.1065  0.0743  0.3207
   57MOL   C59735429   2.152   1.784   4.972  0.0472  0.5165  0.1559
   57MOL   C59835430   2.098   1.648   4.948  0.5633  0.2822  0.7377
   57MOL   C59935431   2.175   1.556   4.847  0.8763 -0.0186 -0.5017
   57MOL   C60035432   2.106   1.425   4.828 -0.3698  0.4976  0.1012
   57MOL   C60135433   2.209   1.636   5.655  0.0602 -0.0152  0.0769
   57MOL   H60235434   2.365   1.508   5.588  1.5633  0.4216  1.0137
   57MOL   H60335435   2.457   1.553   5.348 -1.5492 -0.0477 -1.0122
   57MOL   H60435436   2.553   1.666   5.432  0.7422  0.3844 -1.3148
   57MOL   H60535437   2.519   1.742   5.192 -1.3494 -0.4045 -1.3606
   57MOL   H60635438   2.455   1.856   5.299 -0.0928  0.2553 -0.6647
   57MOL   H60735439   2.279   1.628   5.179 -2.4827 -0.0191 -0.0242
   57MOL   H60835440   2.229   1.788   5.239 -0.4314 -0.2550 -0.4756
   57MOL   H60935441   2.322   1.896   5.042  0.1399  0.1013 -0.1694
   57MOL   H61035442   2.374   1.739   4.979 -0.0015  0.7270 -0.4597
   57MOL   H61135443   2.090   1.828   5.050 -1.4727  0.5198 -1.0362
   57MOL   H61235444   2.149   1.851   4.886 -0.2996  1.3149  0.7820
   57MOL   H61335445   1.991   1.656   4.928  1.0020 -1.8375 -2.8602
   57MOL   H61435446   2.103   1.594   5.042  1.8674 -2.8371 -1.0724
   57MOL   H61535447   2.169   1.617   4.757 -2.4991 -0.5651 -0.7034
   57MOL   H61635448   2.278   1.540   4.880  0.1898 -2.3949  0.5067
   57MOL   H61735449   2.125   1.360   4.913 -0.9565 -2.2641 -1.7968
   57MOL   H61835450   2.146   1.372   4.741 -0.7506 -1.4480  1.0956
   57MOL   H61935451   1.997   1.432   4.821 -0.3870  1.1612  0.9478
   57MOL   H62035452   2.132   1.594   5.590  0.1916  0.0676 -0.1326
   57MOL   H62135453   2.200   1.597   5.756  0.0380 -1.3449 -0.4335
   57MOL   H62235454   2.188   1.740   5.680 -1.8150 -0.5547  0.8271
   58MOL     C135455   3.572   4.304   7.469 -0.2338  0.4786 -0.3752
   58MOL     O235456   3.692   4.376   7.430 -0.2924  0.2117 -0.7003
   58MOL     C335457   3.714   4.478   7.526 -0.0714  0.0959  0.2408
   58MOL     C435458   3.831   4.572   7.504  0.4068 -0.6058  1.0059
   58MOL     C535459   3.820   4.658   7.371  0.1124 -0.7928  0.4593
   58MOL     C635460   3.946   4.731   7.325 -0.0509  0.5035 -0.2673
   58MOL     C735461   4.000   4.844   7.411 -0.7401 -0.1662 -0.3778
   58MOL     C835462   3.925   4.976   7.419  0.2795  0.0330  0.2748
   58MOL     C935463   3.975   5.074   7.521  0.2538  0.1866 -0.4627
   58MOL    C1035464   4.101   5.159   7.469  0.6833 -0.7562  0.8333
   58MOL    C1135465   3.562   4.176   7.388 -0.2500 -0.6542 -0.0563
   58MOL    H1235466   3.575   4.282   7.576  3.4720  1.3757 -0.2118
   58MOL    H1335467   3.733   4.418   7.615  0.2110 -0.7617 -0.3875
   58MOL    H1435468   3.622   4.529   7.554 -0.9066 -0.0050 -2.2476
   58MOL    H1535469   3.919   4.507   7.506  1.0704  0.2454  0.1816
   58MOL    H1635470   3.833   4.641   7.589 -1.4135  1.6461 -0.7170
   58MOL    H1735471   3.793   4.591   7.290 -2.9016  1.2197 -0.2790
   58MOL    H1835472   3.733   4.723   7.377 -0.7876 -2.1351  2.3666
   58MOL    H1935473   4.027   4.658   7.326  0.3499  0.9278 -1.2832
   58MOL    H2035474   3.912   4.773   7.231 -1.6181  2.2884  1.0593
   58MOL    H2135475   3.991   4.801   7.511 -0.9623 -3.0154 -1.5564
   58MOL    H2235476   4.106   4.861   7.389 -0.6542  0.3739  0.4420
   58MOL    H2335477   3.823   4.949   7.447 -0.5806 -1.3504 -3.8876
   58MOL    H2435478   3.918   5.023   7.321 -0.7181  0.7658  0.6873
   58MOL    H2535479   3.891   5.137   7.550  0.6580  0.3548  0.3651
   58MOL    H2635480   3.994   5.020   7.614  2.5609  3.1523  0.8585
   58MOL    H2735481   4.134   5.231   7.544  3.4551 -0.4331 -0.6047
   58MOL    H2835482   4.073   5.203   7.373  1.7810 -1.1926  0.3023
   58MOL    H2935483   4.189   5.097   7.451 -0.6775 -2.1849 -1.1076
   58MOL    H3035484   3.657   4.131   7.416  0.7607  1.4804  0.0396
   58MOL    H3135485   3.477   4.112   7.415 -0.8056 -0.4904 -1.3886
   58MOL    H3235486   3.489   4.375   7.461 -0.3363  0.7133  2.1545
   58MOL    C3335487   3.553   4.198   7.242 -0.8757 -0.1568  0.2485
   58MOL    O3435488   3.422   4.258   7.217 -0.7234  0.1491 -0.3262
   58MOL    C3535489   3.420   4.362   7.115 -0.0749  0.0859 -0.3633
   58MOL    C3635490   3.294   4.444   7.132 -0.1696  0.8490  0.1707
   58MOL    C3735491   3.275   4.504   7.270  0.2980  0.1683 -0.4793
   58MOL    C3835492   3.139   4.578   7.286 -0.2404 -0.2686  0.4646
   58MOL    C3935493   3.127   4.639   7.429 -0.1486 -0.2114  0.3135
   58MOL    C4035494   2.996   4.725   7.452 -0.6614 -0.2716  0.2499
   58MOL    C4135495   2.966   4.768   7.591  0.6516  0.2305 -0.1494
   58MOL    C4235496   2.834   4.856   7.591  0.4853 -0.3815  0.2343
   58MOL    C4335497   3.569   4.068   7.159 -0.0806  0.1607 -0.2228
   58MOL    H4435498   3.636   4.266   7.225  1.6650 -2.8085  1.6351
   58MOL    H4535499   3.419   4.317   7.016 -3.5165 -2.6548  0.8294
   58MOL    H4635500   3.506   4.428   7.121  0.2444 -0.5797  3.1381
   58MOL    H4735501   3.207   4.385   7.102 -0.3342 -1.1585  4.2120
   58MOL    H4835502   3.289   4.525   7.059 -0.6397  0.3152 -0.3978
   58MOL    H4935503   3.260   4.427   7.345  1.3695 -1.8999 -2.3143
   58MOL    H5035504   3.357   4.567   7.305  0.8544 -1.9497  2.2165
   58MOL    H5135505   3.126   4.650   7.205 -0.1061 -2.1079 -1.2574
   58MOL    H5235506   3.060   4.504   7.271 -0.8929  0.6229 -0.5449
   58MOL    H5335507   3.143   4.563   7.506  1.0512 -1.0941 -0.7914
   58MOL    H5435508   3.211   4.706   7.446 -0.4191  0.1317  0.2988
   58MOL    H5535509   2.898   4.693   7.414 -1.2069 -2.3971  3.3049
   58MOL    H5635510   3.005   4.819   7.398  1.1783 -1.3388 -1.3479
   58MOL    H5735511   2.974   4.679   7.654 -0.6397  0.3531  0.1881
   58MOL    H5835512   3.052   4.816   7.638 -1.0033 -0.5936  3.9295
   58MOL    H5935513   2.813   4.906   7.685  0.5091  0.3847 -0.1552
   58MOL    H6035514   2.747   4.795   7.570  0.3317 -0.6143  1.5538
   58MOL    H6135515   2.841   4.933   7.513  2.8962 -0.8798 -0.0999
   58MOL    H6235516   3.485   4.003   7.185 -0.0767  0.0310 -0.5275
   58MOL    H6335517   3.556   4.097   7.054  1.8344 -0.0515 -0.5361
   58MOL    C6435518   3.707   3.999   7.159  0.1081 -0.4027  0.6108
   58MOL    O6535519   3.791   4.093   7.093 -0.0247 -0.2349 -0.5409
   58MOL    C6635520   3.914   4.115   7.161  0.0676 -0.0439  0.2023
   58MOL    C6735521   4.008   4.199   7.076 -0.3736 -0.4557  0.6248
   58MOL    C6835522   4.033   4.137   6.935 -0.0635 -0.8851 -0.3910
   58MOL    C6935523   4.128   4.216   6.839  0.1108 -0.3978 -0.4529
   58MOL    C7035524   4.152   4.132   6.705  0.1444  0.3951 -1.0777
   58MOL    C7135525   4.223   4.209   6.600 -0.0275 -0.8546  0.0890
   58MOL    C7235526   4.139   4.327   6.538  0.7163 -0.3472  0.8703
   58MOL    C7335527   4.200   4.423   6.437 -0.1452  0.4090 -0.0341
   58MOL    C7435528   3.716   3.870   7.081 -0.3397 -0.1502 -0.2682
   58MOL    H7535529   3.747   3.985   7.259  1.5519  2.3429  0.4732
   58MOL    H7635530   3.963   4.026   7.200  0.7325 -0.8367 -2.3480
   58MOL    H7735531   3.881   4.176   7.245  1.5490  2.4651 -0.9885
   58MOL    H7835532   4.107   4.187   7.120 -0.2523 -2.1133 -0.0585
   58MOL    H7935533   3.983   4.305   7.072 -1.6577 -0.8318 -4.1783
   58MOL    H8035534   4.076   4.038   6.947 -0.3587 -1.0181 -0.4159
   58MOL    H8135535   3.940   4.114   6.883 -1.4110  0.7298  1.2195
   58MOL    H8235536   4.094   4.316   6.815  1.3429  0.4652  1.2423
   58MOL    H8335537   4.220   4.238   6.894  1.0135  2.5984 -3.0314
   58MOL    H8435538   4.209   4.043   6.732 -1.0390  0.3273  1.3374
   58MOL    H8535539   4.051   4.099   6.683  0.2150 -0.0533 -0.7478
   58MOL    H8635540   4.246   4.141   6.517  2.2680  0.8098 -0.6820
   58MOL    H8735541   4.320   4.238   6.639  0.1050  1.3374 -1.7530
   58MOL    H8835542   4.036   4.306   6.509  0.3714  0.8003  1.2414
   58MOL    H8935543   4.116   4.397   6.619 -0.8423  1.2265 -0.8772
   58MOL    H9035544   4.301   4.456   6.462 -0.2611  0.6272  0.1432
   58MOL    H9135545   4.134   4.506   6.458 -2.4815 -1.8481  1.7627
   58MOL    H9235546   4.196   4.384   6.335  1.1004  0.4384 -0.1034
   58MOL    H9335547   3.705   3.891   6.974  0.9218  1.8821 -0.0324
   58MOL    H9435548   3.819   3.835   7.079 -0.6117 -0.8990 -3.0111
   58MOL    C9535549   3.631   3.756   7.121  0.2334  0.3990  0.0433
   58MOL    O9635550   3.695   3.728   7.239  0.1896  0.7683  0.0709
   58MOL    C9735551   3.636   3.653   7.336  0.1601  0.4564 -0.0165
   58MOL    C9835552   3.547   3.735   7.431 -0.2525  0.0361 -0.1758
   58MOL    C9935553   3.503   3.656   7.552  0.4192  0.3325  0.2207
   58MOL   C10035554   3.405   3.722   7.641 -0.0743  0.4009  0.3765
   58MOL   C10135555   3.350   3.638   7.762 -0.4816 -0.0614  0.3834
   58MOL   C10235556   3.454   3.599   0.096 -0.2172  0.2875 -0.1385
   58MOL   C10335557   3.508   3.721   0.175  0.9573 -0.2566 -0.1019
   58MOL   C10435558   3.639   3.687   0.246  0.2043  0.5842  0.2838
   58MOL   C10535559   3.633   3.634   7.029  0.3437 -0.2182  0.0755
   58MOL   H10635560   3.531   3.783   7.153 -0.5827 -0.8205 -1.4451
   58MOL   H10735561   3.719   3.603   7.385  0.5333  1.0397 -0.0476
   58MOL   H10835562   3.575   3.572   7.297 -0.0291  0.5520  0.0799
   58MOL   H10935563   3.461   3.766   7.371 -1.9765 -1.5574  1.4065
   58MOL   H11035564   3.603   3.822   7.464  3.0295 -0.9530 -2.8359
   58MOL   H11135565   3.449   3.567   7.523 -0.0571  0.5031  0.5829
   58MOL   H11235566   3.586   3.611   7.607 -1.6343  0.3244  3.4881
   58MOL   H11335567   3.457   3.801   7.697 -0.3216 -0.1432  1.3917
   58MOL   H11435568   3.322   3.759   7.581  1.3537 -0.6132 -2.3019
   58MOL   H11535569   3.275   3.700   0.036  0.7661  1.8348 -0.0318
   58MOL   H11635570   3.296   3.547   7.738 -2.8121  1.2603  0.4588
   58MOL   H11735571   3.540   3.550   0.052  0.3968 -0.4807  1.8454
   58MOL   H11835572   3.416   3.521   0.162 -2.4000  1.8711  0.5203
   58MOL   H11935573   3.523   3.819   0.130  2.4221 -0.8480 -0.9754
   58MOL   H12035574   3.437   3.751   0.252 -2.1380  0.5751 -3.1514
   58MOL   H12135575   3.662   3.763   0.320 -0.7483 -0.3474  1.5649
   58MOL   H12235576   3.721   3.694   0.175  0.2294  0.1561  0.2709
   58MOL   H12335577   3.646   3.590   0.295  1.7132  1.0929  1.0901
   58MOL   H12435578   3.734   3.593   7.035 -0.3308 -1.6582  1.9439
   58MOL   H12535579   3.563   3.566   7.076  0.0917  1.5756  2.3703
   58MOL   C12635580   3.586   3.646   6.882  0.1593  0.0635  0.4273
   58MOL   O12735581   3.689   3.722   6.820 -0.7327 -0.7945  1.1378
   58MOL   C12835582   3.802   3.637   6.776 -0.4170  0.0690  0.4277
   58MOL   C12935583   3.910   3.713   6.696 -0.1292  0.8383 -0.0319
   58MOL   C13035584   4.040   3.630   6.693 -0.4785  0.0705  0.4571
   58MOL   C13135585   4.159   3.700   6.629 -0.6614  0.3895 -0.2248
   58MOL   C13235586   4.283   3.610   6.603 -0.3953 -0.5567  0.2894
   58MOL   C13335587   4.357   3.558   6.728  0.3132  0.0146  0.0892
   58MOL   C13435588   4.501   3.506   6.704  0.2637 -0.7103  0.0450
   58MOL   C13535589   4.504   3.385   6.608  0.1895  0.3483  0.4998
   58MOL   C13635590   3.459   3.733   6.876  0.4001  0.0691 -0.6971
   58MOL   H13735591   3.572   3.548   6.838 -0.5372 -0.5766  2.0509
   58MOL   H13835592   3.764   3.562   6.707 -0.3390  1.9779 -1.7612
   58MOL   H13935593   3.849   3.589   6.862  3.6240  2.5987 -0.2355
   58MOL   H14035594   3.915   3.812   6.742  0.0758  1.0529 -0.5024
   58MOL   H14135595   3.869   3.727   6.596  0.9606  0.1526 -0.5775
   58MOL   H14235596   4.057   3.603   6.797 -1.4809 -0.9720  0.3607
   58MOL   H14335597   4.015   3.537   6.641 -1.1407 -0.5153  1.7935
   58MOL   H14435598   4.124   3.758   6.544 -1.7096 -0.6530 -0.5205
   58MOL   H14535599   4.199   3.772   6.700  2.7745 -2.4504  0.8845
   58MOL   H14635600   4.258   3.526   6.539 -1.2874 -0.1082  0.0507
   58MOL   H14735601   4.337   3.681   6.541 -2.2732  0.6204 -0.0389
   58MOL   H14835602   4.293   3.480   6.771 -1.0022  0.4319 -1.0543
   58MOL   H14935603   4.357   3.636   6.803  0.8961  1.5813 -1.5198
   58MOL   H15035604   4.556   3.576   6.641  0.8626 -2.0003 -0.8928
   58MOL   H15135605   4.569   3.503   6.789 -1.8439  2.1292  1.9382
   58MOL   H15235606   4.451   3.310   6.667  1.2553 -0.5317  0.3648
   58MOL   H15335607   4.602   3.341   6.588  0.0640  0.1151  0.3935
   58MOL   H15435608   4.446   3.399   6.518 -1.3878  1.4653  1.6789
   58MOL   H15535609   3.376   3.689   6.931  0.2520  0.9350 -0.2177
   58MOL   H15635610   3.469   3.828   6.929 -1.1427 -0.3172  0.3133
   58MOL   C15735611   3.387   3.763   6.745 -0.3945 -0.6002  0.6225
   58MOL   O15835612   3.273   3.847   6.753  0.2033  0.3764 -0.2077
   58MOL   C15935613   3.301   3.982   6.787 -0.4225 -0.5484 -0.1167
   58MOL   C16035614   3.166   4.051   6.766  0.4202  0.3649 -0.5946
   58MOL   C16135615   3.175   4.201   6.801  0.1091  0.4222  0.2844
   58MOL   C16235616   3.038   4.277   6.822  0.1633 -0.1323 -0.8394
   58MOL   C16335617   3.070   4.435   6.834 -0.0547 -0.1737  0.0764
   58MOL   C16435618   2.963   4.511   6.915  0.1383  0.9544  0.1558
   58MOL   C16535619   2.976   4.659   6.891 -0.6579 -0.1079 -0.6334
   58MOL   C16635620   2.872   4.746   6.954 -0.6201  0.0630 -0.0214
   58MOL   C16735621   3.362   3.634   6.667  0.5204  0.0782  0.7685
   58MOL   H16835622   3.461   3.822   6.690  0.4532  0.1185  2.5018
   58MOL   H16935623   3.385   4.021   6.731 -0.1088  0.3505  0.9545
   58MOL   H17035624   3.334   3.991   6.890  0.3166 -3.2980 -0.0681
   58MOL   H17135625   3.093   4.003   6.831  0.1909 -0.6182 -1.5762
   58MOL   H17235626   3.144   4.039   6.660  2.1295 -1.3785 -0.7860
   58MOL   H17335627   3.233   4.215   6.892  0.6559  0.9032 -0.1301
   58MOL   H17435628   3.229   4.252   6.720  2.2959 -1.5000  0.4828
   58MOL   H17535629   2.972   4.252   6.738 -2.3623 -1.1726  1.3847
   58MOL   H17635630   2.996   4.242   6.916 -1.8207  1.7217 -1.0065
   58MOL   H17735631   3.172   4.465   6.862  0.3909  0.3937 -2.0854
   58MOL   H17835632   3.082   4.476   6.734 -0.1959 -0.2201  0.0413
   58MOL   H17935633   2.987   4.494   7.020  0.4254 -1.6078 -0.2958
   58MOL   H18035634   2.863   4.472   6.898 -0.9153  3.6822 -0.0412
   58MOL   H18135635   3.076   4.673   6.930 -0.6219 -1.2678 -0.2896
   58MOL   H18235636   2.994   4.674   6.785  0.9025  0.7823 -0.2582
   58MOL   H18335637   2.778   4.713   6.910 -0.0788  0.1052 -1.2609
   58MOL   H18435638   2.871   4.852   6.926 -1.1241 -0.3378 -1.6149
   58MOL   H18535639   2.863   4.734   7.062 -0.3604 -0.9506 -0.1052
   58MOL   H18635640   3.447   3.566   6.666  1.4818  1.2760  0.2115
   58MOL   H18735641   3.285   3.570   6.711  0.8622 -2.4314 -2.0660
   58MOL   C18835642   3.312   3.664   6.528  0.4053 -0.0793 -1.0003
   58MOL   O18935643   3.294   3.537   6.469 -0.1813 -0.3778  0.0248
   58MOL   C19035644   3.189   3.532   6.373 -0.8604 -0.4474 -0.5525
   58MOL   C19135645   3.219   3.403   6.294  0.1807  0.0496 -0.0440
   58MOL   C19235646   3.205   3.283   6.392 -0.0713 -0.4106 -0.3295
   58MOL   C19335647   3.201   3.151   6.320 -0.0736 -0.1031 -0.5568
   58MOL   C19435648   3.061   3.114   6.268  0.1862  0.2229 -0.5379
   58MOL   C19535649   3.074   2.983   6.189 -1.1019  0.2112  0.5690
   58MOL   C19635650   2.945   2.902   6.187 -0.9094  0.0680 -0.2164
   58MOL   C19735651   2.950   2.782   6.275 -0.2433 -0.2627 -0.7235
   58MOL   C19835652   3.413   3.737   6.442  0.0896 -0.3155  0.0326
   58MOL   H19935653   3.215   3.714   6.534  0.2011 -0.6616  0.8387
   58MOL   H20035654   3.094   3.524   6.426  0.5091 -1.7311  1.8305
   58MOL   H20135655   3.188   3.625   6.317 -0.0086 -0.7912 -1.1566
   58MOL   H20235656   3.319   3.405   6.252  0.8345 -3.1450  1.2533
   58MOL   H20335657   3.144   3.384   6.217  0.0983  2.8574 -0.7086
   58MOL   H20435658   3.301   3.289   6.444  0.5621  2.4617 -1.7791
   58MOL   H20535659   3.123   3.283   6.464  0.1021  0.2054 -0.1366
   58MOL   H20635660   3.281   3.156   6.246  1.5413 -0.2284  1.1112
   58MOL   H20735661   3.230   3.082   6.399 -1.5194 -0.3062 -0.1927
   58MOL   H20835662   2.993   3.107   6.354  0.8395  0.0773 -0.0296
   58MOL   H20935663   3.009   3.190   6.211  0.7134  1.2244  0.3092
   58MOL   H21035664   3.152   2.915   6.224 -0.2460  0.1440 -1.4521
   58MOL   H21135665   3.104   3.008   6.088  0.1563  0.9756  1.1166
   58MOL   H21235666   2.858   2.961   6.214 -1.2988 -0.6276  0.0619
   58MOL   H21335667   2.944   2.854   6.088 -1.0784  0.8300 -0.5840
   58MOL   H21435668   2.879   2.705   6.244  0.1928 -1.5926  1.4425
   58MOL   H21535669   2.927   2.804   6.380 -1.8808  1.6468 -1.4353
   58MOL   H21635670   3.047   2.733   6.269 -0.0300  0.5316 -4.3953
   58MOL   H21735671   3.514   3.729   6.483 -0.3032 -1.2909  0.8590
   58MOL   H21835672   3.425   3.692   6.344 -1.2357 -0.6067  0.0011
   58MOL   C21935673   3.382   3.892   6.418 -0.0731 -0.7672 -0.1982
   58MOL   O22035674   3.252   3.892   6.356 -0.5266 -0.3739 -0.2965
   58MOL   C22135675   3.197   4.021   6.359  0.6845 -0.4919  0.3755
   58MOL   C22235676   3.042   4.018   6.350 -0.7878 -0.0664 -0.2814
   58MOL   C22335677   3.006   3.957   6.216 -0.3858 -0.1695  0.7590
   58MOL   C22435678   2.854   3.945   6.183  0.0427 -0.3230  0.4513
   58MOL   C22535679   2.825   3.897   6.040  0.6232  0.3314  0.1231
   58MOL   C22635680   2.678   3.858   6.033 -0.1226  0.7324 -0.1879
   58MOL   C22735681   2.631   3.845   5.890 -0.0085 -0.1681  0.2701
   58MOL   C22835682   2.501   3.764   5.872  0.3898  0.1515 -0.3086
   58MOL   C22935683   3.479   3.972   6.331 -0.6947  0.4199  0.0737
   58MOL   H23035684   3.387   3.928   6.521  0.1928 -2.8528  0.5500
   58MOL   H23135685   3.227   4.074   6.268  0.7919 -0.9559  0.1410
   58MOL   H23235686   3.227   4.086   6.441 -0.1700 -1.6887  1.6450
   58MOL   H23335687   2.994   4.114   6.365 -0.9192 -0.3242  0.9366
   58MOL   H23435688   3.008   3.956   6.432  2.2118 -0.3561  0.8333
   58MOL   H23535689   3.052   4.013   6.135 -1.6164 -0.4798 -0.1799
   58MOL   H23635690   3.058   3.861   6.217  0.7709  0.4339 -0.4493
   58MOL   H23735691   2.804   3.894   6.266 -0.8766  0.6619  0.5154
   58MOL   H23835692   2.806   4.042   6.190 -0.4009 -0.6137  1.6612
   58MOL   H23935693   2.864   3.976   5.975  3.2196  0.9975  2.4106
   58MOL   H24035694   2.881   3.807   6.015 -0.5194 -0.6183  0.9616
   58MOL   H24135695   2.612   3.928   6.084 -0.4201 -0.3069  0.8881
   58MOL   H24235696   2.661   3.764   6.085  0.3650  0.1343 -1.0838
   58MOL   H24335697   2.607   3.943   5.850 -4.8780 -1.6851 -0.8849
   58MOL   H24435698   2.713   3.798   5.836  1.4007 -0.4264  2.5638
   58MOL   H24535699   2.424   3.804   5.938  0.7885  0.1142  0.1733
   58MOL   H24635700   2.508   3.660   5.902 -2.1108 -0.1622 -0.6966
   58MOL   H24735701   2.473   3.762   5.766  2.3549 -1.2798 -0.8411
   58MOL   H24835702   3.466   3.919   6.237 -2.6987  0.0459  0.5339
   58MOL   H24935703   3.448   4.075   6.315 -0.3354  0.4206 -0.6147
   58MOL   C25035704   3.623   3.980   6.393  0.0308 -0.3859 -0.1134
   58MOL   O25135705   3.614   4.059   6.509 -0.4063 -0.3141 -0.3190
   58MOL   C25235706   3.693   4.027   6.621  0.1190 -1.2216 -0.1294
   58MOL   C25335707   3.679   4.143   6.717 -0.5158 -0.1295 -0.1114
   58MOL   C25435708   3.758   4.268   6.683  0.6590  0.1623  0.3074
   58MOL   C25535709   3.713   4.394   6.750  0.5219  0.2949  0.2301
   58MOL   C25635710   3.809   4.521   6.734 -0.6280 -0.0036 -0.2161
   58MOL   C25735711   3.811   4.621   6.845  0.1149  0.1758  0.0280
   58MOL   C25835712   3.674   4.683   6.874 -0.8586  0.0839 -0.3511
   58MOL   C25935713   3.690   4.790   6.982 -0.2110  0.1300  0.1586
   58MOL   C26035714   3.707   4.041   6.285  0.0018  0.7240  0.5112
   58MOL   H26135715   3.663   3.880   6.407  0.6525  0.0614  1.3691
   58MOL   H26235716   3.796   4.004   6.592  0.0137  1.3140 -2.7198
   58MOL   H26335717   3.640   3.939   6.657  1.3370 -0.3522  4.0791
   58MOL   H26435718   3.695   4.123   6.823  1.6876 -0.3985 -0.4740
   58MOL   H26535719   3.575   4.174   6.714  0.0082  1.8328  0.6834
   58MOL   H26635720   3.863   4.247   6.705  0.8110 -1.8366 -2.0356
   58MOL   H26735721   3.750   4.279   6.575 -0.2707  0.0684  0.3611
   58MOL   H26835722   3.612   4.422   6.718 -0.0884 -0.1955  1.6923
   58MOL   H26935723   3.703   4.364   6.854 -1.5323 -0.0619 -0.0459
   58MOL   H27035724   3.914   4.500   6.713 -0.2435 -1.6882  3.1265
   58MOL   H27135725   3.776   4.568   6.641 -0.6909 -1.9169 -1.1746
   58MOL   H27235726   3.878   4.706   6.833 -0.1837  0.8052  2.5443
   58MOL   H27335727   3.854   4.580   6.937  1.7861  2.7061  0.4042
   58MOL   H27435728   3.637   4.726   6.781  3.1556  2.8035 -0.8353
   58MOL   H27535729   3.599   4.609   6.899 -0.4384  0.0924  0.9785
   58MOL   H27635730   3.763   4.867   6.956  0.8067 -1.3901 -1.6140
   58MOL   H27735731   3.730   4.743   7.072 -1.4958 -1.2771  0.0039
   58MOL   H27835732   3.595   4.835   7.010  0.8904  1.8349  1.2570
   58MOL   H27935733   3.688   3.988   6.192  2.3978 -0.0500  0.4282
   58MOL   H28035734   3.678   4.142   6.260  1.3659  0.5295 -1.9876
   58MOL   C28135735   3.857   4.062   6.312  0.0876 -0.2411  0.0923
   58MOL   O28235736   3.912   4.108   6.184 -0.1326  0.3197 -0.0379
   58MOL   C28335737   3.917   4.253   6.171 -0.3058  0.0535  0.6070
   58MOL   C28435738   3.986   4.282   6.045  0.0754 -0.4041 -0.6718
   58MOL   C28535739   3.915   4.230   5.913 -0.1142 -0.4134  0.3948
   58MOL   C28635740   3.954   4.301   5.783 -0.2371 -0.7572  0.5459
   58MOL   C28735741   3.888   4.440   5.771 -0.3923  0.0120  0.0907
   58MOL   C28835742   3.929   4.519   5.650 -0.6178 -0.4489  0.2030
   58MOL   C28935743   3.821   4.633   5.618 -0.6033 -0.1396 -0.3333
   58MOL   C29035744   3.870   4.713   5.493 -0.2937  0.1253 -0.4557
   58MOL   C29135745   3.932   3.935   6.346  0.6147 -0.0547 -0.2492
   58MOL   H29235746   3.861   4.144   6.384  3.1373 -0.2402 -0.0153
   58MOL   H29335747   3.972   4.297   6.254  1.1729 -0.4103 -0.1149
   58MOL   H29435748   3.818   4.298   6.169 -1.5434 -2.6463 -0.7331
   58MOL   H29535749   4.085   4.237   6.054  0.4023  0.6024  0.9187
   58MOL   H29635750   4.012   4.388   6.033 -0.4152 -0.3764 -1.5926
   58MOL   H29735751   3.936   4.123   5.900  0.0914 -0.3878  0.5111
   58MOL   H29835752   3.809   4.240   5.934 -0.7625 -1.5283 -2.2140
   58MOL   H29935753   4.063   4.303   5.781 -0.2457 -0.4763  0.3093
   58MOL   H30035754   3.926   4.244   5.694  0.8941 -2.6145  1.3494
   58MOL   H30135755   3.783   4.412   5.767 -1.1858  2.9983 -0.9019
   58MOL   H30235756   3.915   4.489   5.865 -3.4262  2.1263 -0.0847
   58MOL   H30335757   3.943   4.461   5.559  1.3605 -1.3370  1.0509
   58MOL   H30435758   4.024   4.564   5.680  0.1388 -0.2904 -2.3773
   58MOL   H30535759   3.720   4.600   5.595 -1.4060  1.7832  0.3680
   58MOL   H30635760   3.814   4.708   5.696  0.1267 -1.6381  1.2017
   58MOL   H30735761   3.816   4.806   5.473 -1.2814 -0.3175  0.1575
   58MOL   H30835762   3.879   4.648   5.406 -0.2602  0.1981 -0.5078
   58MOL   H30935763   3.968   4.749   5.524  0.2021 -0.6755 -1.0757
   58MOL   H31035764   4.035   3.954   6.376  0.0699  2.3037  0.2421
   58MOL   H31135765   3.894   3.887   6.436  0.0722  0.4260 -0.2157
   58MOL   C31235766   3.939   3.832   6.233 -0.1549 -0.2008  0.3436
   58MOL   O31335767   3.934   3.703   6.283  0.1775  0.2447  0.1121
   58MOL   C31435768   3.805   3.658   6.329  0.2983  0.0569  0.2292
   58MOL   C31535769   3.819   3.502   6.359  0.7047 -0.0960  0.8711
   58MOL   C31635770   3.699   3.429   6.426 -0.2491 -0.2036 -0.2025
   58MOL   C31735771   3.740   3.300   6.500  0.3264 -0.1648 -1.2677
   58MOL   C31835772   3.615   3.220   6.541  0.3946 -0.6188 -0.7153
   58MOL   C31935773   3.639   3.084   6.603 -0.0744  0.4542  0.4262
   58MOL   C32035774   3.507   3.020   6.645  0.4830 -0.3450  0.7055
   58MOL   C32135775   3.520   2.868   6.669 -0.8461 -0.0827  1.1144
   58MOL   C32235776   4.075   3.852   6.158  0.4795 -0.2027 -0.4959
   58MOL   H32335777   3.856   3.836   6.162  0.5617  0.3990 -0.4714
   58MOL   H32435778   3.728   3.677   6.254 -2.1214  0.9126  2.8382
   58MOL   H32535779   3.780   3.713   6.420 -0.3695  3.8893 -2.1762
   58MOL   H32635780   3.914   3.500   6.413  2.7800  2.3244 -2.5110
   58MOL   H32735781   3.826   3.449   6.264  0.3762  2.2531 -0.4909
   58MOL   H32835782   3.643   3.498   6.490 -0.7528 -0.0181 -0.8346
   58MOL   H32935783   3.631   3.397   6.347  0.4918 -1.2002 -0.4460
   58MOL   H33035784   3.802   3.240   6.434  1.4539  1.1769 -1.4557
   58MOL   H33135785   3.807   3.322   6.583 -1.3182 -0.3955  0.1565
   58MOL   H33235786   3.566   3.276   6.621  2.3064 -1.2790  0.9593
   58MOL   H33335787   3.542   3.207   6.461 -1.8596 -0.1185  1.1810
   58MOL   H33435788   3.712   3.084   6.685  0.1625 -0.3546  0.2187
   58MOL   H33535789   3.686   3.025   6.525 -1.2848  0.6237 -0.4329
   58MOL   H33635790   3.466   3.071   6.732  0.3884  1.4543 -0.3667
   58MOL   H33735791   3.428   3.021   6.570  2.0761  0.3990 -0.9995
   58MOL   H33835792   3.599   2.859   6.745  0.1095 -0.0209  0.1439
   58MOL   H33935793   3.565   2.818   6.583 -1.8536 -1.4646  1.3682
   58MOL   H34035794   3.426   2.825   6.704 -1.5170  0.1647 -0.3749
   58MOL   H34135795   4.102   3.955   6.136  2.2024 -0.6745 -0.6619
   58MOL   H34235796   4.155   3.821   6.225 -0.2654  0.0170  0.5096
   58MOL   C34335797   4.098   3.747   6.046  0.2747 -0.6639  0.2025
   58MOL   O34435798   4.239   3.716   6.027  0.0829 -0.0223 -1.1858
   58MOL   C34535799   4.284   3.617   6.120  0.1584 -0.1199 -0.6932
   58MOL   C34635800   4.414   3.568   6.061 -0.2799  0.4444  0.2192
   58MOL   C34735801   4.410   3.509   5.917  0.4044 -0.8931 -0.5103
   58MOL   C34835802   4.547   3.525   5.842  0.4925 -0.2202 -0.0323
   58MOL   C34935803   4.523   3.489   5.696 -0.1871  0.0703  0.5425
   58MOL   C35035804   4.663   3.472   5.625 -0.0174  0.3319  0.2941
   58MOL   C35135805   4.722   3.607   5.587 -0.1423  0.1718 -0.1044
   58MOL   C35235806   4.863   3.605   5.528  0.4942 -0.5815 -0.3320
   58MOL   C35335807   4.048   3.807   5.911 -0.0992 -0.4203 -0.2092
   58MOL   H35435808   4.042   3.655   6.067 -2.6077  0.5754 -1.6894
   58MOL   H35535809   4.210   3.537   6.123  0.8135 -0.6806  1.9240
   58MOL   H35635810   4.307   3.662   6.217  1.2325 -0.6039 -0.7092
   58MOL   H35735811   4.452   3.489   6.125 -1.8042 -0.1589  0.3866
   58MOL   H35835812   4.487   3.649   6.061 -0.6547  0.8428 -2.3763
   58MOL   H35935813   4.387   3.403   5.932 -1.3649 -0.3116  1.0749
   58MOL   H36035814   4.325   3.548   5.861  0.3100  0.1373  0.3423
   58MOL   H36135815   4.583   3.628   5.844  0.6909 -0.2943  3.6968
   58MOL   H36235816   4.628   3.466   5.886 -2.1412 -1.5486  3.2741
   58MOL   H36335817   4.461   3.399   5.690  0.1209 -0.3403  3.0804
   58MOL   H36435818   4.470   3.567   5.641  0.3390 -0.6912 -1.1018
   58MOL   H36535819   4.662   3.409   5.537 -2.3549  1.4481 -0.5216
   58MOL   H36635820   4.727   3.413   5.691 -0.2853 -1.5729 -1.1402
   58MOL   H36735821   4.661   3.637   5.501 -0.8206 -0.6152  0.0943
   58MOL   H36835822   4.710   3.682   5.664 -3.1829 -1.4343  1.0618
   58MOL   H36935823   4.873   3.562   5.428  0.9516  1.0287 -0.9931
   58MOL   H37035824   4.940   3.558   5.590  0.4898  1.1990  1.0694
   58MOL   H37135825   4.885   3.711   5.517 -0.7184 -0.4735 -1.9811
   58MOL   H37235826   3.942   3.826   5.929 -0.0911 -1.2430  0.7760
   58MOL   H37335827   4.094   3.905   5.907  1.1590 -1.0420 -1.5173
   58MOL   C37435828   4.058   3.710   5.793  0.0612  0.0745  0.6261
   58MOL   O37535829   4.014   3.787   5.681 -0.2725  0.0234  0.5023
   58MOL   C37635830   4.099   3.886   5.634  0.4299  0.7262 -0.4557
   58MOL   C37735831   4.034   3.973   5.526 -0.2134 -0.5341  0.1700
   58MOL   C37835832   4.140   4.067   5.457 -0.1554 -0.5036  0.2763
   58MOL   C37935833   4.190   4.180   5.547  0.0940 -0.4447  0.0867
   58MOL   C38035834   4.323   4.248   5.508  0.3142  0.0664 -0.4827
   58MOL   C38135835   4.351   4.373   5.596  0.1640 -0.2099 -0.1590
   58MOL   C38235836   4.484   4.452   5.563 -0.2019 -0.6357 -0.1214
   58MOL   C38335837   4.466   4.549   5.441  0.3918 -0.3003 -0.2980
   58MOL   C38435838   3.978   3.582   5.804 -0.0898  0.5741 -0.5161
   58MOL   H38535839   4.164   3.685   5.785 -0.1146 -0.6491  0.4911
   58MOL   H38635840   4.187   3.840   5.589 -0.7660 -2.8168  0.6706
   58MOL   H38735841   4.145   3.952   5.707 -2.9827  1.3256  1.2970
   58MOL   H38835842   3.949   4.037   5.548  0.1037 -0.4097  1.0340
   58MOL   H38935843   3.972   3.911   5.461 -1.8257 -0.7869  1.9144
   58MOL   H39035844   4.232   4.020   5.422  0.1208  1.5258 -1.7881
   58MOL   H39135845   4.098   4.108   5.365  0.1403  0.0930  0.4096
   58MOL   H39235846   4.115   4.259   5.543  1.1953  0.6157 -0.0387
   58MOL   H39335847   4.202   4.162   5.653 -0.1592  1.1696  0.4001
   58MOL   H39435848   4.418   4.195   5.519  0.0353 -0.2761  0.3471
   58MOL   H39535849   4.315   4.277   5.404 -1.6428 -1.2916 -0.7307
   58MOL   H39635850   4.358   4.339   5.699  2.5686  0.1597 -0.1733
   58MOL   H39735851   4.271   4.448   5.596 -0.7167 -1.1369  1.1713
   58MOL   H39835852   4.520   4.505   5.651  2.5107 -0.7068 -1.1533
   58MOL   H39935853   4.565   4.383   5.542 -0.1563 -1.0992  1.5217
   58MOL   H40035854   4.556   4.606   5.421 -0.0667  0.3973 -0.3885
   58MOL   H40135855   4.379   4.613   5.451  1.9538  1.9644 -0.8950
   58MOL   H40235856   4.444   4.495   5.349  0.1525 -1.0455  0.1940
   58MOL   H40335857   4.035   3.523   5.876 -2.2949 -2.7367 -1.3794
   58MOL   H40435858   3.878   3.601   5.843 -0.4589 -2.1465 -0.0381
   58MOL   C40535859   3.970   3.501   5.669  0.3461  0.6468  0.2567
   58MOL   O40635860   3.893   3.387   5.697  0.1541 -0.3431  0.2577
   58MOL   C40735861   3.762   3.382   5.635  0.6046  0.1060  0.7932
   58MOL   C40835862   3.665   3.480   5.705 -0.9751  0.0682 -0.1579
   58MOL   C40935863   3.645   3.456   5.853 -0.2460 -0.0009 -0.1075
   58MOL   C41035864   3.593   3.573   5.936 -1.1603 -0.0422 -0.4920
   58MOL   C41135865   3.446   3.614   5.914 -0.7949 -0.2241  0.0506
   58MOL   C41235866   3.405   3.717   6.014  0.6362  0.3870 -0.0865
   58MOL   C41335867   3.253   3.755   6.017  0.1809  0.1269  0.0708
   58MOL   C41435868   3.199   3.835   5.889 -0.1552  0.0113 -0.0109
   58MOL   C41535869   4.112   3.444   5.635  0.2084 -0.6456 -1.1528
   58MOL   H41635870   3.929   3.551   5.582  1.1454  1.8844  0.5729
   58MOL   H41735871   3.728   3.280   5.649 -0.1302  0.7691  4.1129
   58MOL   H41835872   3.758   3.396   5.527  3.5114  2.7164  0.9491
   58MOL   H41935873   3.582   3.486   5.634  0.3423 -0.5788 -1.7849
   58MOL   H42035874   3.709   3.580   5.696  0.2564 -0.4837 -0.3079
   58MOL   H42135875   3.576   3.371   5.853 -0.2644 -0.0086  1.4757
   58MOL   H42235876   3.737   3.414   5.895 -1.4231 -0.0072  2.5694
   58MOL   H42335877   3.600   3.546   6.041 -0.8599 -0.5227 -0.6307
   58MOL   H42435878   3.648   3.666   5.927 -1.9558  0.7542  2.4134
   58MOL   H42535879   3.440   3.654   5.813  1.8908 -2.9052 -1.2241
   58MOL   H42635880   3.375   3.531   5.915 -0.9754 -0.0765 -0.4078
   58MOL   H42735881   3.477   3.798   6.006  0.5609  0.4841  0.2046
   58MOL   H42835882   3.426   3.675   6.112 -0.9201 -1.4974 -0.5361
   58MOL   H42935883   3.193   3.665   6.027  2.0698 -1.0480  1.0719
   58MOL   H43035884   3.235   3.826   6.098 -0.4737 -0.8464  0.7928
   58MOL   H43135885   3.207   3.772   5.800 -0.7734  0.1247 -0.1474
   58MOL   H43235886   3.253   3.929   5.873 -1.3711  0.6700 -0.3114
   58MOL   H43335887   3.092   3.855   5.891  0.0904  1.4098  0.1488
   58MOL   H43435888   4.178   3.529   5.614 -0.5745  0.4334  0.6687
   58MOL   H43535889   4.154   3.400   5.725  3.0404  1.0644 -1.5638
   58MOL   C43635890   4.124   3.353   5.514  0.3790 -0.3007  0.6255
   58MOL   O43735891   4.254   3.300   5.516  0.4129  0.1184 -0.2635
   58MOL   C43835892   4.278   3.186   5.435  0.4420 -0.2046 -0.6427
   58MOL   C43935893   4.421   3.175   5.385  0.5846 -0.4845  0.8889
   58MOL   C44035894   4.521   3.143   5.499 -0.0715 -0.1669  0.4068
   58MOL   C44135895   4.671   3.134   5.451  0.1885  0.0285  0.3485
   58MOL   C44235896   4.761   3.094   5.570 -0.4264  0.3599  0.3834
   58MOL   C44335897   4.899   3.052   5.519 -0.7124 -0.4729 -0.3027
   58MOL   C44435898   5.005   3.070   5.626 -0.4659 -0.0016 -0.0352
   58MOL   C44535899   5.134   3.002   5.583 -0.2166  0.2028  0.4082
   58MOL   C44635900   4.090   3.428   5.381  0.3726  0.3957 -0.3171
   58MOL   H44735901   4.053   3.271   5.519  0.1535 -0.1504 -0.0221
   58MOL   H44835902   4.248   3.093   5.484  0.7191 -0.2964 -0.6479
   58MOL   H44935903   4.228   3.188   5.339  0.0765 -0.8506 -0.4700
   58MOL   H45035904   4.442   3.273   5.340  0.3271 -1.4448 -1.4112
   58MOL   H45135905   4.417   3.100   5.306  0.5678  0.7840 -0.3575
   58MOL   H45235906   4.504   3.207   5.586  1.8269 -0.1297  0.7653
   58MOL   H45335907   4.499   3.050   5.551  2.5701 -1.1411 -0.1410
   58MOL   H45435908   4.692   3.077   5.360  1.2593 -0.1842  0.7240
   58MOL   H45535909   4.689   3.235   5.413 -0.5966 -1.2201 -3.5594
   58MOL   H45635910   4.772   3.175   5.642 -1.9515  0.4813  0.4844
   58MOL   H45735911   4.722   3.008   5.626  0.2526  0.3698  0.8826
   58MOL   H45835912   4.928   3.111   5.433 -1.4143  0.3205  0.0055
   58MOL   H45935913   4.902   2.949   5.482  0.6128 -0.1586 -1.1209
   58MOL   H46035914   5.015   3.177   5.641 -3.4054  0.1379  1.4387
   58MOL   H46135915   4.978   3.026   5.722  3.4574 -2.9418 -0.1745
   58MOL   H46235916   5.194   3.054   5.508 -0.3233  2.6100  1.9398
   58MOL   H46335917   5.097   2.901   5.565 -0.1537  0.2747 -0.1548
   58MOL   H46435918   5.201   2.995   5.668 -0.1040 -0.2433  0.2825
   58MOL   H46535919   4.099   3.354   5.301  1.2376  0.1729 -0.0183
   58MOL   H46635920   3.987   3.462   5.382  1.0920  2.7672 -1.2864
   58MOL   C46735921   4.183   3.563   5.347 -0.2714  0.7012 -0.7472
   58MOL   O46835922   4.140   3.619   5.227 -0.1788  0.0093 -0.6027
   58MOL   C46935923   4.034   3.718   5.232 -0.8020 -0.4883 -0.9226
   58MOL   C47035924   3.965   3.718   5.097 -1.0849 -0.6709 -0.4960
   58MOL   C47135925   4.048   3.767   4.973  0.4288  0.5716 -0.6819
   58MOL   C47235926   4.066   3.919   4.952 -0.4646 -0.2469 -0.5370
   58MOL   C47335927   4.143   3.956   4.822 -0.1912 -0.2571  0.1018
   58MOL   C47435928   4.299   3.943   4.829 -0.0306  0.0100 -0.9014
   58MOL   C47535929   4.363   3.805   4.790  0.4053  0.5116 -0.0056
   58MOL   C47635930   4.516   3.800   4.775  0.0092  0.0168  0.0816
   58MOL   C47735931   4.327   3.540   5.337 -0.1988  0.3713 -0.1247
   58MOL   H47835932   4.161   3.643   5.417  0.7017 -0.3571  0.8231
   58MOL   H47935933   4.077   3.816   5.253 -1.0251 -0.3342 -1.1829
   58MOL   H48035934   3.965   3.690   5.311  1.3656 -0.5233  1.0201
   58MOL   H48135935   3.876   3.781   5.097 -1.1613 -0.7701 -1.9655
   58MOL   H48235936   3.925   3.622   5.066  1.0019 -0.9585 -2.4100
   58MOL   H48335937   4.139   3.707   4.981 -0.7877 -1.1719  0.4215
   58MOL   H48435938   4.002   3.718   4.888  1.2751  0.1301 -0.8963
   58MOL   H48535939   3.968   3.967   4.955 -0.6044 -0.5105 -0.7800
   58MOL   H48635940   4.107   3.963   5.043 -1.4292 -0.1421 -0.1451
   58MOL   H48735941   4.097   3.898   4.742  0.1442  0.6965 -0.7978
   58MOL   H48835942   4.118   4.054   4.782  0.8079 -0.0810 -0.1060
   58MOL   H48935943   4.336   3.951   4.931  0.0710 -1.6686 -0.7859
   58MOL   H49035944   4.348   4.023   4.773  2.3168 -0.7076  0.0681
   58MOL   H49135945   4.335   3.730   4.864  3.1442 -0.3443  0.2164
   58MOL   H49235946   4.326   3.776   4.691  0.5374 -0.9518  0.3629
   58MOL   H49335947   4.548   3.868   4.697  1.4718 -0.0912  0.5656
   58MOL   H49435948   4.554   3.699   4.758 -0.0915 -0.2828  1.5394
   58MOL   H49535949   4.555   3.842   4.868 -0.9551  2.3129 -0.5328
   58MOL   H49635950   4.361   3.523   5.439  1.6168  0.0818 -0.7656
   58MOL   H49735951   4.338   3.451   5.275 -1.4668  1.4117 -1.8934
   58MOL   C49835952   4.404   3.662   5.289  1.1741 -0.4529 -0.0705
   58MOL   O49935953   4.539   3.623   5.278  0.3661  0.3712  0.2359
   58MOL   C50035954   4.576   3.567   5.159 -0.0113 -0.1218 -0.2514
   58MOL   C50135955   4.727   3.557   5.147  0.3739  0.1941  0.3450
   58MOL   C50235956   4.805   3.690   5.147  0.4611 -0.0866 -0.5051
   58MOL   C50335957   4.963   3.663   5.128  0.3183  0.2801 -0.1557
   58MOL   C50435958   5.052   3.782   5.177 -0.1254  0.0812 -0.0159
   58MOL   C50535959   5.202   3.745   5.203  0.3997  0.2123 -1.2360
   58MOL   C50635960   5.293   3.862   5.235 -0.5403  0.3591 -0.1178
   58MOL   C50735961   5.436   3.814   5.258 -0.2863  0.2317  0.1801
   58MOL   C50835962   4.408   3.780   5.395  0.7149 -0.7539 -0.1944
   58MOL   H50935963   4.368   3.694   5.191 -3.1583  1.9901  2.1386
   58MOL   H51035964   4.538   3.625   5.075 -1.6902  0.8413  1.1586
   58MOL   H51135965   4.541   3.464   5.157 -0.1849 -0.0600 -0.3942
   58MOL   H51235966   4.759   3.522   5.049  4.0613  0.2237  1.4373
   58MOL   H51335967   4.760   3.485   5.222  0.0466  0.9616  1.2444
   58MOL   H51435968   4.767   3.755   5.069  1.7030 -1.2139 -2.0889
   58MOL   H51535969   4.791   3.736   5.245 -1.8369  3.6901 -2.5012
   58MOL   H51635970   4.998   3.576   5.184  0.7376  1.1575  0.9574
   58MOL   H51735971   4.987   3.628   5.027  1.2309 -2.8222  1.0636
   58MOL   H51835972   5.033   3.862   5.105 -2.5374 -0.0005  0.4666
   58MOL   H51935973   5.017   3.813   5.275  1.6444 -1.2606  1.0620
   58MOL   H52035974   5.235   3.692   5.113  0.1137  0.1332 -1.2949
   58MOL   H52135975   5.206   3.682   5.291 -1.5788  0.8248 -0.6772
   58MOL   H52235976   5.289   3.932   5.151 -1.6029 -1.7292 -1.8742
   58MOL   H52335977   5.267   3.900   5.334  0.0450 -0.4282  0.3435
   58MOL   H52435978   5.505   3.890   5.293  1.7647 -1.5203  0.0764
   58MOL   H52535979   5.487   3.778   5.169  1.9808 -0.2898  1.6245
   58MOL   H52635980   5.446   3.728   5.326 -0.6425  0.5605  0.6545
   58MOL   H52735981   4.307   3.794   5.432  0.6557 -0.0691 -0.6231
   58MOL   H52835982   4.448   3.731   5.484  0.3248 -1.6689 -0.5171
   58MOL   C52935983   4.489   3.904   5.360 -0.2201  0.2498  0.4830
   58MOL   O53035984   4.477   3.993   5.475 -0.0981  0.2374  0.1657
   58MOL   C53135985   4.580   3.983   5.574 -0.0597 -0.4277 -0.1733
   58MOL   C53235986   4.690   4.081   5.528 -0.3123 -1.0784  0.2329
   58MOL   C53335987   4.817   4.089   5.621  0.0876 -0.3909  1.1097
   58MOL   C53435988   4.912   4.201   5.562 -0.6081  0.1109  0.0788
   58MOL   C53535989   5.019   4.223   5.665  0.0434 -0.0078 -0.0774
   58MOL   C53635990   5.141   4.304   5.624 -0.4047  0.3609 -0.4087
   58MOL   C53735991   5.240   4.232   5.535  0.2704  0.0786 -0.5118
   58MOL   C53835992   5.326   4.121   5.595 -0.1270 -0.3677  0.2596
   58MOL   C53935993   4.429   3.971   5.233 -0.3423 -0.1245  0.3205
   58MOL   H54035994   4.596   3.883   5.356  0.1675  1.6570  2.4413
   58MOL   H54135995   4.544   4.016   5.672  1.5952  1.3904 -0.1353
   58MOL   H54235996   4.630   3.887   5.576  2.9469  1.0719  1.7554
   58MOL   H54335997   4.646   4.180   5.520 -1.5375 -1.7203 -1.2695
   58MOL   H54435998   4.722   4.060   5.426  1.0002  1.2042  0.1631
   58MOL   H54535999   4.794   4.123   5.722  0.2172  0.7185  0.7759
   58MOL   H54636000   4.874   3.998   5.635  0.9335  0.1185  1.0252
   58MOL   H54736001   4.966   4.163   5.474 -0.9966 -0.2182 -0.0204
   58MOL   H54836002   4.861   4.296   5.547  1.9868  1.5953  0.2836
   58MOL   H54936003   4.967   4.263   5.752  0.4431 -0.2617  0.2809
   58MOL   H55036004   5.058   4.126   5.697  0.6509 -0.6419 -2.6179
   58MOL   H55136005   5.197   4.344   5.709 -0.9649  0.7675 -0.2285
   58MOL   H55236006   5.104   4.389   5.567  0.0958  1.0538  0.2930
   58MOL   H55336007   5.181   4.200   5.448  1.7074  0.5810 -1.6949
   58MOL   H55436008   5.308   4.307   5.495  2.3397 -1.2713  0.3742
   58MOL   H55536009   5.259   4.056   5.651  0.7513 -3.0958 -1.7295
   58MOL   H55636010   5.402   4.168   5.658 -1.0359  1.3160  0.1172
   58MOL   H55736011   5.377   4.064   5.516 -2.0452 -1.1893 -0.4061
   58MOL   H55836012   4.433   3.899   5.151 -2.8952  0.4189 -0.3475
   58MOL   H55936013   4.320   3.979   5.240 -0.5200 -1.5939 -0.5702
   58MOL   C56036014   4.497   4.096   5.177  0.2836 -0.0018 -1.4030
   58MOL   O56136015   4.429   4.151   5.061  0.2222  0.1499 -0.5962
   58MOL   C56236016   4.309   4.219   5.086  0.6018  0.8199 -0.7854
   58MOL   C56336017   4.257   4.279   4.958  0.4638  0.4239  0.0619
   58MOL   C56436018   4.294   4.427   4.940 -0.0613 -0.0365  0.2268
   58MOL   C56536019   4.224   4.510   4.828 -0.2840  0.4607 -0.8333
   58MOL   C56636020   4.079   4.538   4.861 -0.5691 -0.0605  0.1789
   58MOL   C56736021   4.005   4.624   4.756  0.2013  0.3105  0.0406
   58MOL   C56836022   4.030   4.776   4.758  0.8360 -0.0488  0.0491
   58MOL   C56936023   3.943   4.852   4.660 -0.3882 -0.3926  0.2217
   58MOL   C57036024   4.642   4.066   5.133 -0.0796  0.1712  0.0182
   58MOL   H57136025   4.493   4.163   5.263 -0.3280 -1.2800 -0.4090
   58MOL   H57236026   4.333   4.289   5.167  0.2303 -0.4311  0.4326
   58MOL   H57336027   4.235   4.148   5.121 -0.4688  1.4975 -1.6313
   58MOL   H57436028   4.149   4.270   4.956  0.6169 -1.6459 -0.8651
   58MOL   H57536029   4.299   4.225   4.873 -1.3572 -0.6040 -0.1969
   58MOL   H57636030   4.287   4.478   5.036 -0.1506 -1.4133  0.9696
   58MOL   H57736031   4.401   4.418   4.923  0.1741 -1.6612  2.3379
   58MOL   H57836032   4.276   4.606   4.830 -0.7610  0.7090  0.1082
   58MOL   H57936033   4.240   4.456   4.735 -1.1245 -2.0463  0.4559
   58MOL   H58036034   4.045   4.435   4.850  1.0251 -0.7542  1.5495
   58MOL   H58136035   4.058   4.569   4.963 -1.2916 -0.9679  0.3140
   58MOL   H58236036   3.903   4.590   4.775  0.9512 -1.8272  0.4073
   58MOL   H58336037   4.030   4.590   4.655 -0.7304 -0.9719  0.2255
   58MOL   H58436038   4.011   4.815   4.858 -1.7212 -1.2524  0.0842
   58MOL   H58536039   4.136   4.792   4.738  0.7045  3.3564  1.6468
   58MOL   H58636040   3.839   4.840   4.688 -0.8598  2.3860 -0.1490
   58MOL   H58736041   3.973   4.835   4.556  1.0942 -0.5352  0.6619
   58MOL   H58836042   3.967   4.957   4.678 -1.8057  0.4351 -2.3609
   58MOL   H58936043   4.679   3.989   5.200 -0.0435 -0.2689 -0.5080
   58MOL   H59036044   4.631   4.008   5.042  1.8378 -0.3001  0.0702
   58MOL   C59136045   4.731   4.194   5.113  0.2156 -0.0725 -0.4204
   58MOL   O59236046   4.853   4.173   5.056  0.0879  0.1940 -0.1464
   58MOL   C59336047   4.845   4.156   4.911 -0.2105 -0.2853  0.2138
   58MOL   C59436048   4.984   4.139   4.842 -0.3423  0.0193 -0.3830
   58MOL   C59536049   5.060   4.270   4.847 -0.0271 -0.3903  0.0241
   58MOL   C59636050   5.219   4.251   4.870  0.0991  0.3718 -0.0150
   58MOL   C59736051   5.253   4.239   5.016  0.2487  0.3214 -0.4149
   58MOL   C59836052   5.406   4.239   5.052 -0.5327  0.6334  0.5330
   58MOL   C59936053   5.439   4.249   5.200 -0.0005  0.0934  0.3649
   58MOL   C60036054   5.581   4.290   5.217 -0.2131 -0.2750  0.5967
   58MOL   C60136055   4.773   4.268   5.239  0.6852  0.0718 -0.2144
   58MOL   H60236056   4.680   4.270   5.053 -2.7177 -0.2636  1.7462
   58MOL   H60336057   4.803   4.245   4.864  3.3370  0.1423 -2.4304
   58MOL   H60436058   4.785   4.069   4.888  0.6985 -0.9353  0.2616
   58MOL   H60536059   4.962   4.108   4.740 -0.7130  2.5903 -1.1032
   58MOL   H60636060   5.033   4.051   4.884 -2.1483 -0.8902 -0.1325
   58MOL   H60736061   5.041   4.328   4.756 -3.0909  0.1843  0.9881
   58MOL   H60836062   5.016   4.321   4.932  1.0299  0.4294  0.0919
   58MOL   H60936063   5.250   4.167   4.808  1.2963  0.5763  0.2984
   58MOL   H61036064   5.275   4.337   4.832 -3.8866  3.4275  0.6776
   58MOL   H61136065   5.195   4.310   5.076 -0.9774 -0.8555 -0.1621
   58MOL   H61236066   5.206   4.150   5.058 -1.4312  2.6156  2.8842
   58MOL   H61336067   5.439   4.335   5.013 -1.6681  1.4659  1.5773
   58MOL   H61436068   5.458   4.161   4.996 -0.0894  0.2811  1.4200
   58MOL   H61536069   5.384   4.327   5.253 -0.6900  0.5486 -0.9973
   58MOL   H61636070   5.435   4.151   5.248 -0.8098  0.4834  1.1075
   58MOL   H61736071   5.608   4.311   5.320  0.5463 -0.7975  0.5090
   58MOL   H61836072   5.604   4.377   5.156  0.2453 -0.1443  0.9521
   58MOL   H61936073   5.646   4.212   5.176  1.0334  0.4699  1.1507
   58MOL   H62036074   4.853   4.211   5.287  0.5695  1.4354  1.6428
   58MOL   H62136075   4.813   4.363   5.206 -0.4157  0.4557 -0.4718
   58MOL   H62236076   4.691   4.276   5.311  0.9691  0.5337  0.0547
   59MOL     C136077   1.611   6.999   3.676  0.5422 -0.5147 -0.0027
   59MOL     O236078   1.669   7.081   3.777  0.2325  0.6635  0.2405
   59MOL     C336079   1.639   7.031   3.909 -0.2019 -0.6437  0.0907
   59MOL     C436080   1.709   7.116   4.021 -0.1514  0.0883 -0.5860
   59MOL     C536081   1.692   7.037   4.154  0.4131  0.1265  0.0900
   59MOL     C636082   1.778   7.090   4.268  0.0585 -0.6747  0.1191
   59MOL     C736083   1.744   7.024   4.403  0.6587  0.0793 -0.2814
   59MOL     C836084   1.815   7.066   4.524  0.3465 -0.6183  0.0641
   59MOL     C936085   1.954   6.992   4.526  0.2629  0.2080 -0.0793
   59MOL    C1036086   2.034   6.998   4.657 -0.0585  0.2879  0.4263
   59MOL    C1136087   1.494   7.068   3.603 -0.0182 -0.0856  0.4610
   59MOL    H1236088   1.690   6.983   3.603  1.3623  1.5263  0.3910
   59MOL    H1336089   1.645   6.923   3.919 -1.0790 -0.3808  4.0400
   59MOL    H1436090   1.533   7.045   3.927  0.1185 -0.0735  1.6456
   59MOL    H1536091   1.685   7.222   4.030 -3.0844 -0.5551 -0.3749
   59MOL    H1636092   1.815   7.114   3.997  0.3343 -0.4174  1.5456
   59MOL    H1736093   1.586   7.040   4.177 -0.0543  0.8030 -2.0468
   59MOL    H1836094   1.721   6.932   4.151  0.6209  0.1930 -0.2726
   59MOL    H1936095   1.885   7.081   4.250 -0.0649 -3.0903  0.3727
   59MOL    H2036096   1.759   7.197   4.268 -0.0238 -0.6761 -1.6887
   59MOL    H2136097   1.637   7.035   4.424  0.9583  0.9161  0.8712
   59MOL    H2236098   1.759   6.918   4.383 -0.4117  0.2345 -1.9816
   59MOL    H2336099   1.760   7.029   4.611 -0.5495 -0.8905 -0.6127
   59MOL    H2436100   1.816   7.175   4.518 -0.6155 -0.5891  0.3110
   59MOL    H2536101   1.939   6.885   4.512  1.2513 -0.1506  1.4546
   59MOL    H2636102   2.025   7.035   4.454 -2.0165 -1.8482 -3.7365
   59MOL    H2736103   2.077   7.098   4.665  1.5904 -0.2007 -1.7002
   59MOL    H2836104   2.117   6.928   4.644  0.4165  1.2790 -2.4129
   59MOL    H2936105   1.978   6.972   4.747 -2.3938  2.6748 -0.2776
   59MOL    H3036106   1.411   7.061   3.673 -0.6596  1.2427 -0.1445
   59MOL    H3136107   1.508   7.174   3.581  0.6830 -0.1932  0.3826
   59MOL    H3236108   1.573   6.902   3.706 -2.3405  1.0855  1.7961
   59MOL    C3336109   1.448   6.995   3.470 -0.0938 -0.2221  0.2907
   59MOL    O3436110   1.567   6.965   3.390  0.7552  0.1801  0.6463
   59MOL    C3536111   1.543   6.882   3.279 -0.2248 -0.3985 -0.2036
   59MOL    C3636112   1.585   6.968   3.158 -0.1928  0.5969 -0.0399
   59MOL    C3736113   1.578   6.888   3.031 -0.3237 -0.3194  0.2552
   59MOL    C3836114   1.621   6.960   2.905 -0.0875  0.8931 -0.2147
   59MOL    C3936115   1.536   7.058   2.829 -0.1884 -0.4262 -0.1020
   59MOL    C4036116   1.392   7.008   2.797  0.3941  0.4986  0.9097
   59MOL    C4136117   1.297   7.110   2.736  0.0957 -0.4375 -0.4217
   59MOL    C4236118   1.328   7.145   2.592 -0.2638  0.3105  0.2992
   59MOL    C4336119   1.353   7.092   3.393 -0.6113  0.2730 -0.1975
   59MOL    H4436120   1.403   6.898   3.491  0.0143 -0.0930  1.1421
   59MOL    H4536121   1.440   6.850   3.270 -0.7507  0.8413  1.1728
   59MOL    H4636122   1.617   6.802   3.289  1.7601  1.0522 -2.6272
   59MOL    H4736123   1.684   7.013   3.170 -0.9216  1.8102  1.5268
   59MOL    H4836124   1.522   7.056   3.149 -1.2062 -0.0883  0.3524
   59MOL    H4936125   1.650   6.808   3.052  0.2040  0.0319 -0.1953
   59MOL    H5036126   1.485   6.836   3.008  1.5744 -2.1916 -3.7131
   59MOL    H5136127   1.719   7.002   2.931 -0.1342  2.5234 -2.4376
   59MOL    H5236128   1.640   6.879   2.835 -1.2495  0.6116 -0.2061
   59MOL    H5336129   1.536   7.148   2.889 -1.0195 -0.6235  0.1940
   59MOL    H5436130   1.590   7.088   2.739 -2.3531  2.0090 -0.6434
   59MOL    H5536131   1.344   6.970   2.887 -1.1518  0.8326  0.2403
   59MOL    H5636132   1.406   6.921   2.733  0.2808  0.8150  0.4554
   59MOL    H5736133   1.198   7.067   2.746  0.1991 -0.8142 -0.9816
   59MOL    H5836134   1.290   7.205   2.789 -2.7868  0.5230 -2.4010
   59MOL    H5936135   1.411   7.216   2.591 -0.2143  0.2726  1.3250
   59MOL    H6036136   1.244   7.179   2.532  1.1651 -0.6040 -2.2867
   59MOL    H6136137   1.341   7.055   2.532  1.3823  0.1124  0.9215
   59MOL    H6236138   1.393   7.192   3.374  0.0602 -0.0843 -0.7153
   59MOL    H6336139   1.337   7.068   3.288  2.3499  0.1965 -0.6808
   59MOL    C6436140   1.215   7.120   3.470  0.0946 -0.0803  0.5082
   59MOL    O6536141   1.143   7.001   3.461  0.1193 -0.2468 -0.1958
   59MOL    C6636142   1.021   6.997   3.538 -0.0759 -0.3795 -0.0549
   59MOL    C6736143   1.053   6.987   3.692  0.5813  0.9557  0.1135
   59MOL    C6836144   1.175   6.890   3.713  0.9584 -0.2607 -0.1227
   59MOL    C6936145   1.194   6.870   3.861 -0.5136 -0.6773  0.0246
   59MOL    C7036146   1.297   6.769   3.895  0.3718  0.1026  0.0272
   59MOL    C7136147   1.292   6.708   4.037 -0.3340  0.2316 -0.4570
   59MOL    C7236148   1.353   6.818   4.139 -0.1974  0.9894 -0.1954
   59MOL    C7336149   1.365   6.767   4.281 -0.0742 -0.3329  0.3866
   59MOL    C7436150   1.146   7.237   3.396  0.1420 -0.3711 -0.4804
   59MOL    H7536151   1.234   7.149   3.574  1.0460  0.4202  0.2041
   59MOL    H7636152   0.964   6.909   3.509 -1.1218  0.3092 -0.1030
   59MOL    H7736153   0.962   7.087   3.521  2.2294  0.6067 -3.2677
   59MOL    H7836154   0.975   6.949   3.758 -0.7293 -0.9972 -2.4715
   59MOL    H7936155   1.068   7.086   3.734 -0.8921  1.8738 -1.4635
   59MOL    H8036156   1.157   6.788   3.679  0.0578 -0.1830  0.0985
   59MOL    H8136157   1.259   6.936   3.662 -0.8619  3.0387 -0.2522
   59MOL    H8236158   1.226   6.963   3.906 -0.6334 -2.1082  3.1772
   59MOL    H8336159   1.099   6.856   3.912 -0.3075 -0.8405  0.3633
   59MOL    H8436160   1.296   6.679   3.833  2.2181 -0.2210  0.4232
   59MOL    H8536161   1.396   6.813   3.885 -0.0840  1.1607  0.1316
   59MOL    H8636162   1.345   6.613   4.034 -0.0351  0.4276 -1.9638
   59MOL    H8736163   1.190   6.693   4.072  0.7694 -1.6945  2.1241
   59MOL    H8836164   1.445   6.869   4.109  0.4224 -0.9703 -1.8137
   59MOL    H8936165   1.283   6.901   4.148  0.0447  1.3870 -1.7972
   59MOL    H9036166   1.409   6.667   4.274  1.3973  0.2309  1.3055
   59MOL    H9136167   1.270   6.754   4.334  0.3120  2.9353  1.9964
   59MOL    H9236168   1.439   6.830   4.330  0.3808  0.5449 -1.4105
   59MOL    H9336169   1.166   7.230   3.289  0.5513 -1.3867 -0.3473
   59MOL    H9436170   1.037   7.233   3.405  0.1350 -1.3793 -0.8382
   59MOL    C9536171   1.181   7.367   3.457 -0.2363  0.0198 -0.4987
   59MOL    O9636172   1.156   7.362   3.599 -0.0478 -0.0574 -0.1201
   59MOL    C9736173   1.199   7.476   3.670  0.0885 -0.3201 -0.0473
   59MOL    C9836174   1.204   7.448   3.821 -0.0937 -0.1247  0.3291
   59MOL    C9936175   1.286   7.322   3.850  0.3049 -0.8526 -0.1252
   59MOL   C10036176   1.287   7.279   4.000 -0.5321 -0.6100 -0.0785
   59MOL   C10136177   1.390   7.344   4.091 -0.2158 -0.6202  0.1196
   59MOL   C10236178   1.372   7.301   4.238  0.7311  0.7769 -0.5435
   59MOL   C10336179   1.481   7.370   4.316 -0.0914  0.3407  0.6786
   59MOL   C10436180   1.493   7.346   4.468  0.4056 -0.5137  0.0217
   59MOL   C10536181   1.111   7.489   3.380  0.5445  0.1287  0.0750
   59MOL   H10636182   1.288   7.384   3.458 -0.3523  0.8728 -1.4363
   59MOL   H10736183   1.122   7.553   3.663 -0.5220 -0.7511  1.7680
   59MOL   H10836184   1.302   7.504   3.646  0.5060 -0.3229  1.6841
   59MOL   H10936185   1.101   7.435   3.854  0.7466 -0.2668  3.0179
   59MOL   H11036186   1.250   7.535   3.868 -0.8413  0.7060 -0.4407
   59MOL   H11136187   1.227   7.239   3.811 -1.3019  0.4918 -0.6017
   59MOL   H11236188   1.386   7.326   3.806  1.1915 -0.3924  1.8626
   59MOL   H11336189   1.188   7.291   4.043 -1.1188 -0.7718 -1.3794
   59MOL   H11436190   1.300   7.171   4.010 -0.4325 -0.7290 -1.3693
   59MOL   H11536191   1.489   7.324   4.050  0.8070  1.0611  1.7060
   59MOL   H11636192   1.361   7.448   4.081 -0.8319 -0.7644  0.3174
   59MOL   H11736193   1.389   7.194   4.245 -1.2058  0.5446  1.1677
   59MOL   H11836194   1.274   7.336   4.269  1.1351  1.0403  0.4674
   59MOL   H11936195   1.570   7.342   4.260 -0.6823  0.8399 -0.5157
   59MOL   H12036196   1.466   7.476   4.297  0.1544  0.3387  0.4727
   59MOL   H12136197   1.403   7.381   4.518 -1.9216 -2.1721 -2.8382
   59MOL   H12236198   1.584   7.390   4.510  2.3420 -1.5615 -2.9185
   59MOL   H12336199   1.528   7.244   4.485  1.2401 -0.4570 -1.2807
   59MOL   H12436200   1.006   7.498   3.409  0.9857  0.1005  1.7172
   59MOL   H12536201   1.159   7.585   3.400  1.4191 -0.2804 -0.0555
   59MOL   C12636202   1.103   7.481   3.230 -0.3216  0.5793  0.1584
   59MOL   O12736203   1.231   7.453   3.178 -0.3202 -0.3253  0.1957
   59MOL   C12836204   1.253   7.437   3.038  0.0742  0.2728  0.3572
   59MOL   C12936205   1.390   7.374   3.021 -0.0614  0.6921 -0.3332
   59MOL   C13036206   1.511   7.461   3.077  0.2173 -0.0174  0.7220
   59MOL   C13136207   1.654   7.428   3.023  0.3847  0.2069  0.2258
   59MOL   C13236208   1.692   7.507   2.895  0.3991 -0.1769 -0.6574
   59MOL   C13336209   1.835   7.468   2.850 -0.1984  0.4030  0.7617
   59MOL   C13436210   1.885   7.507   2.706 -0.1338  0.1589 -0.3862
   59MOL   C13536211   2.037   7.494   2.689  0.3541 -0.1706  0.5057
   59MOL   C13636212   1.041   7.615   3.171  0.8800  0.3777  0.4726
   59MOL   H13736213   1.034   7.406   3.193  1.8462 -1.4497  0.1032
   59MOL   H13836214   1.253   7.523   2.971  0.5470 -1.2606 -1.6650
   59MOL   H13936215   1.185   7.359   3.003 -1.2207  1.4179  0.2827
   59MOL   H14036216   1.416   7.339   2.921 -2.4091 -0.2018 -0.6480
   59MOL   H14136217   1.402   7.281   3.077 -0.9309  1.5397  1.2860
   59MOL   H14236218   1.482   7.565   3.060 -3.0391 -1.1618 -1.2378
   59MOL   H14336219   1.517   7.443   3.184  0.0172 -2.1295  0.3986
   59MOL   H14436220   1.727   7.453   3.100 -0.0903  1.2890  0.3344
   59MOL   H14536221   1.672   7.322   3.007 -0.4007  0.2109 -0.6805
   59MOL   H14636222   1.612   7.486   2.825 -1.3196  1.1477  0.8455
   59MOL   H14736223   1.699   7.614   2.917 -0.0802 -0.5155  1.2144
   59MOL   H14836224   1.841   7.360   2.834 -1.6295  0.8353 -3.5735
   59MOL   H14936225   1.902   7.495   2.931  0.5630  0.5819  0.0882
   59MOL   H15036226   1.835   7.439   2.637  0.6775 -0.5699 -0.2630
   59MOL   H15136227   1.849   7.603   2.666  2.1299  0.4209 -1.9126
   59MOL   H15236228   2.065   7.393   2.720 -1.1494 -1.2595 -1.5384
   59MOL   H15336229   2.083   7.560   2.762  0.0250  0.9395 -0.2623
   59MOL   H15436230   2.060   7.525   2.586  2.3171 -2.3169  0.2530
   59MOL   H15536231   1.115   7.690   3.197 -0.2284  1.2551  1.1113
   59MOL   H15636232   1.035   7.613   3.062 -0.7128  1.3877  0.5274
   59MOL   C15736233   0.911   7.662   3.227  0.6185 -0.2175 -0.3866
   59MOL   O15836234   0.809   7.549   3.231 -0.1170 -0.7037  0.4007
   59MOL   C15936235   0.700   7.573   3.321 -0.2036  0.8249 -0.3937
   59MOL   C16036236   0.732   7.528   3.467  0.5733 -0.7376  0.4585
   59MOL   C16136237   0.615   7.532   3.563 -0.3079  0.1211  0.3862
   59MOL   C16236238   0.603   7.659   3.639 -0.1698  0.2343  0.2462
   59MOL   C16336239   0.470   7.647   3.725 -0.0131 -0.0144  0.0387
   59MOL   C16436240   0.463   7.745   3.839 -0.4226  0.0410 -0.2300
   59MOL   C16536241   0.345   7.724   3.937 -0.4326 -0.3693  0.3619
   59MOL   C16636242   0.317   0.070   4.029 -0.0349  0.2779  0.5898
   59MOL   C16736243   0.870   0.013   3.148  0.0323  0.3003  0.6110
   59MOL   H16836244   0.928   7.695   3.330 -1.4293 -1.4859  0.3914
   59MOL   H16936245   0.616   7.520   3.274  0.1338  0.1313 -0.2076
   59MOL   H17036246   0.658   7.674   3.322 -0.1478  0.8452  1.0597
   59MOL   H17136247   0.815   7.591   3.499 -0.1209  0.7532 -0.6354
   59MOL   H17236248   0.766   7.424   3.468 -1.2216 -1.4797 -3.9067
   59MOL   H17336249   0.518   7.505   3.522 -0.4866  3.1823 -1.4219
   59MOL   H17436250   0.648   7.456   3.634  2.1437  0.8229  0.0383
   59MOL   H17536251   0.685   7.668   3.711  2.0641 -3.1827 -1.7383
   59MOL   H17636252   0.596   7.753   3.584 -3.6067  1.2456  2.2331
   59MOL   H17736253   0.383   7.655   3.660  0.7874 -1.5310 -1.2816
   59MOL   H17836254   0.467   7.550   3.774 -1.2312  0.3502  0.6998
   59MOL   H17936255   0.462   0.068   3.788  1.2595 -0.2158 -0.7904
   59MOL   H18036256   0.562   7.743   3.885  1.0029  0.3289 -3.1539
   59MOL   H18136257   0.264   7.714   3.865  0.0238 -0.1644 -0.1783
   59MOL   H18236258   0.368   7.630   3.988 -0.5083 -0.7187 -0.2420
   59MOL   H18336259   0.297   0.163   3.976 -1.5106 -0.5078 -0.2717
   59MOL   H18436260   0.396   0.086   4.103 -1.7128  1.6671  2.1264
   59MOL   H18536261   0.234   0.051   4.096 -0.0228  1.1654  0.8618
   59MOL   H18636262   0.832   7.768   3.047  0.1180  1.7398  0.3015
   59MOL   H18736263   0.779   0.059   3.187  0.3819 -0.7861  2.7720
   59MOL   C18836264   0.968   0.128   3.135  0.1627  0.1332  0.1451
   59MOL   O18936265   0.979   0.173   3.273  0.0153 -0.0431  0.3618
   59MOL   C19036266   1.103   0.147   3.336  0.1492  0.3900  0.5886
   59MOL   C19136267   1.078   0.176   3.483  1.1409 -0.3051  0.5048
   59MOL   C19236268   1.189   0.131   3.581 -0.6957 -0.0333 -0.0657
   59MOL   C19336269   1.152   0.106   3.734  0.4503 -0.1908  0.3056
   59MOL   C19436270   1.268   0.113   3.836 -0.2241 -0.2721  0.3211
   59MOL   C19536271   1.232   0.067   3.983  0.5286 -0.3261  0.7228
   59MOL   C19636272   1.348   0.090   4.074 -0.7321  0.0796  0.1208
   59MOL   C19736273   1.334   0.040   4.222  0.4931 -0.1016  0.5677
   59MOL   C19836274   0.913   0.241   3.038 -0.0381  0.2935 -0.2989
   59MOL   H19936275   1.062   0.085   3.100  0.5474  0.7044  0.4583
   59MOL   H20036276   1.135   0.043   3.346  1.3992  0.9820  3.2064
   59MOL   H20136277   1.181   0.210   3.293  1.7478 -0.0426  2.7670
   59MOL   H20236278   0.992   0.119   3.518  2.8166 -2.7662  0.7253
   59MOL   H20336279   1.051   0.281   3.499  0.8973 -0.6339  2.4321
   59MOL   H20436280   1.227   0.037   3.542  1.0506  0.5252  0.2433
   59MOL   H20536281   1.274   0.196   3.565 -1.3654  1.1662  1.1112
   59MOL   H20636282   1.080   0.185   3.756  0.1780 -0.7033  1.2899
   59MOL   H20736283   1.092   0.016   3.739  1.9669 -1.3239 -1.3176
   59MOL   H20836284   1.345   0.047   3.795  1.5808  0.9597  1.6516
   59MOL   H20936285   1.306   0.214   3.849  3.1989 -1.5101  0.5253
   59MOL   H21036286   1.232   7.732   3.974  0.5680 -0.3653  1.1926
   59MOL   H21136287   1.134   0.102   4.017  0.3074 -0.4884  0.2513
   59MOL   H21236288   1.439   0.052   4.026  0.1901  0.3867  1.5734
   59MOL   H21336289   1.363   0.198   4.074  0.9648 -0.1344  0.6768
   59MOL   H21436290   1.286   7.716   4.222  2.1912 -0.9614  1.2231
   59MOL   H21536291   1.267   0.092   4.289 -0.9870 -0.7856 -0.3667
   59MOL   H21636292   1.434   0.031   4.265  0.4867  0.1916  0.6422
   59MOL   H21736293   0.805   0.225   3.038  0.0975 -1.1980  3.2416
   59MOL   H21836294   0.944   0.337   3.079 -1.1512 -1.0880  4.0548
   59MOL   C21936295   0.969   0.235   2.900  0.2963  0.1528  0.2418
   59MOL   O22036296   1.106   0.228   2.919 -0.4509 -0.8360 -0.6075
   59MOL   C22136297   1.187   0.163   2.823 -0.2784 -0.4075 -0.5585
   59MOL   C22236298   1.331   0.216   2.844 -0.1923  0.3070 -0.1023
   59MOL   C22336299   1.396   0.143   2.967 -0.2872 -0.1518 -0.1062
   59MOL   C22436300   1.549   0.165   2.970 -0.7176 -0.1381  0.5666
   59MOL   C22536301   1.620   0.114   3.096 -0.1916 -0.3627 -0.4906
   59MOL   C22636302   1.773   0.085   3.082 -0.5088  0.6872 -0.0497
   59MOL   C22736303   1.840   0.045   3.216 -0.3322  0.0541  0.0373
   59MOL   C22836304   1.978   7.754   3.177  0.1783 -0.3727 -0.6702
   59MOL   C22936305   0.938   0.347   2.797  0.0838  0.7974 -0.0461
   59MOL   H23036306   0.939   0.144   2.847 -2.7787  1.6764 -0.7628
   59MOL   H23136307   1.152   0.191   2.724 -1.1509 -0.8958 -0.3975
   59MOL   H23236308   1.189   0.054   2.831  3.3227 -0.5277 -2.3435
   59MOL   H23336309   1.320   0.323   2.859  0.4902  0.4944 -0.8915
   59MOL   H23436310   1.385   0.207   2.750 -0.4133  2.4678 -0.4584
   59MOL   H23536311   1.345   0.177   3.057  0.9307  2.4298 -0.3576
   59MOL   H23636312   1.385   0.035   2.966  0.8020 -0.2687  0.4902
   59MOL   H23736313   1.601   0.117   2.887  1.9511  1.3188  1.3211
   59MOL   H23836314   1.570   0.272   2.960  1.0564 -0.4960  0.2337
   59MOL   H23936315   1.602   0.183   3.179  1.0498 -0.2652 -0.2858
   59MOL   H24036316   1.565   0.022   3.117 -1.1519  0.1503 -0.7340
   59MOL   H24136317   1.822   0.176   3.047  0.0220  0.4811  0.1517
   59MOL   H24236318   1.797   0.003   3.015  1.4748  0.0882  1.3535
   59MOL   H24336319   1.850   0.131   3.282  0.4609 -0.3147  0.4013
   59MOL   H24436320   1.779   7.746   3.269  0.5449  0.0322  1.0255
   59MOL   H24536321   2.034   7.725   3.266  0.1497  1.7011  0.0607
   59MOL   H24636322   2.041   0.046   3.119 -0.3909  1.6652  0.9593
   59MOL   H24736323   1.970   7.669   3.109 -2.6891 -0.6463 -0.0554
   59MOL   H24836324   0.952   0.438   2.854 -1.7161  1.0048  0.1187
   59MOL   H24936325   1.013   0.353   2.719 -1.0176 -1.4735 -1.3534
   59MOL   C25036326   0.795   0.342   2.730 -0.6451  1.0697  0.7830
   59MOL   O25136327   0.791   0.214   2.663 -0.0355  0.0863 -0.2295
   59MOL   C25236328   0.670   0.164   2.610 -0.3177 -0.3511  0.0755
   59MOL   C25336329   0.698   0.025   2.547 -0.4841  0.3906 -0.0484
   59MOL   C25436330   0.759   0.040   2.409  0.1130 -0.0005  0.0459
   59MOL   C25536331   0.768   7.683   2.329 -0.1536  0.5166  0.4238
   59MOL   C25636332   0.807   7.717   2.180 -0.4404  0.2208  0.0708
   59MOL   C25736333   0.919   7.628   2.130 -0.2384 -0.5491 -0.4983
   59MOL   C25836334   0.958   7.648   1.979  0.2761 -0.0648 -0.2143
   59MOL   C25936335   1.034   0.005   1.950  0.3107 -0.2717  0.3868
   59MOL   C26036336   0.766   0.456   2.627 -0.2415 -0.0847 -0.9074
   59MOL   H26136337   0.711   0.352   2.800 -0.4278  2.4920  0.8478
   59MOL   H26236338   0.624   0.237   2.542 -2.3550 -1.2593  0.4316
   59MOL   H26336339   0.617   0.148   2.704  2.4247  0.9329  1.8878
   59MOL   H26436340   0.607   7.740   2.538  1.3921 -2.5984  0.1650
   59MOL   H26536341   0.750   7.721   2.603 -2.1348 -2.1162 -1.9436
   59MOL   H26636342   0.690   0.097   2.347  1.2662  1.5291  0.1519
   59MOL   H26736343   0.849   0.100   2.413 -1.1082  1.9573 -0.8819
   59MOL   H26836344   0.847   7.626   2.379  0.4641  1.9190  1.0936
   59MOL   H26936345   0.677   7.625   2.335 -0.3518  0.4607 -2.3948
   59MOL   H27036346   0.726   7.710   2.108  2.2406  1.0783 -3.1672
   59MOL   H27136347   0.855   0.039   2.169 -0.4800  0.0516 -1.7008
   59MOL   H27236348   0.883   7.527   2.145 -1.7557  0.3324  2.1478
   59MOL   H27336349   1.007   7.635   2.194 -0.2753 -0.8787 -0.4128
   59MOL   H27436350   1.020   7.562   1.952  1.8412  0.1193  2.5317
   59MOL   H27536351   0.869   7.642   1.917  0.1448  2.1891 -0.2801
   59MOL   H27636352   0.962   0.086   1.954 -0.7137 -1.1564  0.0368
   59MOL   H27736353   1.052   7.761   1.844 -1.9923 -0.5992  0.0201
   59MOL   H27836354   1.128   0.020   2.004 -0.2990  0.4988  1.2448
   59MOL   H27936355   0.835   0.448   2.543  1.1088  0.3918  0.1217
   59MOL   H28036356   0.667   0.443   2.584 -0.2915  0.9507 -1.1255
   59MOL   C28136357   0.764   0.599   2.671 -0.0808  0.2425  0.6382
   59MOL   O28236358   0.636   0.621   2.733  0.4676 -0.5012  0.3619
   59MOL   C28336359   0.646   0.662   2.868  0.0745 -0.1138 -0.0585
   59MOL   C28436360   0.503   0.663   2.924 -0.4100 -0.0926  0.1472
   59MOL   C28536361   0.501   0.716   3.073 -0.1952 -0.1824 -0.4060
   59MOL   C28636362   0.373   0.697   3.147  0.6033 -0.1733 -0.6808
   59MOL   C28736363   0.382   0.737   3.294 -0.7877 -0.4524 -0.2995
   59MOL   C28836364   0.408   0.889   3.310  0.0169 -0.3051  0.1322
   59MOL   C28936365   0.411   0.940   3.462  0.3249  0.3552 -0.0705
   59MOL   C29036366   0.463   1.083   3.486 -0.1764 -0.0519 -0.3328
   59MOL   C29136367   0.772   0.696   2.557  0.5304  0.1490 -0.2919
   59MOL   H29236368   0.850   0.633   2.729 -1.3871  2.2526  1.4361
   59MOL   H29336369   0.700   0.756   2.861  0.0150 -0.1682 -1.4361
   59MOL   H29436370   0.708   0.592   2.924  0.0163  1.9578  2.7471
   59MOL   H29536371   0.469   0.560   2.925  1.1396 -0.6390 -2.1296
   59MOL   H29636372   0.434   0.716   2.857  0.6183 -2.7048 -3.1010
   59MOL   H29736373   0.570   0.652   3.127  1.9481  0.1610 -2.6251
   59MOL   H29836374   0.539   0.819   3.075  0.2192 -0.3542  2.1932
   59MOL   H29936375   0.303   0.767   3.101  3.0940  2.5511 -0.5131
   59MOL   H30036376   0.330   0.598   3.130 -0.0065  0.1711 -1.1448
   59MOL   H30136377   0.286   0.708   3.336 -1.1131  0.4825 -0.3774
   59MOL   H30236378   0.455   0.678   3.350 -0.7334 -0.1236 -0.0195
   59MOL   H30336379   0.336   0.954   3.259  0.2267 -0.1940 -0.0203
   59MOL   H30436380   0.508   0.916   3.278 -1.0215  2.3274 -1.0964
   59MOL   H30536381   0.305   0.942   3.491  0.5541  4.0442  0.7581
   59MOL   H30636382   0.467   0.874   3.528  1.1892  1.9333  0.7779
   59MOL   H30736383   0.572   1.086   3.478  0.2381 -0.7650  3.7987
   59MOL   H30836384   0.436   1.123   3.584 -1.2191 -1.2327 -0.1180
   59MOL   H30936385   0.424   1.143   3.405 -1.3346  2.8891  2.2852
   59MOL   H31036386   0.859   0.684   2.494 -0.4971 -0.8533 -1.5477
   59MOL   H31136387   0.697   0.671   2.482  1.4420 -0.7194 -0.9161
   59MOL   C31236388   0.773   0.845   2.583  0.1349 -0.3958 -0.4041
   59MOL   O31336389   0.722   0.908   2.462 -0.6002 -0.1217  1.3549
   59MOL   C31436390   0.590   0.957   2.467  0.1114 -0.9630  0.6380
   59MOL   C31536391   0.538   0.994   2.328  0.3917 -0.6250 -0.1175
   59MOL   C31636392   0.546   0.874   2.236  0.0116 -0.0566  0.4049
   59MOL   C31736393   0.472   0.896   2.100 -0.2168 -0.2030  0.2344
   59MOL   C31836394   0.503   0.783   1.994 -0.1933 -0.0161  0.4491
   59MOL   C31936395   0.393   0.757   1.891 -0.2652  0.6320  0.2419
   59MOL   C32036396   0.436   0.664   1.776  0.0706 -0.0166  0.3327
   59MOL   C32136397   0.355   0.656   1.640  0.2961 -0.0805 -0.0265
   59MOL   C32236398   0.911   0.914   2.624 -0.2307 -0.7139  0.0274
   59MOL   H32336399   0.701   0.859   2.664 -2.9901 -1.9594 -2.8061
   59MOL   H32436400   0.592   1.043   2.535 -1.1739  0.1074 -0.6519
   59MOL   H32536401   0.525   0.880   2.509 -1.0979 -0.1353  0.3164
   59MOL   H32636402   0.595   1.067   2.272  0.5750 -1.8512 -1.5609
   59MOL   H32736403   0.439   1.037   2.342  2.0066  2.5125  2.1687
   59MOL   H32836404   0.651   0.850   2.221  0.1309  0.1697  0.8957
   59MOL   H32936405   0.500   0.791   2.289 -0.1577 -0.3453 -0.1854
   59MOL   H33036406   0.366   0.891   2.124 -0.0571  2.0177  1.5268
   59MOL   H33136407   0.496   0.995   2.063 -1.1951  0.0367  0.2210
   59MOL   H33236408   0.597   0.804   1.943 -0.0044  0.7632  1.1239
   59MOL   H33336409   0.529   0.692   2.048  1.9386  0.4614  0.2767
   59MOL   H33436410   0.355   0.851   1.850  1.5812  0.5875 -1.6716
   59MOL   H33536411   0.298   0.721   1.932 -0.5301  3.4385  2.3210
   59MOL   H33636412   0.539   0.667   1.742  0.3363  1.4262  1.2419
   59MOL   H33736413   0.427   0.564   1.819  0.0605 -0.7671 -1.3655
   59MOL   H33836414   0.370   0.751   1.589  1.1821 -0.0192  0.3338
   59MOL   H33936415   0.251   0.659   1.671  0.1306 -0.5194 -0.5303
   59MOL   H34036416   0.385   0.570   1.579  0.6058 -0.9468  1.3273
   59MOL   H34136417   0.945   0.865   2.715  0.7569  0.9728  0.5950
   59MOL   H34236418   0.987   0.888   2.550 -0.0141  1.0386 -0.3801
   59MOL   C34336419   0.889   1.064   2.649  0.0908  0.0976  0.0161
   59MOL   O34436420   1.019   1.115   2.686  0.1947  0.0786  0.3208
   59MOL   C34536421   1.095   1.170   2.573 -0.7871  0.7692 -0.5384
   59MOL   C34636422   1.198   1.265   2.629  0.3173  0.0329 -0.1224
   59MOL   C34736423   1.307   1.206   2.719  0.6634  0.1822 -0.4191
   59MOL   C34836424   1.405   1.309   2.773  0.1884 -0.2123  0.2145
   59MOL   C34936425   1.333   1.404   2.877  0.4436  0.2522  0.3884
   59MOL   C35036426   1.423   1.480   2.968 -0.2677  0.0813  0.0228
   59MOL   C35136427   1.338   1.574   3.052 -0.2610 -0.3262 -0.2256
   59MOL   C35236428   1.415   1.673   3.144 -0.1967 -0.6000  0.8934
   59MOL   C35336429   0.801   1.093   2.775 -0.2499  0.2312 -0.2658
   59MOL   H35436430   0.847   1.116   2.562  0.0346  0.2634  0.1426
   59MOL   H35536431   1.039   1.226   2.499 -0.1624 -0.4439 -1.9460
   59MOL   H35636432   1.143   1.085   2.525 -1.9971  0.2525 -0.8622
   59MOL   H35736433   1.147   1.346   2.680  2.4365  2.0746 -1.1436
   59MOL   H35836434   1.242   1.325   2.549  2.6032 -0.6677  0.5711
   59MOL   H35936435   1.261   1.156   2.804  1.4971 -0.4941 -0.3643
   59MOL   H36036436   1.355   1.127   2.660 -0.8487 -1.8286  1.0001
   59MOL   H36136437   1.491   1.255   2.813  0.3606  0.7572  1.2036
   59MOL   H36236438   1.435   1.366   2.685  1.4756 -2.6030 -0.9191
   59MOL   H36336439   1.270   1.476   2.827 -0.8156 -0.9586  0.2034
   59MOL   H36436440   1.263   1.336   2.925 -0.0540 -1.6164 -2.8959
   59MOL   H36536441   1.496   1.538   2.910  0.0917 -0.6685 -0.2771
   59MOL   H36636442   1.472   1.403   3.028  2.0678  0.7617 -0.9655
   59MOL   H36736443   1.291   1.647   2.986 -0.6984  0.3807  0.8488
   59MOL   H36836444   1.259   1.522   3.106 -1.1907  1.3508  0.0600
   59MOL   H36936445   1.477   1.733   3.078 -1.5111 -0.4986 -0.2715
   59MOL   H37036446   1.487   1.632   3.216  4.0093  1.9027 -1.6852
   59MOL   H37136447   1.347   1.741   3.194 -1.3102 -1.9661  1.2829
   59MOL   H37236448   0.696   1.072   2.753 -0.6586  2.3446 -0.4245
   59MOL   H37336449   0.818   1.025   2.859 -1.4446  0.1230 -0.1042
   59MOL   C37436450   0.812   1.229   2.842  0.4606 -0.9937 -0.1394
   59MOL   O37536451   0.738   1.221   2.962 -0.3228  0.1306 -0.4435
   59MOL   C37636452   0.806   1.266   3.077  0.2755  0.1283 -0.2517
   59MOL   C37736453   0.710   1.292   3.194 -0.6515  0.7283 -0.7178
   59MOL   C37836454   0.623   1.414   3.158 -0.4615 -0.4752 -0.5836
   59MOL   C37936455   0.506   1.446   3.263 -0.3389  0.5257 -0.5969
   59MOL   C38036456   0.391   1.530   3.210  0.0417  0.0323 -0.0938
   59MOL   C38136457   0.266   1.534   3.310 -0.6111 -0.4378 -0.3744
   59MOL   C38236458   0.153   1.621   3.262  0.7010  0.2250 -0.4561
   59MOL   C38336459   0.035   1.615   3.357  0.5710  0.2077 -0.3523
   59MOL   C38436460   0.751   1.337   2.747 -0.2332  0.2723  0.0795
   59MOL   H38536461   0.917   1.240   2.867  0.6108  0.8444 -1.5336
   59MOL   H38636462   0.868   1.352   3.052 -0.7154  1.2946  1.1959
   59MOL   H38736463   0.879   1.189   3.102 -0.5310 -0.6124 -0.1865
   59MOL   H38836464   0.752   1.321   3.291 -2.0503  0.0509  0.1156
   59MOL   H38936465   0.648   1.205   3.212 -0.0832  0.3598 -0.5344
   59MOL   H39036466   0.695   1.496   3.149  1.6480 -2.3482 -1.3473
   59MOL   H39136467   0.576   1.390   3.062 -1.4291  2.1954 -0.8245
   59MOL   H39236468   0.467   1.358   3.313 -0.2472  1.9810  2.1177
   59MOL   H39336469   0.545   1.511   3.341 -0.6115 -0.0519  0.0228
   59MOL   H39436470   0.427   1.629   3.181 -2.6753  1.3626  0.8852
   59MOL   H39536471   0.356   1.481   3.119 -0.7281  0.2954  0.0598
   59MOL   H39636472   0.290   1.563   3.412  1.3926 -1.6421 -0.4962
   59MOL   H39736473   0.216   1.438   3.326 -4.0338  1.1212 -1.1277
   59MOL   H39836474   0.195   1.721   3.248  0.8142  0.2214 -0.1551
   59MOL   H39936475   0.111   1.595   3.165 -0.8568 -0.5726  0.4230
   59MOL   H40036476   7.716   1.663   3.327  0.2587 -0.6754 -0.8054
   59MOL   H40136477   0.055   1.656   3.456  0.3585 -0.2331 -0.1276
   59MOL   H40236478   0.004   1.511   3.356  0.0107  0.3759 -2.8795
   59MOL   H40336479   0.793   1.337   2.647 -0.6593 -0.6821 -0.1065
   59MOL   H40436480   0.644   1.315   2.742 -0.2651 -0.5732  3.0954
   59MOL   C40536481   0.774   1.479   2.795 -0.7158 -0.0015  0.6049
   59MOL   O40636482   0.696   1.568   2.712  0.3998 -0.2323 -0.5666
   59MOL   C40736483   0.562   1.604   2.768 -0.4806 -0.4522 -0.1632
   59MOL   C40836484   0.465   1.611   2.644  0.5977 -0.4399 -0.4306
   59MOL   C40936485   0.435   1.465   2.588  0.2225  0.8899  0.2130
   59MOL   C41036486   0.351   1.474   2.465  0.4161  0.1006  0.3694
   59MOL   C41136487   0.296   1.332   2.438  0.7290  0.3553  0.3437
   59MOL   C41236488   0.203   1.316   2.310  0.3850  0.0954  0.4379
   59MOL   C41336489   0.256   1.217   2.202 -0.3681 -0.5535 -0.1445
   59MOL   C41436490   0.396   1.251   2.139  0.4833 -0.3134 -0.3554
   59MOL   C41536491   0.919   1.527   2.777  0.0685  0.7088 -0.1583
   59MOL   H41636492   0.755   1.489   2.902  1.6675  1.3001  0.9454
   59MOL   H41736493   0.563   1.702   2.816 -2.4669  0.1452 -1.2775
   59MOL   H41836494   0.530   1.531   2.842 -1.2360  0.9896  0.9446
   59MOL   H41936495   0.508   1.665   2.560  2.3004 -0.9107  0.1335
   59MOL   H42036496   0.377   1.663   2.682 -0.5863 -0.8948 -2.4686
   59MOL   H42136497   0.519   1.399   2.565  0.3276  1.0567  0.1172
   59MOL   H42236498   0.380   1.413   2.667 -1.8643  0.5673 -1.4108
   59MOL   H42336499   0.264   1.534   2.492  1.5633  2.2156 -0.4901
   59MOL   H42436500   0.408   1.514   2.381  0.4923 -1.4456 -0.3368
   59MOL   H42536501   0.382   1.264   2.443 -0.9364 -1.7574  1.2002
   59MOL   H42636502   0.232   1.304   2.521  0.2195 -0.7467 -0.4049
   59MOL   H42736503   0.183   1.408   2.256 -0.6784 -0.8453 -0.7990
   59MOL   H42836504   0.103   1.302   2.353  1.4526  0.1137  3.0140
   59MOL   H42936505   0.263   1.115   2.240  1.7999  0.0046  1.0214
   59MOL   H43036506   0.187   1.227   2.119 -0.5273 -0.3975  0.0058
   59MOL   H43136507   0.425   1.213   2.041 -0.8966 -2.6369  0.0838
   59MOL   H43236508   0.474   1.225   2.210 -0.8878 -1.4515  0.7648
   59MOL   H43336509   0.397   1.359   2.127 -0.9773 -0.3240 -0.7434
   59MOL   H43436510   0.976   1.445   2.822 -1.3783  0.0677  0.5297
   59MOL   H43536511   0.942   1.523   2.670 -3.4550  0.7103 -0.9852
   59MOL   C43636512   0.964   1.664   2.844  0.4295 -0.7468  0.2053
   59MOL   O43736513   1.099   1.690   2.820  0.3952 -0.4403  0.4676
   59MOL   C43836514   1.126   1.743   2.691  0.3098  0.2729 -0.5274
   59MOL   C43936515   1.275   1.758   2.671 -0.2023 -0.0258 -0.0071
   59MOL   C44036516   1.342   1.853   2.769  0.5065  0.2837 -0.3290
   59MOL   C44136517   1.494   1.838   2.768  0.2134  0.3715  0.0232
   59MOL   C44236518   1.560   1.857   2.631 -0.1541 -0.3423  0.5258
   59MOL   C44336519   1.709   1.815   2.638 -0.1828  0.9152 -0.5229
   59MOL   C44436520   1.781   1.810   2.506 -0.0993 -0.6031 -0.8065
   59MOL   C44536521   1.927   1.772   2.511  0.8485 -0.2270  0.0389
   59MOL   C44636522   0.939   1.665   2.994  0.2259  0.4864  0.3313
   59MOL   H44736523   0.903   1.743   2.801  0.9368 -0.5397 -0.1466
   59MOL   H44836524   1.080   1.685   2.610 -1.9727  0.7300  0.4012
   59MOL   H44936525   1.079   1.841   2.700 -1.0631 -0.3761 -0.3593
   59MOL   H45036526   1.287   1.810   2.576 -0.9356  0.2457  0.0435
   59MOL   H45136527   1.315   1.657   2.682 -0.3698 -0.2376 -1.2222
   59MOL   H45236528   1.312   1.957   2.752 -0.2293 -0.1162 -1.4964
   59MOL   H45336529   1.313   1.833   2.872  1.7993  1.7240  0.3341
   59MOL   H45436530   1.537   1.906   2.840 -1.3456 -0.8446  2.1623
   59MOL   H45536531   1.513   1.739   2.808  2.9952  1.3130  1.0943
   59MOL   H45636532   1.515   1.806   2.546  1.4537 -0.8656 -0.0399
   59MOL   H45736533   1.554   1.961   2.599 -0.2340 -0.0750  1.3873
   59MOL   H45836534   1.738   1.728   2.698  0.4326  0.3782 -1.5868
   59MOL   H45936535   1.752   1.895   2.698  0.4950  2.0891 -2.5131
   59MOL   H46036536   1.727   1.754   2.429 -0.7592 -1.2882  0.1393
   59MOL   H46136537   1.766   1.904   2.454  1.3921 -0.5945 -1.2320
   59MOL   H46236538   1.989   1.839   2.571 -0.2340 -1.0269  2.0809
   59MOL   H46336539   1.965   1.771   2.409 -0.9049 -2.4162 -0.6395
   59MOL   H46436540   1.937   1.669   2.545  0.7928  0.0347  0.8591
   59MOL   H46536541   0.834   1.644   3.018  0.0640 -0.0011 -0.7584
   59MOL   H46636542   0.968   1.565   3.026  0.0437  0.2581 -0.2031
   59MOL   C46736543   0.992   1.777   3.080  0.4810  0.2060 -0.8512
   59MOL   O46836544   0.925   1.769   3.209  0.3981 -0.0918  0.3659
   59MOL   C46936545   0.961   1.664   3.298  0.2267  0.1169 -0.0745
   59MOL   C47036546   0.868   1.672   3.421 -0.2288 -0.7313 -0.2970
   59MOL   C47136547   0.885   1.566   3.531  0.4906 -0.1490  0.3408
   59MOL   C47236548   0.826   1.602   3.661 -0.0375 -0.0840 -0.2831
   59MOL   C47336549   0.674   1.642   3.652 -0.5218 -0.1524 -0.4395
   59MOL   C47436550   0.596   1.655   3.784  0.0695 -0.4860 -0.1305
   59MOL   C47536551   0.445   1.649   3.774  0.0914  0.0767 -0.0719
   59MOL   C47636552   0.367   1.657   3.905 -0.8147 -0.2981 -0.5880
   59MOL   C47736553   0.956   1.915   3.034 -0.2241 -0.0381 -0.8963
   59MOL   H47836554   1.099   1.761   3.077  0.6691  0.5157  2.4367
   59MOL   H47936555   1.063   1.687   3.331 -0.1970 -0.8810  1.9786
   59MOL   H48036556   0.947   1.568   3.248 -1.7965  0.8516 -0.9742
   59MOL   H48136557   0.765   1.690   3.392  0.1095  1.3326 -0.2948
   59MOL   H48236558   0.905   1.758   3.476  0.7557 -0.4130 -1.4235
   59MOL   H48336559   0.836   1.476   3.493  0.8106 -1.2229  2.3505
   59MOL   H48436560   0.991   1.552   3.549  0.5695  0.1245  0.0907
   59MOL   H48536561   0.837   1.522   3.734 -0.2798 -2.5037 -2.8235
   59MOL   H48636562   0.861   1.696   3.702 -0.6689  0.9584 -2.0864
   59MOL   H48736563   0.672   1.738   3.600 -2.2846 -0.3851 -0.8468
   59MOL   H48836564   0.619   1.583   3.579 -0.3471 -0.2158 -0.5181
   59MOL   H48936565   0.634   1.741   3.840  0.0231 -1.5337  1.5482
   59MOL   H49036566   0.622   1.574   3.852 -0.8000 -1.5702 -1.0791
   59MOL   H49136567   0.408   1.716   3.696 -1.2085 -0.7800 -0.2017
   59MOL   H49236568   0.418   1.548   3.743 -0.3022 -0.1637  1.0085
   59MOL   H49336569   0.428   1.589   3.966 -0.6393 -0.9762 -1.5120
   59MOL   H49436570   0.263   1.627   3.892 -0.8181  0.8301 -3.3247
   59MOL   H49536571   0.372   1.756   3.949 -0.0126 -0.8538  0.5970
   59MOL   H49636572   0.960   1.935   2.927  1.1075 -0.3089 -0.9018
   59MOL   H49736573   0.852   1.944   3.050  0.2320 -0.1199  2.5935
   59MOL   C49836574   1.041   2.030   3.108 -0.6482  0.2026  0.8480
   59MOL   O49936575   0.984   2.157   3.112  0.1110  0.0819  0.1468
   59MOL   C50036576   0.874   2.176   3.202  0.6385  1.0203 -0.5749
   59MOL   C50136577   0.861   2.317   3.226 -0.2507 -0.9648  0.2618
   59MOL   C50236578   0.983   2.369   3.303 -0.0976 -0.0579  0.1452
   59MOL   C50336579   0.985   2.515   3.316 -0.4649  0.2586  0.3951
   59MOL   C50436580   1.092   2.573   3.412  0.3078  0.6306 -0.0010
   59MOL   C50536581   1.039   2.559   3.556  0.6026 -0.0124  0.1676
   59MOL   C50636582   1.140   2.598   3.665 -0.1955  0.0813  0.3221
   59MOL   C50736583   1.075   2.599   3.809 -0.4582 -0.5145  1.0870
   59MOL   C50836584   1.178   2.043   3.040 -0.8714 -0.6591  0.0565
   59MOL   H50936585   1.059   1.993   3.209 -1.7046  0.0328  0.9743
   59MOL   H51036586   0.901   2.125   3.294 -0.7912  0.5521 -0.3943
   59MOL   H51136587   0.780   2.132   3.167  0.8661 -0.2105  0.3261
   59MOL   H51236588   0.778   2.339   3.292  0.0209  1.0132 -0.0444
   59MOL   H51336589   0.862   2.372   3.132  0.2216 -0.5112  0.5320
   59MOL   H51436590   1.004   2.320   3.399 -1.2765 -0.3949  0.2396
   59MOL   H51536591   1.067   2.355   3.236 -0.6382  0.9685 -0.7620
   59MOL   H51636592   1.010   2.559   3.219  1.4741  0.3316  0.9075
   59MOL   H51736593   0.886   2.554   3.342 -0.7759 -2.3347  3.2726
   59MOL   H51836594   1.177   2.508   3.391 -0.0015  0.2413 -0.0657
   59MOL   H51936595   1.118   2.673   3.377 -2.2393  0.7025 -1.8610
   59MOL   H52036596   1.022   2.454   3.581 -0.0270  0.0572  0.0586
   59MOL   H52136597   0.943   2.610   3.565 -0.8349 -2.7813  1.1514
   59MOL   H52236598   1.223   2.528   3.660  1.0978  1.5624  0.7517
   59MOL   H52336599   1.182   2.696   3.645 -1.1674  0.9714  2.5290
   59MOL   H52436600   1.151   2.623   3.884  1.0823  0.7705 -0.8108
   59MOL   H52536601   1.033   2.504   3.840 -1.0541 -1.1541 -1.5269
   59MOL   H52636602   0.994   2.671   3.805 -3.4024 -3.7677 -3.1302
   59MOL   H52736603   1.215   1.941   3.035  0.4625 -0.2322  1.2172
   59MOL   H52836604   1.165   2.070   2.935 -1.3263  0.7097  0.4553
   59MOL   C52936605   1.265   2.137   3.119  0.2033  0.4075 -0.6296
   59MOL   O53036606   1.390   2.138   3.049  0.1504 -0.2491  0.1055
   59MOL   C53136607   1.399   2.214   2.938 -0.4121  0.0286 -0.1354
   59MOL   C53236608   1.551   2.237   2.911  0.2233 -0.6633  0.1621
   59MOL   C53336609   1.584   2.335   2.794 -0.1639  0.6071  0.1393
   59MOL   C53436610   1.655   2.279   2.673  0.0552  0.6051  0.5883
   59MOL   C53536611   1.796   2.237   2.706 -0.7109  0.2866  0.1909
   59MOL   C53636612   1.884   2.238   2.574  0.4121  0.3090  0.2966
   59MOL   C53736613   2.019   2.191   2.608 -0.1106  0.6176 -0.0129
   59MOL   C53836614   2.109   2.132   2.496  0.5773  0.7216 -0.1921
   59MOL   C53936615   1.310   2.083   3.258  0.0967  0.1397  0.8663
   59MOL   H54036616   1.224   2.238   3.127 -0.0889  0.3612 -1.4563
   59MOL   H54136617   1.351   2.172   2.849 -1.4616  3.4732 -1.2844
   59MOL   H54236618   1.348   2.308   2.958  0.6922  0.5610  0.2277
   59MOL   H54336619   1.601   2.141   2.900 -3.0010 -2.6587  2.1435
   59MOL   H54436620   1.610   2.272   2.995 -1.2015 -0.4859  1.0977
   59MOL   H54536621   1.489   2.382   2.768 -1.6165 -0.9636  2.4423
   59MOL   H54636622   1.650   2.412   2.835 -0.4272  1.2610 -0.6457
   59MOL   H54736623   1.608   2.185   2.645  0.9350 -0.4118  2.4419
   59MOL   H54836624   1.664   2.342   2.584 -0.1183 -0.0040  0.1329
   59MOL   H54936625   1.837   2.294   2.789  1.6348 -0.0667 -0.6984
   59MOL   H55036626   1.797   2.137   2.750  0.1398  0.1089 -0.2186
   59MOL   H55136627   1.900   2.338   2.531  0.3680  0.3944  0.4799
   59MOL   H55236628   1.844   2.167   2.501  0.9662  1.4522 -1.1484
   59MOL   H55336629   2.063   2.279   2.655  1.2273  0.6969 -1.3752
   59MOL   H55436630   2.009   2.112   2.682 -0.6952 -0.1548 -0.9073
   59MOL   H55536631   2.206   2.097   2.531  0.0835  1.0898  1.5523
   59MOL   H55636632   2.137   2.208   2.422 -0.0518 -0.8856 -2.1359
   59MOL   H55736633   2.058   2.051   2.444 -1.5433  1.9704 -0.1185
   59MOL   H55836634   1.233   2.061   3.332 -0.8508  2.3189  0.5654
   59MOL   H55936635   1.341   1.980   3.241 -1.4052 -0.0245 -1.0697
   59MOL   C56036636   1.422   2.158   3.319  0.3219 -0.5365  0.2074
   59MOL   O56136637   1.441   2.088   3.441 -0.2678  0.1331 -0.1917
   59MOL   C56236638   1.547   1.989   3.445 -0.9273 -0.5105 -0.8606
   59MOL   C56336639   1.543   1.895   3.577  0.7452 -0.4595  0.0615
   59MOL   C56436640   1.425   1.795   3.574 -0.6567  0.5250 -0.6085
   59MOL   C56536641   1.414   1.701   3.698 -0.6482 -0.7219  0.1099
   59MOL   C56636642   1.290   1.614   3.691  0.2770  0.2443 -0.1451
   59MOL   C56736643   1.276   1.510   3.809  0.5636 -0.3272 -0.4621
   59MOL   C56836644   1.305   1.354   3.766  0.0890 -0.8129  0.1090
   59MOL   C56936645   1.449   1.330   3.739 -0.0939  0.5690 -0.0642
   59MOL   C57036646   1.390   2.308   3.344  0.6412  0.2806  0.7962
   59MOL   H57136647   1.510   2.155   3.254  0.4206  0.7340  0.2614
   59MOL   H57236648   1.651   2.025   3.442 -0.2188 -2.4089  0.3688
   59MOL   H57336649   1.552   1.928   3.355  0.7513 -0.7175 -0.6429
   59MOL   H57436650   1.535   1.957   3.666  2.9195  0.8651 -0.6224
   59MOL   H57536651   1.633   1.834   3.585  1.4792  0.4989 -0.7008
   59MOL   H57636652   1.323   1.833   3.562 -0.3970  1.0765 -1.1009
   59MOL   H57736653   1.451   1.728   3.492  0.9466  0.6863 -0.2330
   59MOL   H57836654   1.502   1.638   3.705 -0.5427 -0.7574 -1.3054
   59MOL   H57936655   1.397   1.763   3.786 -0.2048 -0.4695  0.0179
   59MOL   H58036656   1.206   1.683   3.682  1.0672  1.0465 -1.6225
   59MOL   H58136657   1.294   1.564   3.594 -2.0448 -0.5400  0.1400
   59MOL   H58236658   1.184   1.536   3.862 -0.4280 -1.5637 -1.5281
   59MOL   H58336659   1.348   1.546   3.882  0.8433 -0.2984 -0.7496
   59MOL   H58436660   1.275   1.281   3.841 -1.7316 -0.7085 -0.4836
   59MOL   H58536661   1.249   1.328   3.676 -0.6636 -1.9961  0.9216
   59MOL   H58636662   1.481   1.227   3.724 -0.9035  0.3666 -0.4136
   59MOL   H58736663   1.506   1.353   3.829  0.8514  1.6989 -0.9261
   59MOL   H58836664   1.484   1.389   3.654 -1.7097  1.3728 -0.1865
   59MOL   H58936665   1.343   2.358   3.260 -0.5045 -2.8400 -0.5174
   59MOL   H59036666   1.304   2.320   3.411 -1.0717  1.6323 -1.5534
   59MOL   C59136667   1.509   2.384   3.402  1.2572 -0.2436  0.8301
   59MOL   O59236668   1.452   2.513   3.445  0.3555  0.1360 -0.7830
   59MOL   C59336669   1.532   2.619   3.497  0.4942  0.2145  0.3841
   59MOL   C59436670   1.548   2.610   3.648 -0.0492  0.4223  0.0921
   59MOL   C59536671   1.533   2.740   3.722 -0.1422  0.2572 -0.0657
   59MOL   C59636672   1.563   2.746   3.867 -0.9316  0.5377 -0.3723
   59MOL   C59736673   1.702   2.707   3.912 -0.2031 -0.3622 -1.0033
   59MOL   C59836674   1.715   2.720   4.065  0.3874 -0.6050  0.5247
   59MOL   C59936675   1.864   2.682   4.105 -0.0297 -0.0721  0.5232
   59MOL   C60036676   1.891   2.683   4.255  0.3053 -0.4042 -0.7358
   59MOL   C60136677   1.626   2.399   3.306 -0.5127  0.1820 -0.4571
   59MOL   H60236678   1.547   2.335   3.492  3.4855 -0.9209 -0.4253
   59MOL   H60336679   1.475   2.705   3.464  0.1839  0.0245  0.4283
   59MOL   H60436680   1.628   2.620   3.445 -0.2860  1.1122 -1.0565
   59MOL   H60536681   1.643   2.560   3.665  0.3556  1.3844  0.7753
   59MOL   H60636682   1.478   2.535   3.682  0.2059 -0.5915 -1.5626
   59MOL   H60736683   1.604   2.811   3.678  2.0065 -1.6224  0.2832
   59MOL   H60836684   1.431   2.776   3.713  0.5723  1.8766 -2.5479
   59MOL   H60936685   1.536   2.845   3.904 -0.5983 -0.2350  2.0091
   59MOL   H61036686   1.499   2.676   3.920 -1.8069  0.4181 -1.5614
   59MOL   H61136687   1.716   2.608   3.870 -0.8479 -0.0420 -1.9783
   59MOL   H61236688   1.783   2.765   3.869  1.4358 -0.4991  1.7475
   59MOL   H61336689   1.640   2.673   4.128 -2.2565  0.4507 -1.6849
   59MOL   H61436690   1.722   2.825   4.092 -0.4393 -0.9185  1.9722
   59MOL   H61536691   1.894   2.584   4.069  3.5569  0.8325  0.8625
   59MOL   H61636692   1.938   2.738   4.047 -0.3758 -1.2061 -1.0406
   59MOL   H61736693   1.894   2.790   4.275 -2.5963 -0.4389  0.1805
   59MOL   H61836694   1.985   2.631   4.274  0.8703  0.5405 -0.9675
   59MOL   H61936695   1.811   2.637   4.314 -0.3586  2.0429  0.3140
   59MOL   H62036696   1.597   2.440   3.209  1.1321  1.6099 -0.3509
   59MOL   H62136697   1.713   2.446   3.351 -1.0352 -0.0269  0.8159
   59MOL   H62236698   1.669   2.303   3.277 -0.1068  0.2065  0.0562
   60MOL     C136699   4.060   0.420   0.008 -0.0156 -0.8248  0.2520
   60MOL     O236700   3.996   0.557   0.007  0.1616  0.0133 -0.2236
   60MOL     C336701   4.045   0.649   0.108 -0.1233 -0.2250  0.6153
   60MOL     C436702   3.960   0.776   0.113 -0.5819 -0.4873  0.0588
   60MOL     C536703   3.968   0.862   7.760 -0.5090  0.2428 -0.3569
   60MOL     C636704   3.875   0.980   7.762 -0.0237 -0.6343 -0.2837
   60MOL     C736705   3.855   1.027   7.611  0.0385  0.0543  0.2360
   60MOL     C836706   3.769   1.150   7.600  0.0352 -0.1441 -0.2723
   60MOL     C936707   3.759   1.201   7.452  0.3723 -0.1271 -0.6535
   60MOL    C1036708   3.656   1.311   7.429  0.0042  0.8388  0.0204
   60MOL    C1136709   4.002   0.342   7.658 -0.3430  0.2510 -0.3262
   60MOL    H1236710   4.169   0.431   0.012 -0.1294  1.0760 -1.1601
   60MOL    H1336711   4.151   0.672   0.093 -0.7694  1.0403 -2.5186
   60MOL    H1436712   4.039   0.599   0.204 -3.5866  0.7283  0.9437
   60MOL    H1536713   3.993   0.837   0.196 -2.0031 -1.4061  1.3247
   60MOL    H1636714   3.858   0.740   0.127 -0.1520 -0.9185  2.2443
   60MOL    H1736715   4.073   0.889   7.766 -0.0510 -1.6834  1.1202
   60MOL    H1836716   3.950   0.797   7.675 -0.9405 -0.9081  0.5879
   60MOL    H1936717   3.780   0.946   0.030  0.6423 -1.1751  0.7958
   60MOL    H2036718   3.920   1.049   0.058  1.5118 -1.5110 -0.3923
   60MOL    H2136719   3.959   1.048   7.582  0.4493 -0.6021  1.2078
   60MOL    H2236720   3.824   0.941   7.551 -2.4324  0.5685  0.7278
   60MOL    H2336721   3.809   1.220   7.673 -1.3050  0.5014 -0.1415
   60MOL    H2436722   3.673   1.119   7.640  0.9887 -1.8522  0.7702
   60MOL    H2536723   3.863   1.221   7.424  0.5201 -0.7590 -0.5600
   60MOL    H2636724   3.724   1.110   7.404 -1.6829  0.6200 -0.5935
   60MOL    H2736725   3.570   1.285   7.491  0.1372  1.7195  0.5808
   60MOL    H2836726   3.627   1.316   7.324  1.3254  2.4835 -0.2876
   60MOL    H2936727   3.691   1.409   7.461  2.4279 -0.2525  0.7961
   60MOL    H3036728   3.922   0.271   7.678  1.7501 -1.0877  3.6692
   60MOL    H3136729   3.959   0.406   7.580 -0.1995  0.9705  0.1752
   60MOL    H3236730   4.028   0.375   0.102 -0.1864 -0.7756  0.2151
   60MOL    C3336731   4.121   0.261   7.592 -0.3642 -0.2756  0.0564
   60MOL    O3436732   4.083   0.214   7.464  0.2356  0.4074  0.2049
   60MOL    C3536733   4.098   0.297   7.351 -0.0215 -0.4185 -0.8193
   60MOL    C3636734   4.063   0.221   7.225 -0.0116 -0.0220 -0.1322
   60MOL    C3736735   4.169   0.118   7.194 -0.5048  0.7084 -0.6273
   60MOL    C3836736   4.310   0.172   7.150  0.6105  0.4877 -0.5969
   60MOL    C3936737   4.389   0.069   7.065  0.2477 -0.0245  0.6911
   60MOL    C4036738   4.534   0.109   7.047  0.0137 -0.3733  0.3026
   60MOL    C4136739   4.599   0.019   6.942  0.3665 -0.1113  0.0062
   60MOL    C4236740   4.734   0.082   6.894  0.9802 -0.0552  1.0917
   60MOL    C4336741   4.130   0.138   7.674  0.0555  0.2573  0.6421
   60MOL    H4436742   4.215   0.316   7.594 -0.1410 -0.6780  1.1756
   60MOL    H4536743   4.195   0.348   7.342  0.2238 -0.9569 -1.2708
   60MOL    H4636744   4.031   0.383   7.355 -0.8851 -0.9784 -2.7977
   60MOL    H4736745   4.063   0.287   7.138 -2.3226  0.6968  0.3777
   60MOL    H4836746   3.968   0.168   7.238  0.4042 -0.8027 -0.2617
   60MOL    H4936747   4.184   0.056   7.282  0.3613  0.7423 -0.7478
   60MOL    H5036748   4.133   0.039   7.128  2.4307  0.0190 -1.5082
   60MOL    H5136749   4.301   0.267   7.097  1.4091  0.4522 -0.8105
   60MOL    H5236750   4.353   0.206   7.244 -0.6635  0.6461 -0.0561
   60MOL    H5336751   4.380   7.742   7.104 -0.2263  0.0370  0.7356
   60MOL    H5436752   4.343   0.062   6.966 -0.2784  0.5565  0.8931
   60MOL    H5536753   4.586   0.103   7.143  1.5890 -3.1043 -0.6518
   60MOL    H5636754   4.548   0.215   7.028 -2.1935 -0.0832  0.2222
   60MOL    H5736755   4.616   7.699   6.994  1.9434  1.1922  1.9186
   60MOL    H5836756   4.539   7.772   6.853 -0.6467 -2.3672  1.1904
   60MOL    H5936757   4.743   0.189   6.875 -0.8017 -0.0019  0.5094
   60MOL    H6036758   4.764   0.038   6.799  1.4698  2.3728  0.0903
   60MOL    H6136759   4.798   0.067   6.981  0.0080  3.2873  2.4446
   60MOL    H6236760   4.122   0.169   0.004 -0.2488  1.3958  0.2864
   60MOL    H6336761   4.042   0.076   7.659  0.2426 -0.0330  0.7494
   60MOL    C6436762   4.259   0.049   7.655  0.1060 -0.1473 -0.0398
   60MOL    O6536763   4.239   7.689   7.703 -0.5917  0.4362 -0.4698
   60MOL    C6636764   4.235   7.601   7.591  0.1773  0.3949  0.5623
   60MOL    C6736765   4.223   7.459   7.647 -0.4987  0.9093  0.0633
   60MOL    C6836766   4.097   7.434   7.737  0.2004  0.0767  0.4919
   60MOL    C6936767   4.103   7.310   0.052  0.3435 -0.4516 -0.2055
   60MOL    C7036768   3.968   7.283   0.135  0.4823 -0.6302  0.1126
   60MOL    C7136769   3.976   7.185   0.255 -0.1185  0.0995 -0.1339
   60MOL    C7236770   4.017   7.039   0.223  0.0511  0.1053 -0.2490
   60MOL    C7336771   3.920   6.962   0.137 -0.4255 -0.1672 -0.1893
   60MOL    C7436772   4.380   0.104   7.741 -0.0959  0.3795  0.4200
   60MOL    H7536773   4.279   0.053   7.548 -0.3578  0.7398 -0.1010
   60MOL    H7636774   4.331   7.611   7.539 -1.1004 -0.6955 -2.1337
   60MOL    H7736775   4.149   7.622   7.528 -1.2026 -1.1096  1.9002
   60MOL    H7836776   4.316   7.445   7.702 -0.0374  0.0777 -0.9036
   60MOL    H7936777   4.235   7.386   7.566 -2.2658  0.8150 -0.1253
   60MOL    H8036778   4.091   7.516   0.033  1.3079 -0.0279  0.7082
   60MOL    H8136779   4.015   7.431   7.665 -0.7379 -2.8853  1.5939
   60MOL    H8236780   4.127   7.219   7.770 -2.9615 -0.6016 -1.4518
   60MOL    H8336781   4.182   7.312   0.128 -0.8211  3.5351  0.9864
   60MOL    H8436782   3.946   7.377   0.184  0.3547  0.7012 -2.4072
   60MOL    H8536783   3.884   7.266   0.068  1.0505 -0.1176 -0.7492
   60MOL    H8636784   3.885   7.185   0.315  0.1397  1.6114  0.2950
   60MOL    H8736785   4.056   7.225   0.318 -0.8546 -0.9982  1.5290
   60MOL    H8836786   4.114   7.036   0.173  0.5778 -0.6380  0.8100
   60MOL    H8936787   4.012   6.987   0.318  1.5389  1.2025  0.4512
   60MOL    H9036788   3.818   6.989   0.166  0.0121 -1.2170  2.5700
   60MOL    H9136789   3.935   6.856   0.155  2.8282  0.2210 -0.3955
   60MOL    H9236790   3.943   6.980   0.032 -2.1499  1.6598 -0.2941
   60MOL    H9336791   4.384   0.212   7.728  2.0367  0.1418 -1.0368
   60MOL    H9436792   4.355   0.100   0.073 -0.7315  0.6637  0.2879
   60MOL    C9536793   4.516   0.043   7.701  0.0852  0.3641  0.3643
   60MOL    O9636794   4.609   0.105   0.009 -0.6259 -0.3494  0.1950
   60MOL    C9736795   4.641   0.025   0.125  0.2948 -0.4601  0.5630
   60MOL    C9836796   4.690   0.122   0.230 -0.3639  0.1087 -0.5926
   60MOL    C9936797   4.574   0.212   0.279  0.2162  0.1930  0.0097
   60MOL   C10036798   4.453   0.158   0.362  0.4881 -0.3758  0.0215
   60MOL   C10136799   4.324   0.241   0.361 -0.0004  0.0112 -0.1641
   60MOL   C10236800   4.183   0.176   0.380  0.8265 -0.2448 -0.6881
   60MOL   C10336801   4.075   0.273   0.410 -0.4337  0.1819 -0.1979
   60MOL   C10436802   4.068   0.286   0.562 -0.7679  1.1839  0.1686
   60MOL   C10536803   4.554   0.076   7.552  0.4457 -0.6948 -0.3149
   60MOL   H10636804   4.516   7.709   7.714  5.5424  0.0041 -1.4853
   60MOL   H10736805   4.711   7.722   0.095  0.5872 -0.4142  1.1229
   60MOL   H10836806   4.545   7.763   0.161  0.0776 -0.2970  0.1498
   60MOL   H10936807   4.762   0.186   0.180 -0.0381 -0.2207 -0.5515
   60MOL   H11036808   4.739   0.071   0.313  0.3828  2.4057  0.4104
   60MOL   H11136809   4.610   0.288   0.348 -2.3638  1.8205 -0.3470
   60MOL   H11236810   4.538   0.273   0.196 -0.4281  0.9877  0.8624
   60MOL   H11336811   4.421   0.060   0.328 -0.1087  0.5191 -2.0417
   60MOL   H11436812   4.495   0.154   0.463  0.1550 -0.5347  0.1534
   60MOL   H11536813   4.335   0.317   0.438 -3.4860  0.2337  0.1749
   60MOL   H11636814   4.301   0.300   0.273 -3.4652 -0.9203  0.0502
   60MOL   H11736815   4.198   0.100   0.457  2.4782  0.0807 -0.6540
   60MOL   H11836816   4.138   0.125   0.295 -0.2961  2.2486 -1.6418
   60MOL   H11936817   4.085   0.369   0.359 -0.3522 -0.5725 -1.6330
   60MOL   H12036818   3.979   0.239   0.372 -0.6953 -0.6964  1.2451
   60MOL   H12136819   3.983   0.345   0.595 -2.0391  0.2909 -1.4043
   60MOL   H12236820   4.145   0.353   0.599  1.7946 -1.9118  0.6286
   60MOL   H12336821   4.067   0.192   0.617  0.9689  0.1669 -1.4852
   60MOL   H12436822   4.491   0.029   7.476  0.9315 -1.8787  0.0069
   60MOL   H12536823   4.548   0.184   7.543 -0.8796 -0.7437 -0.1082
   60MOL   C12636824   4.696   0.031   7.517 -0.8379 -1.2016  0.7910
   60MOL   O12736825   4.729   0.117   7.409 -0.1294 -0.7036  0.1196
   60MOL   C12836826   4.790   0.241   7.455  0.3399  0.4077  0.3208
   60MOL   C12936827   4.792   0.331   7.329  0.1264 -0.3737  0.0520
   60MOL   C13036828   4.649   0.392   7.321  0.1269  0.4238 -0.0633
   60MOL   C13136829   4.636   0.468   7.186  0.1372  0.4888 -0.4552
   60MOL   C13236830   4.492   0.543   7.176 -0.1176  0.8736 -0.5673
   60MOL   C13336831   4.482   0.643   7.059  0.5419 -0.0121  0.7559
   60MOL   C13436832   4.347   0.717   7.066 -0.1117 -0.6417  0.1925
   60MOL   C13536833   4.318   0.812   6.960 -0.7024  0.0587  0.2778
   60MOL   C13636834   4.699   7.659   7.468 -0.2557  0.6628  0.1015
   60MOL   H13736835   4.770   0.046   7.596  1.0778 -1.3648 -0.9271
   60MOL   H13836836   4.893   0.213   7.476 -0.1696 -2.7186 -1.1582
   60MOL   H13936837   4.743   0.294   7.538  2.3004  1.0792  1.0259
   60MOL   H14036838   4.811   0.272   7.239  1.8135  1.4247 -0.7951
   60MOL   H14136839   4.871   0.400   7.358 -0.4013 -0.6918  2.3931
   60MOL   H14236840   4.569   0.318   7.312  1.0025 -0.6412  0.7479
   60MOL   H14336841   4.626   0.464   7.400 -1.1076 -0.4083  0.3481
   60MOL   H14436842   4.718   0.536   7.163  1.7489 -1.0238  0.6938
   60MOL   H14536843   4.654   0.395   7.107 -0.4172 -1.1088  0.8720
   60MOL   H14636844   4.411   0.470   7.179  0.2142  0.4579 -1.3857
   60MOL   H14736845   4.479   0.608   7.262 -0.3954 -0.3503  0.3210
   60MOL   H14836846   4.484   0.578   6.972  1.3310 -0.2041  0.9135
   60MOL   H14936847   4.566   0.712   7.058  2.7726 -2.6250  1.9361
   60MOL   H15036848   4.275   0.635   7.060 -1.0817  0.0542  2.0012
   60MOL   H15136849   4.327   0.758   7.165 -2.6402 -2.8223  0.6469
   60MOL   H15236850   4.216   0.850   6.969 -0.6376  0.1600  0.5823
   60MOL   H15336851   4.323   0.765   6.862  1.5171  0.2250  0.2954
   60MOL   H15436852   4.389   0.895   6.959  1.3087 -1.6541 -0.5438
   60MOL   H15536853   4.647   7.584   7.527  0.6720 -0.3833 -0.3900
   60MOL   H15636854   4.632   7.645   7.382  0.8549 -0.3256 -0.6202
   60MOL   C15736855   4.841   7.606   7.439 -0.3969  0.3581 -0.3850
   60MOL   O15836856   4.844   7.484   7.361  1.1124  0.5607  0.0224
   60MOL   C15936857   4.810   7.503   7.220  0.0938 -0.1241  0.0736
   60MOL   C16036858   4.845   7.371   7.140  0.6781 -0.1197 -0.6771
   60MOL   C16136859   4.994   7.331   7.138 -0.3246  0.3396  0.0521
   60MOL   C16236860   5.021   7.233   7.023  0.3696  0.0614  0.5058
   60MOL   C16336861   5.169   7.181   7.021 -0.0291 -0.0152 -0.5889
   60MOL   C16436862   5.186   7.082   6.904  0.0097  0.1288 -0.0458
   60MOL   C16536863   5.327   7.013   6.905  0.3047  0.0154  0.4674
   60MOL   C16636864   5.339   6.910   6.797  0.1990  0.0341  0.4880
   60MOL   C16736865   4.933   7.583   7.555  0.3154  0.2626  0.3324
   60MOL   H16836866   4.886   7.688   7.383 -2.9247  0.8619 -1.7532
   60MOL   H16936867   4.875   7.585   7.189  0.9778  0.0850  2.3424
   60MOL   H17036868   4.705   7.531   7.215 -0.4370 -1.7187  1.6095
   60MOL   H17136869   4.806   7.387   7.040 -0.7952  3.0750  0.3122
   60MOL   H17236870   4.779   7.296   7.183 -1.3252  2.0843  0.2538
   60MOL   H17336871   5.069   7.410   7.131 -1.0492  0.9378 -1.0622
   60MOL   H17436872   5.024   7.291   7.235 -1.3434 -0.3370  0.0972
   60MOL   H17536873   4.950   7.152   7.039 -1.1728  1.8005  2.8226
   60MOL   H17636874   4.995   7.282   6.929  0.0851  0.3352  0.7291
   60MOL   H17736875   5.232   7.270   7.014 -0.6487  0.4248 -0.6278
   60MOL   H17836876   5.184   7.128   7.116 -0.6912  1.7619  0.5402
   60MOL   H17936877   5.179   7.129   6.806  1.0796  1.6981  0.6038
   60MOL   H18036878   5.114   7.002   6.919 -1.3261  1.3518  0.1132
   60MOL   H18136879   5.412   7.081   6.897  1.2778 -1.0606  1.6416
   60MOL   H18236880   5.329   6.966   7.003 -0.4429 -3.7440 -1.2559
   60MOL   H18336881   5.241   6.866   6.781  0.5164 -0.5458  0.1258
   60MOL   H18436882   5.398   6.825   6.832  1.2512  0.3873 -0.3977
   60MOL   H18536883   5.375   6.953   6.703  0.0946  2.4964  1.5353
   60MOL   H18636884   4.928   7.661   7.632  0.4005  2.7043 -2.0661
   60MOL   H18736885   4.879   7.505   7.609  0.0954 -0.0338 -0.3211
   60MOL   C18836886   5.074   7.525   7.516  0.6296  0.2953 -0.4417
   60MOL   O18936887   5.141   7.522   7.647  0.5714  0.2957 -0.1785
   60MOL   C19036888   5.234   7.417   7.663 -0.0652 -0.2741  0.3909
   60MOL   C19136889   5.309   7.429   0.021  0.6012  0.8018 -0.3717
   60MOL   C19236890   5.410   7.543   0.038 -0.2293  0.0425  0.5356
   60MOL   C19336891   5.533   7.512   0.129 -0.2324  0.5505 -0.3632
   60MOL   C19436892   5.509   7.468   0.277  0.2479 -0.5065 -0.2008
   60MOL   C19536893   5.624   7.380   0.332  0.3500 -0.1074  0.8680
   60MOL   C19636894   5.616   7.351   0.486 -0.2353 -0.1992 -0.4961
   60MOL   C19736895   5.722   7.248   0.525  0.4253 -0.6269 -0.4126
   60MOL   C19836896   5.154   7.622   7.417 -0.0220 -0.0946  0.7558
   60MOL   H19936897   5.083   7.429   7.466  0.4677 -0.5742  1.1634
   60MOL   H20036898   5.173   7.328   7.674 -1.4283  0.7891  1.5417
   60MOL   H20136899   5.305   7.415   7.580 -1.2657  0.0281 -0.6451
   60MOL   H20236900   5.372   7.343   0.042 -0.1791  0.8139  2.1835
   60MOL   H20336901   5.227   7.434   0.092  1.0630  1.3187  0.1329
   60MOL   H20436902   5.451   7.548   7.711  0.0991  3.3760  0.7638
   60MOL   H20536903   5.366   7.640   0.059  0.1002  0.1341  0.8048
   60MOL   H20636904   5.598   7.448   0.069 -2.4063 -0.4582 -1.7284
   60MOL   H20736905   5.600   7.597   0.130 -0.2845  0.5862  0.9413
   60MOL   H20836906   5.485   7.560   0.332 -2.1974 -1.2343  0.0148
   60MOL   H20936907   5.414   7.414   0.275  0.0184 -0.0743 -1.4854
   60MOL   H21036908   5.713   7.443   0.326  0.9543 -0.9283  1.2691
   60MOL   H21136909   5.633   7.291   0.270  2.2535  0.6087  0.0666
   60MOL   H21236910   5.629   7.439   0.548  0.0163 -1.3753  1.1418
   60MOL   H21336911   5.522   7.307   0.518 -0.9194  1.4364 -0.2202
   60MOL   H21436912   5.706   7.223   0.630  1.3529  2.9023  0.6255
   60MOL   H21536913   5.825   7.281   0.514  1.3619 -1.9211  3.5601
   60MOL   H21636914   5.707   7.158   0.466 -1.1690 -0.0920 -0.8509
   60MOL   H21736915   5.262   7.615   7.413  0.1700  2.7773 -0.7102
   60MOL   H21836916   5.119   7.614   7.315 -3.0934 -2.4557  1.9145
   60MOL   C21936917   5.151   7.772   7.467 -0.3872 -0.8671  0.4546
   60MOL   O22036918   5.211   0.071   7.362 -0.6675 -0.0156  0.3991
   60MOL   C22136919   5.143   0.091   7.236  0.1812 -0.6693 -0.5556
   60MOL   C22236920   5.211   0.210   7.170  0.0903  0.0618  0.1238
   60MOL   C22336921   5.185   0.336   7.241 -0.0103  0.3420  0.8814
   60MOL   C22436922   5.232   0.464   7.154 -0.5019  0.4622  1.0117
   60MOL   C22536923   5.210   0.596   7.228  0.3010  0.0243 -0.3136
   60MOL   C22636924   5.251   0.716   7.141  0.1071  0.2734 -0.5203
   60MOL   C22736925   5.234   0.839   7.225  0.1364 -0.1434  0.1526
   60MOL   C22836926   5.338   0.946   7.207  1.1783 -0.6842 -0.2964
   60MOL   C22936927   5.250   0.038   7.573  0.1263  0.5214  0.2451
   60MOL   H23036928   5.050   0.036   7.484 -0.0720  1.3887 -2.2840
   60MOL   H23136929   5.041   0.128   7.246  0.3562  0.2870 -2.1046
   60MOL   H23236930   5.144   0.009   7.164  1.9754  0.1860 -1.5645
   60MOL   H23336931   5.170   0.212   7.069 -0.9855  3.9967  0.5572
   60MOL   H23436932   5.315   0.182   7.183  0.4141  0.8401 -0.7334
   60MOL   H23536933   5.084   0.367   7.271 -0.2761  1.2662 -0.8703
   60MOL   H23636934   5.248   0.335   7.329 -1.9575  0.8601  2.3166
   60MOL   H23736935   5.339   0.448   7.138 -0.9805 -0.7759 -1.0842
   60MOL   H23836936   5.180   0.470   7.059 -0.3223 -3.3947  0.5580
   60MOL   H23936937   5.109   0.609   7.268  0.3087 -1.1781  0.1289
   60MOL   H24036938   5.275   0.592   7.315 -0.6429 -1.9760  0.3299
   60MOL   H24136939   5.191   0.730   7.051 -0.8673  1.4324  0.2814
   60MOL   H24236940   5.354   0.699   7.109 -0.1884 -1.1089 -0.7894
   60MOL   H24336941   5.137   0.883   7.204  0.1127 -0.4846 -0.4702
   60MOL   H24436942   5.239   0.811   7.330  0.6378  0.4231  0.2816
   60MOL   H24536943   5.305   1.043   7.241 -0.5448 -1.2295 -0.3566
   60MOL   H24636944   5.370   0.953   7.102  3.0427  2.9901  0.4439
   60MOL   H24736945   5.434   0.913   7.248  2.4510 -0.8674 -3.2510
   60MOL   H24836946   5.250   7.750   7.663  1.1048  2.4924  1.6483
   60MOL   H24936947   5.348   0.030   7.525 -0.8691  0.3130 -1.8096
   60MOL   C25036948   5.243   0.187   7.619  0.1935 -0.6956  0.2557
   60MOL   O25136949   5.348   0.215   7.717  0.1945  0.1415  0.1144
   60MOL   C25236950   5.467   0.265   7.659  0.7257  0.1537  0.4525
   60MOL   C25336951   5.554   0.307   0.000 -0.2743 -0.2234  0.1809
   60MOL   C25436952   5.498   0.433   0.064  0.4072  0.2057  0.1505
   60MOL   C25536953   5.602   0.515   0.145  1.2358 -0.5645  0.3809
   60MOL   C25636954   5.538   0.641   0.206  0.4784 -0.2730 -0.1288
   60MOL   C25736955   5.643   0.708   0.298  0.9349 -0.5788  0.3296
   60MOL   C25836956   5.583   0.811   0.399  0.1817  0.1008  0.2602
   60MOL   C25936957   5.677   0.881   0.493  0.0833  0.1955 -0.1345
   60MOL   C26036958   5.119   0.234   7.698  0.0724  0.0725 -0.7052
   60MOL   H26136959   5.251   0.256   7.535 -1.1501  0.0373  0.7014
   60MOL   H26236960   5.459   0.344   7.584 -1.8414 -1.2040 -0.7755
   60MOL   H26336961   5.516   0.183   7.607  1.4315  0.6424  0.3399
   60MOL   H26436962   5.657   0.329   7.748 -0.0588 -1.5589 -0.1227
   60MOL   H26536963   5.545   0.219   0.064 -2.6254 -2.9759 -3.7129
   60MOL   H26636964   5.454   0.492   7.758  1.8843  2.0401  0.6406
   60MOL   H26736965   5.411   0.408   0.124  0.3971  1.2330  0.5624
   60MOL   H26836966   5.632   0.458   0.233 -1.2814  0.8082  2.1964
   60MOL   H26936967   5.686   0.552   0.088  0.8791 -0.2748  0.0398
   60MOL   H27036968   5.493   0.702   0.128 -0.2677  0.3418  0.7550
   60MOL   H27136969   5.457   0.597   0.264  0.5646  0.4133  0.5266
   60MOL   H27236970   5.728   0.751   0.245 -0.6983  0.7287 -1.3309
   60MOL   H27336971   5.687   0.634   0.364  0.7118 -1.1615 -0.1780
   60MOL   H27436972   5.535   0.891   0.343 -1.4760 -1.7936 -1.0892
   60MOL   H27536973   5.505   0.760   0.455 -0.3682  0.2977 -0.3219
   60MOL   H27636974   5.744   0.939   0.429 -0.4621 -1.4477 -2.2381
   60MOL   H27736975   5.744   0.814   0.546 -2.1915  0.0610  2.6721
   60MOL   H27836976   5.619   0.942   0.562  0.8028 -1.5166  2.0302
   60MOL   H27936977   5.032   0.206   7.639  0.0390 -1.8892  0.2585
   60MOL   H28036978   5.116   0.183   0.020 -0.5040  0.3147 -0.5902
   60MOL   C28136979   5.102   0.387   7.720  0.1350  0.3900  0.0163
   60MOL   O28236980   4.995   0.432   0.027 -0.0511 -0.1310 -0.5593
   60MOL   C28336981   5.012   0.400   0.166  0.3144  0.3218 -0.2612
   60MOL   C28436982   5.073   0.523   0.235  0.2436 -0.1749  0.3309
   60MOL   C28536983   5.083   0.523   0.390  1.0912  0.2820 -0.0596
   60MOL   C28636984   5.154   0.644   0.449 -0.0899  0.7231 -0.2756
   60MOL   C28736985   5.171   0.628   0.602 -0.2299  0.3315  0.4080
   60MOL   C28836986   5.224   0.764   0.663 -0.4729 -0.1035 -0.0116
   60MOL   C28936987   5.322   0.757   0.779  0.0532 -0.4916  0.6122
   60MOL   C29036988   5.261   0.705   0.906  0.2786  0.1683 -0.5136
   60MOL   C29136989   5.074   0.477   7.592  0.1411  0.9531 -0.0505
   60MOL   H29236990   5.198   0.425   7.756  0.6186  1.3062 -2.1436
   60MOL   H29336991   5.075   0.312   0.180 -0.8485 -0.4160  0.3585
   60MOL   H29436992   4.915   0.385   0.213 -0.2251 -2.0907 -2.0782
   60MOL   H29536993   5.013   0.609   0.205 -1.0632 -0.8517  0.9949
   60MOL   H29636994   5.174   0.538   0.197  0.5977 -1.7689  0.6252
   60MOL   H29736995   4.988   0.518   0.445  0.5865 -1.5878 -1.0511
   60MOL   H29836996   5.126   0.428   0.423  0.7390 -0.0132 -0.4421
   60MOL   H29936997   5.249   0.664   0.399 -0.5781 -0.4257 -1.7019
   60MOL   H30036998   5.089   0.731   0.439  1.2943  1.7830 -0.1950
   60MOL   H30136999   5.081   0.588   0.649  0.3511 -1.1737  0.2475
   60MOL   H30237000   5.245   0.549   0.607 -0.2267  0.2135 -1.2297
   60MOL   H30337001   5.141   0.829   0.692 -1.2644 -1.1616  0.1447
   60MOL   H30437002   5.282   0.823   0.593 -0.1489  0.8966  1.0908
   60MOL   H30537003   5.400   0.684   0.757 -0.0469  0.1300 -2.0368
   60MOL   H30637004   5.364   0.852   0.810  0.0438 -0.8329  1.6912
   60MOL   H30737005   5.334   0.676   0.981 -0.1609  0.4761  0.0356
   60MOL   H30837006   5.202   0.614   0.890  0.0592  0.2649 -0.2511
   60MOL   H30937007   5.184   0.768   0.950 -1.3414 -0.9791 -1.6169
   60MOL   H31037008   5.147   0.453   7.516 -0.9733  1.4483 -1.2961
   60MOL   H31137009   4.972   0.470   7.554  0.5198 -3.5077 -0.4831
   60MOL   C31237010   5.092   0.632   7.606 -0.1353  0.3254 -0.6639
   60MOL   O31337011   5.063   0.709   7.495 -0.0314 -0.4482  0.5949
   60MOL   C31437012   4.923   0.717   7.475 -0.1670 -0.2312  0.0706
   60MOL   C31537013   4.891   0.827   7.378  0.2180 -0.3650  0.0826
   60MOL   C31637014   4.905   0.968   7.439 -1.1233  0.7614 -0.3307
   60MOL   C31737015   4.868   1.075   7.332  0.3748  0.2598 -0.1305
   60MOL   C31837016   4.991   1.152   7.278  0.1804  0.3969 -0.6280
   60MOL   C31937017   4.941   1.260   7.182 -0.4432  0.1798  0.2074
   60MOL   C32037018   5.041   1.328   7.094 -0.2722  0.0553 -0.2201
   60MOL   C32137019   5.021   1.476   7.079 -0.2318  0.0434 -0.6861
   60MOL   C32237020   5.235   0.678   7.635 -0.5458 -0.3165  0.4590
   60MOL   H32337021   5.034   0.659   7.694 -0.7338  1.4904 -1.4118
   60MOL   H32437022   4.864   0.738   7.564 -1.2375  2.8955 -1.3079
   60MOL   H32537023   4.891   0.628   7.420 -1.9479 -0.2384  1.0776
   60MOL   H32637024   4.786   0.817   7.352 -0.2297  1.3947  1.1472
   60MOL   H32737025   4.951   0.810   7.288 -0.1829 -1.2994 -0.0087
   60MOL   H32837026   4.834   0.984   7.520 -2.4667 -0.3757 -1.2646
   60MOL   H32937027   5.004   0.978   7.484 -0.5375  0.1312 -1.4669
   60MOL   H33037028   4.808   1.026   7.255 -1.1275  0.2916  1.0034
   60MOL   H33137029   4.803   1.154   7.369 -0.8934 -0.7554 -0.1719
   60MOL   H33237030   5.039   1.196   7.365 -1.9971  1.1035  0.2580
   60MOL   H33337031   5.059   1.083   7.228  0.3748  0.4029 -0.3726
   60MOL   H33437032   4.888   1.331   7.246  1.2025  0.8121  0.9011
   60MOL   H33537033   4.861   1.223   7.118  1.1943 -1.5786 -0.8572
   60MOL   H33637034   5.139   1.317   7.138  0.1501  0.4858 -1.0379
   60MOL   H33737035   5.050   1.276   6.998 -1.7538 -0.2022 -0.2314
   60MOL   H33837036   5.103   1.525   7.027  0.8715 -2.8960 -1.7624
   60MOL   H33937037   5.006   1.528   7.174 -0.2596  0.5074 -0.9446
   60MOL   H34037038   4.927   1.492   7.026  0.6634  2.1569 -1.7189
   60MOL   H34137039   5.251   0.628   7.730 -1.5487 -1.7669 -0.1061
   60MOL   H34237040   5.299   0.634   7.558 -0.2543  0.6206  0.1593
   60MOL   C34337041   5.265   0.826   7.663  0.2952 -1.1317 -0.1399
   60MOL   O34437042   5.405   0.818   7.690  0.4365 -0.1433  0.4883
   60MOL   C34537043   5.480   0.876   7.580  0.7787 -0.1014  0.1135
   60MOL   C34637044   5.631   0.854   7.614  0.1086 -0.3514  0.2092
   60MOL   C34737045   5.671   0.951   7.722  0.1207  0.3373 -0.6839
   60MOL   C34837046   5.821   0.956   7.744 -0.1302 -0.0809  0.1252
   60MOL   C34937047   5.865   1.033   0.096  0.1167 -0.2949 -0.1634
   60MOL   C35037048   6.017   1.058   0.104 -0.1385  0.1207  0.4932
   60MOL   C35137049   6.066   1.116   0.237 -0.1353 -0.0861  0.0530
   60MOL   C35237050   6.221   1.133   0.243  0.5649 -0.3357  1.0864
   60MOL   C35337051   5.195   0.884   0.013 -0.2450 -0.2813 -0.1596
   60MOL   H35437052   5.234   0.883   7.575  2.5987  0.4700  0.0174
   60MOL   H35537053   5.457   0.982   7.564 -2.0955 -0.4371  1.6306
   60MOL   H35637054   5.448   0.832   7.486  2.8375  0.2339 -0.7761
   60MOL   H35737055   5.707   0.875   7.540  0.3352 -1.5966  0.0797
   60MOL   H35837056   5.640   0.748   7.639 -3.3776 -1.1366 -1.5619
   60MOL   H35937057   5.641   1.053   7.699  1.6923  1.1476  0.7500
   60MOL   H36037058   5.614   0.915   0.033  1.8274 -1.5678 -0.3089
   60MOL   H36137059   5.861   0.854   7.744  1.3811  0.3099 -5.9113
   60MOL   H36237060   5.871   1.000   7.657  1.0537  1.7815  1.6894
   60MOL   H36337061   5.814   1.129   0.090 -0.3342 -0.4260  1.5252
   60MOL   H36437062   5.827   0.984   0.185 -0.3807 -1.6630 -1.1051
   60MOL   H36537063   6.052   1.117   0.020 -0.7390  0.4046  0.4375
   60MOL   H36637064   6.065   0.961   0.086  1.1195  0.3238  2.5250
   60MOL   H36737065   6.024   1.216   0.250  2.2690  0.4848  3.9754
   60MOL   H36837066   6.031   1.047   0.313 -0.1833  0.0128  0.1205
   60MOL   H36937067   6.234   1.196   0.330 -0.1826 -0.3268  1.1913
   60MOL   H37037068   6.263   1.187   0.158  1.6003  0.3034  1.9852
   60MOL   H37137069   6.280   1.042   0.255  0.1426 -0.8396 -0.5447
   60MOL   H37237070   5.094   0.845   0.029 -0.0814  0.0086  1.6766
   60MOL   H37337071   5.261   0.850   0.093 -1.4110 -0.0025  0.9512
   60MOL   C37437072   5.192   1.037   0.037  0.7015  0.3182 -0.0771
   60MOL   O37537073   5.152   1.055   0.170 -0.1319 -0.7922  0.0501
   60MOL   C37637074   5.257   1.106   0.251  0.6173  0.1204 -0.7653
   60MOL   C37737075   5.197   1.133   0.390  0.0539  0.2198 -0.2669
   60MOL   C37837076   5.306   1.135   0.500  0.1288  0.4906 -0.2494
   60MOL   C37937077   5.235   1.139   0.636  0.5091 -0.2452 -1.0561
   60MOL   C38037078   5.326   1.162   0.755  0.5855  0.4411  0.2926
   60MOL   C38137079   5.262   1.149   0.896  0.8003  0.5791 -0.0215
   60MOL   C38237080   5.157   1.259   0.921 -0.4237  0.1996 -0.2889
   60MOL   C38337081   5.219   1.397   0.935 -0.1150  0.0376 -0.5673
   60MOL   C38437082   5.097   1.112   7.714 -0.2045 -0.8397 -1.2747
   60MOL   H38537083   5.291   1.083   0.027  0.7107  0.3266  0.0624
   60MOL   H38637084   5.308   1.196   0.218  0.8597  0.6598  1.0437
   60MOL   H38737085   5.332   1.027   0.261  0.9305  0.6109  0.8618
   60MOL   H38837086   5.129   1.049   0.408  1.4645 -0.7486  0.6757
   60MOL   H38937087   5.137   1.224   0.394 -0.8001 -0.3584  0.1935
   60MOL   H39037088   5.363   1.042   0.502  0.7838  0.8844 -0.4110
   60MOL   H39137089   5.375   1.219   0.493 -0.4642  1.1767  1.7815
   60MOL   H39237090   5.163   1.221   0.635 -2.4168 -2.6517  1.0330
   60MOL   H39337091   5.171   1.054   0.662  0.5540  0.7344  2.5498
   60MOL   H39437092   5.404   1.086   0.754 -0.3156 -0.4945 -0.3768
   60MOL   H39537093   5.382   1.255   0.743 -0.9364  1.4914  1.2136
   60MOL   H39637094   5.340   1.160   0.972  2.0125 -0.2121 -1.1296
   60MOL   H39737095   5.208   1.057   0.914  1.6139 -0.0519 -0.7210
   60MOL   H39837096   5.069   1.259   0.857 -0.4459 -1.7873 -0.2741
   60MOL   H39937097   5.115   1.240   1.019  0.4868 -1.9107 -0.2995
   60MOL   H40037098   5.317   1.394   0.982 -0.9414 -0.3987  1.1677
   60MOL   H40137099   5.162   1.478   0.981 -0.3632 -0.9960  0.9580
   60MOL   H40237100   5.254   1.441   0.841  0.7728 -2.3887 -1.4000
   60MOL   H40337101   5.144   1.103   7.616  0.8537 -0.2744 -0.8177
   60MOL   H40437102   5.004   1.054   7.710  0.6059 -2.3780  1.1863
   60MOL   C40537103   5.072   1.265   7.738  0.0343  0.2710  0.5960
   60MOL   O40637104   5.208   1.325   7.751 -0.0814 -0.3505  0.5009
   60MOL   C40737105   5.209   1.467   7.721 -0.3672  0.1272 -0.0248
   60MOL   C40837106   5.353   1.520   7.718  0.4209  0.0182  0.0178
   60MOL   C40937107   5.447   1.431   7.641  0.1321 -0.0313 -0.3010
   60MOL   C41037108   5.421   1.412   7.491  0.1251 -0.1947 -0.0712
   60MOL   C41137109   5.505   1.304   7.434 -0.5745 -0.0390 -0.3066
   60MOL   C41237110   5.649   1.331   7.423  0.5837  0.1312  0.6186
   60MOL   C41337111   5.724   1.203   7.398 -0.1855  0.3824  0.2302
   60MOL   C41437112   5.876   1.207   7.420 -0.1811  0.0585  0.4525
   60MOL   C41537113   4.983   1.300   0.088 -0.1139  0.2181 -0.4169
   60MOL   H41637114   5.019   1.301   7.649  0.3697 -1.4045 -0.3138
   60MOL   H41737115   5.139   1.512   0.018 -0.1690 -2.1387  1.6556
   60MOL   H41837116   5.165   1.476   7.622  1.3663  3.5197 -0.5511
   60MOL   H41937117   5.387   1.535   0.046 -3.1667 -0.7756  1.3960
   60MOL   H42037118   5.365   1.619   7.674  2.3740  0.0232  0.5091
   60MOL   H42137119   5.545   1.477   7.652 -0.1931  0.2503  1.5760
   60MOL   H42237120   5.450   1.334   7.692 -1.0174  1.5546  2.9245
   60MOL   H42337121   5.315   1.388   7.477  0.2416 -1.7648  1.4548
   60MOL   H42437122   5.443   1.504   7.438  0.5851 -0.1197  0.2555
   60MOL   H42537123   5.486   1.212   7.489 -1.3590  1.5957  2.2942
   60MOL   H42637124   5.470   1.284   7.333 -2.0503 -1.7474  0.5051
   60MOL   H42737125   5.682   1.372   7.518  0.9565  0.9523  0.1470
   60MOL   H42837126   5.661   1.398   7.337 -0.8101  1.6029  1.5425
   60MOL   H42937127   5.693   1.121   7.464 -1.0108  0.3862 -0.1427
   60MOL   H43037128   5.702   1.161   7.300 -1.7015 -2.8340  1.8527
   60MOL   H43137129   5.905   1.108   7.384 -1.6065 -0.2766  0.2068
   60MOL   H43237130   5.917   1.226   7.519  0.9518 -2.2158  0.4519
   60MOL   H43337131   5.914   1.282   7.351 -1.1954 -0.3642 -0.5834
   60MOL   H43437132   5.048   1.268   0.168 -0.0254  0.7574 -0.2689
   60MOL   H43537133   4.977   1.406   0.111  0.5510  0.4367 -1.2159
   60MOL   C43637134   4.844   1.239   0.086  0.6106  0.1011 -0.8857
   60MOL   O43737135   4.753   1.316   0.015  0.7343 -0.0386  0.5822
   60MOL   C43837136   4.723   1.251   7.661 -0.5522  0.0804  0.7126
   60MOL   C43937137   4.654   1.360   7.577  0.0282 -0.7662 -0.0618
   60MOL   C44037138   4.729   1.483   7.542 -0.0752  0.3509  0.7531
   60MOL   C44137139   4.651   1.585   7.469  0.2539  0.2276 -0.0196
   60MOL   C44237140   4.739   1.662   7.364  0.0589  0.0115 -0.8568
   60MOL   C44337141   4.660   1.745   7.261  0.5944 -0.5585 -0.1301
   60MOL   C44437142   4.750   1.820   7.160 -0.7261  0.1819 -0.1470
   60MOL   C44537143   4.682   1.926   7.073  0.0320  0.3650 -0.3582
   60MOL   C44637144   4.787   1.232   0.224 -0.2703 -0.3422 -0.0613
   60MOL   H44737145   4.838   1.140   0.041  0.4057  0.2819 -1.2639
   60MOL   H44837146   4.810   1.219   7.604 -1.7718  1.0238 -1.7380
   60MOL   H44937147   4.654   1.169   7.680 -1.8167  0.6269 -1.3797
   60MOL   H45037148   4.564   1.395   7.628 -2.1987 -3.4550 -1.9306
   60MOL   H45137149   4.629   1.316   7.479  1.3920 -0.5103 -0.5276
   60MOL   H45237150   4.779   1.541   7.620 -0.0306  2.8951 -1.0810
   60MOL   H45337151   4.800   1.448   7.466  0.7380  0.4274  1.4665
   60MOL   H45437152   4.576   1.534   7.408  0.0951 -0.5250  0.8028
   60MOL   H45537153   4.599   1.649   7.540 -1.3807 -1.4808  0.3557
   60MOL   H45637154   4.797   1.741   7.411 -1.1307  1.9387 -2.5460
   60MOL   H45737155   4.811   1.595   7.317 -1.5276 -2.3047 -0.0930
   60MOL   H45837156   4.594   1.818   7.309  1.2763  1.1014 -1.6439
   60MOL   H45937157   4.594   1.680   7.203  1.2532 -2.4146  1.1629
   60MOL   H46037158   4.830   1.876   7.209 -0.5873 -0.3587  0.2448
   60MOL   H46137159   4.810   1.745   7.108 -0.5423  0.7071 -0.6991
   60MOL   H46237160   4.586   1.890   7.036 -0.8490 -0.0146  2.2302
   60MOL   H46337161   4.739   1.945   6.982 -0.4609  0.0133 -0.7424
   60MOL   H46437162   4.654   2.021   7.118 -0.9579 -0.2371  0.3010
   60MOL   H46537163   4.798   1.330   0.270  0.6803 -0.9264  0.9983
   60MOL   H46637164   4.679   1.222   0.213 -0.3815  1.0736 -0.2848
   60MOL   C46737165   4.832   1.109   0.305  0.2547  0.0617  0.0972
   60MOL   O46837166   4.735   1.002   0.288 -0.0288 -0.7134 -0.5441
   60MOL   C46937167   4.775   0.868   0.331  0.6658  0.3635  0.6512
   60MOL   C47037168   4.663   0.763   0.299  0.5127  0.0318 -0.0594
   60MOL   C47137169   4.529   0.809   0.366 -0.3499 -0.0147  0.0042
   60MOL   C47237170   4.417   0.711   0.335  0.0497 -0.4574 -0.4553
   60MOL   C47337171   4.280   0.774   0.363  0.2189 -0.6984 -0.3366
   60MOL   C47437172   4.255   0.805   0.511  0.4973  0.5024  0.3243
   60MOL   C47537173   4.216   0.686   0.587  1.0189 -0.4579  0.1826
   60MOL   C47637174   4.072   0.651   0.544  0.2464  0.4271  0.3663
   60MOL   C47737175   4.854   1.137   0.453 -0.6630 -0.6571  1.0041
   60MOL   H47837176   4.923   1.071   0.257  0.5876  0.5672  0.3217
   60MOL   H47937177   4.785   0.885   0.438 -0.4272 -0.6708  0.9306
   60MOL   H48037178   4.870   0.833   0.291  1.2213 -0.0396  2.3092
   60MOL   H48137179   4.704   0.666   0.325 -1.5149 -1.2871 -1.6308
   60MOL   H48237180   4.650   0.753   0.191 -1.1446 -0.0627  0.1377
   60MOL   H48337181   4.540   0.824   0.474 -1.3381  0.0780  0.0904
   60MOL   H48437182   4.507   0.908   0.326  1.7290 -0.0733 -1.3851
   60MOL   H48537183   4.398   0.684   0.231  1.6363  1.7797 -1.3629
   60MOL   H48637184   4.423   0.622   0.396  1.0707  1.6046  2.5579
   60MOL   H48737185   4.272   0.871   0.312  1.0583  0.1042  1.0421
   60MOL   H48837186   4.198   0.718   0.317 -0.7046 -0.1821  0.6455
   60MOL   H48937187   4.175   0.878   0.528 -1.7300 -1.6389 -0.5960
   60MOL   H49037188   4.341   0.856   0.553  0.0115  2.4092 -0.9044
   60MOL   H49137189   4.279   0.599   0.566  0.9232  0.2953 -3.5913
   60MOL   H49237190   4.226   0.697   0.695  0.4665 -2.3855  0.4594
   60MOL   H49337191   4.012   0.742   0.534 -0.0010  0.1959 -0.2601
   60MOL   H49437192   4.027   0.585   0.618 -2.1887 -0.0143 -1.4324
   60MOL   H49537193   4.065   0.603   0.446 -0.4637  0.9769  0.1428
   60MOL   H49637194   4.899   1.055   0.508  0.1022 -1.6747 -1.0520
   60MOL   H49737195   4.935   1.210   0.449 -1.1875 -0.0538  1.2528
   60MOL   C49837196   4.742   1.205   0.527 -0.3387  0.3280 -0.3778
   60MOL   O49937197   4.794   1.251   0.648 -0.0126  0.4311 -0.4335
   60MOL   C50037198   4.811   1.393   0.649 -0.4697 -0.4072 -0.3531
   60MOL   C50137199   4.696   1.476   0.708 -0.2783 -0.3836 -0.1849
   60MOL   C50237200   4.735   1.625   0.711 -0.6846 -0.0771 -0.2434
   60MOL   C50337201   4.647   1.724   0.779 -0.0540  0.4714  0.0816
   60MOL   C50437202   4.651   1.743   0.934 -0.2942  0.9598  0.1824
   60MOL   C50537203   4.566   1.865   0.964  0.2529  1.0304 -0.6447
   60MOL   C50637204   4.410   1.859   0.986 -1.2641 -0.4619  0.4931
   60MOL   C50737205   4.345   1.998   0.965  0.5606  0.0035 -0.0654
   60MOL   C50837206   4.636   1.097   0.573  0.6013  0.5119  0.1669
   60MOL   H50937207   4.688   1.275   0.464 -1.0130  0.4330  0.3022
   60MOL   H51037208   4.863   1.433   0.562  2.1398 -0.5162  1.0858
   60MOL   H51137209   4.893   1.399   0.720 -1.1416  1.5198  0.2706
   60MOL   H51237210   4.682   1.434   0.808  1.5889  0.6940  0.5692
   60MOL   H51337211   4.607   1.463   0.646 -0.4681 -0.3345  0.0745
   60MOL   H51437212   4.837   1.644   0.743 -0.7982 -1.7142  1.1956
   60MOL   H51537213   4.725   1.652   0.606  2.8509 -0.2757 -0.6906
   60MOL   H51637214   4.660   1.822   0.733  1.8484  1.0268  1.7190
   60MOL   H51737215   4.543   1.699   0.759 -0.1956  2.0989 -1.2792
   60MOL   H51837216   4.613   1.655   0.987 -0.6757 -0.2794 -2.0893
   60MOL   H51937217   4.752   1.733   0.974  0.0528 -0.3425 -0.9709
   60MOL   H52037218   4.597   1.948   0.902 -0.2094  1.3084 -0.5024
   60MOL   H52137219   4.607   1.906   1.057  0.5571 -1.0219  0.1575
   60MOL   H52237220   4.371   1.794   0.908 -1.5681  2.0636 -1.5404
   60MOL   H52337221   4.400   1.813   1.084 -0.6509 -0.4625  0.5595
   60MOL   H52437222   4.237   1.991   0.973  0.6582 -1.8895 -0.1472
   60MOL   H52537223   4.364   2.036   0.864  0.2243  0.7204  0.1339
   60MOL   H52637224   4.400   2.058   1.037  0.6249 -0.0709 -0.0528
   60MOL   H52737225   4.606   1.035   0.488 -1.0110  1.2449  0.1735
   60MOL   H52837226   4.692   1.041   0.647 -3.2644 -0.8700  2.2192
   60MOL   C52937227   4.501   1.140   0.636  0.2459 -0.3808 -0.0173
   60MOL   O53037228   4.441   1.031   0.704 -0.5439  0.6261 -0.1516
   60MOL   C53137229   4.480   1.019   0.844 -0.2232  0.3235  0.2079
   60MOL   C53237230   4.387   0.916   0.912 -0.2490 -0.3887 -0.2091
   60MOL   C53337231   4.239   0.955   0.887  0.7798 -0.9628  0.0196
   60MOL   C53437232   4.130   0.865   0.955 -0.0355 -0.3647 -0.4437
   60MOL   C53537233   4.127   0.873   1.105 -0.3805 -0.2750 -0.0839
   60MOL   C53637234   4.032   0.774   1.174  0.4984  0.5671  0.0620
   60MOL   C53737235   4.050   0.786   1.332 -0.4489  0.0715  0.4290
   60MOL   C53837236   3.964   0.886   1.410  0.3446 -0.3776  0.3859
   60MOL   C53937237   4.397   1.185   0.528 -1.2652  0.1011 -0.0667
   60MOL   H54037238   4.530   1.215   0.709 -0.1806 -1.1700  0.9770
   60MOL   H54137239   4.584   0.987   0.851 -0.7188 -0.9072  2.7172
   60MOL   H54237240   4.476   1.112   0.901 -0.9197  0.0770  0.5712
   60MOL   H54337241   4.410   0.915   1.019 -2.1704  0.0344  0.2159
   60MOL   H54437242   4.415   0.816   0.879  3.3660  0.2466  0.6358
   60MOL   H54537243   4.246   1.053   0.935  3.4188 -1.3768  0.5560
   60MOL   H54637244   4.218   0.963   0.781  0.8202  1.9253  0.1898
   60MOL   H54737245   4.032   0.893   0.915 -0.0900 -2.5187 -1.9295
   60MOL   H54837246   4.147   0.761   0.926  0.2685  0.2061 -2.3764
   60MOL   H54937247   4.217   0.859   1.164 -1.3721 -1.0122  1.2817
   60MOL   H55037248   4.098   0.974   1.133  0.7000  0.0170  0.0109
   60MOL   H55137249   4.054   0.677   1.130 -1.0229 -0.2459  1.0600
   60MOL   H55237250   3.926   0.792   1.158  0.7337  2.2388  0.2840
   60MOL   H55337251   4.017   0.694   1.381  0.9117 -0.0739  1.0789
   60MOL   H55437252   4.155   0.796   1.360 -0.7608  0.0684  1.6705
   60MOL   H55537253   3.983   0.879   1.517 -2.8428  1.4544  1.1362
   60MOL   H55637254   3.860   0.859   1.391  0.5246  1.5090 -3.6971
   60MOL   H55737255   3.989   0.983   1.367 -0.5291 -0.1159  0.4394
   60MOL   H55837256   4.448   1.249   0.456  0.7911 -1.6878 -0.2586
   60MOL   H55937257   4.381   1.100   0.463  5.0779 -1.2242 -0.2860
   60MOL   C56037258   4.265   1.253   0.586 -0.4969  0.0507 -0.4209
   60MOL   O56137259   4.173   1.279   0.478 -0.7484  0.4722 -0.4081
   60MOL   C56237260   4.106   1.169   0.417 -0.2348  0.5116 -0.6117
   60MOL   C56337261   4.062   1.225   0.277 -0.9197  0.3571  0.1879
   60MOL   C56437262   4.172   1.187   0.168  0.4523 -0.2447  0.4850
   60MOL   C56537263   4.150   1.262   0.040 -0.1336  0.4269 -0.1229
   60MOL   C56637264   4.264   1.256   7.711  0.8800  0.1554 -0.2663
   60MOL   C56737265   4.251   1.362   7.600  0.4990 -0.2766  0.3908
   60MOL   C56837266   4.121   1.353   7.524 -0.0511 -0.1144 -0.3911
   60MOL   C56937267   4.094   1.476   7.446 -0.4376 -0.1862  0.3770
   60MOL   C57037268   4.286   1.383   0.662 -0.2222 -1.5025 -0.2558
   60MOL   H57137269   4.225   1.178   0.654 -0.9943 -1.3906 -2.2669
   60MOL   H57237270   4.019   1.137   0.476 -0.6317 -0.2666 -1.6132
   60MOL   H57337271   4.158   1.074   0.408 -0.7643  0.1652 -0.1117
   60MOL   H57437272   4.051   1.334   0.280 -0.2100  0.4125  1.0553
   60MOL   H57537273   3.969   1.178   0.248 -0.6249 -0.8951  1.2247
   60MOL   H57637274   4.266   1.214   0.215  1.2228  1.5364 -1.9446
   60MOL   H57737275   4.173   1.080   0.147 -0.2835  0.1183 -1.5937
   60MOL   H57837276   4.061   1.221   7.766 -0.8735 -0.0448  1.6348
   60MOL   H57937277   4.124   1.364   0.071 -2.3449 -0.6054  1.5711
   60MOL   H58037278   4.356   1.270   7.768  0.0603 -2.7539  1.8674
   60MOL   H58137279   4.278   1.158   7.665  2.7653  0.6291 -0.7712
   60MOL   H58237280   4.334   1.367   7.530 -0.5032 -1.2115 -0.8882
   60MOL   H58337281   4.253   1.460   7.648  0.4242  0.2117 -0.5935
   60MOL   H58437282   4.123   1.270   7.452 -0.4218  0.5984 -1.2381
   60MOL   H58537283   4.026   1.341   7.577 -0.4417 -0.3825 -1.1415
   60MOL   H58637284   3.995   1.466   7.401 -0.1351  0.1313 -0.3658
   60MOL   H58737285   4.162   1.499   7.365 -0.1139 -2.9410 -0.1923
   60MOL   H58837286   4.087   1.564   7.510 -0.2220  0.2610 -0.2206
   60MOL   H58937287   4.339   1.357   0.754  1.1378  2.2971  0.1295
   60MOL   H59037288   4.351   1.448   0.603 -2.4007  0.5595 -0.4325
   60MOL   C59137289   4.159   1.455   0.705 -0.4291  0.1418  0.4822
   60MOL   O59237290   4.196   1.589   0.735 -0.0466  0.4865  0.2314
   60MOL   C59337291   4.090   1.682   0.724  0.2644  0.8198 -0.2250
   60MOL   C59437292   4.133   1.825   0.696 -0.4755  0.2450  0.1921
   60MOL   C59537293   4.233   1.862   0.583  0.1087  0.1681 -0.2222
   60MOL   C59637294   4.196   1.778   0.453 -0.9305 -0.3813  0.2117
   60MOL   C59737295   4.302   1.782   0.349  0.1218 -0.5065 -0.4069
   60MOL   C59837296   4.257   1.703   0.223  0.4861  0.0175 -0.3545
   60MOL   C59937297   4.371   1.669   0.132  0.2633  0.6394 -0.4496
   60MOL   C60037298   4.422   1.793   0.054 -0.6550  0.5376  0.1297
   60MOL   C60137299   4.068   1.389   0.800  0.3816  0.7567  0.0188
   60MOL   H60237300   4.102   1.461   0.612 -0.4508  1.2219  0.5541
   60MOL   H60337301   4.031   1.665   0.814  2.1093 -4.2565  0.2049
   60MOL   H60437302   4.027   1.657   0.639 -1.7027 -0.1105  1.4613
   60MOL   H60537303   4.184   1.860   0.786  1.1978  1.3810 -1.1509
   60MOL   H60637304   4.036   1.875   0.696 -1.4973 -1.6823  0.4313
   60MOL   H60737305   4.228   1.970   0.568  2.0272  0.2408 -0.4405
   60MOL   H60837306   4.333   1.837   0.620  0.0902 -0.2404 -0.4458
   60MOL   H60937307   4.191   1.670   0.469  2.1515 -0.5099  0.6275
   60MOL   H61037308   4.101   1.801   0.405 -0.1773  0.0382 -1.0939
   60MOL   H61137309   4.317   1.883   0.312 -2.4692  0.5337  1.2531
   60MOL   H61237310   4.392   1.747   0.400  0.2702 -0.2486 -0.4929
   60MOL   H61337311   4.186   1.768   0.172  1.8566 -0.1521 -2.5437
   60MOL   H61437312   4.204   1.614   0.259  0.9459 -0.5939 -1.1820
   60MOL   H61537313   4.454   1.631   0.191  0.9182  3.0656  0.2659
   60MOL   H61637314   4.346   1.609   0.044  1.2574  0.0894 -0.3591
   60MOL   H61737315   4.360   1.825   7.744 -0.0756  0.7176 -0.2380
   60MOL   H61837316   4.514   1.754   0.009  0.8072 -0.6961  4.0228
   60MOL   H61937317   4.457   1.880   0.109 -1.0844  1.0002 -0.3254
   60MOL   H62037318   4.111   1.397   0.899 -1.3887  0.7022  0.8130
   60MOL   H62137319   3.970   1.436   0.794 -0.6421 -0.9066  2.8587
   60MOL   H62237320   4.059   1.282   0.779 -0.1967  0.7547  0.2577
   61MOL     C137321   3.719   4.588   6.288  0.9535  0.1170  0.4974
   61MOL     O237322   3.697   4.479   6.372 -0.4137  0.2276 -0.1056
   61MOL     C337323   3.563   4.417   6.363  0.7171 -0.6301  0.4024
   61MOL     C437324   3.444   4.518   6.384 -0.0025  0.2830 -0.5044
   61MOL     C537325   3.452   4.588   6.516 -0.4658 -0.1824 -0.4106
   61MOL     C637326   3.394   4.725   6.527  0.2489 -0.6797  0.3380
   61MOL     C737327   3.481   4.832   6.463 -0.4647 -1.0679  0.0893
   61MOL     C837328   3.414   4.968   6.467  0.5238 -0.5046 -0.0792
   61MOL     C937329   3.391   5.035   6.331 -0.7090  0.2591  0.2353
   61MOL    C1037330   3.301   5.161   6.327 -0.0605  0.6682  0.2005
   61MOL    C1137331   3.864   4.633   6.313  0.2615  0.3542 -0.3485
   61MOL    H1237332   3.712   4.560   6.183 -0.7746  0.1979  0.5817
   61MOL    H1337333   3.558   4.330   6.428 -0.6570 -1.9363 -1.3972
   61MOL    H1437334   3.561   4.373   6.263 -1.3088 -1.2541  0.7069
   61MOL    H1537335   3.349   4.466   6.383 -0.7787  1.7001 -0.7811
   61MOL    H1637336   3.440   4.582   6.296 -0.1294  0.5035 -0.3358
   61MOL    H1737337   3.414   4.519   6.592 -1.8556 -0.2749 -1.1588
   61MOL    H1837338   3.557   4.605   6.538 -0.5823  0.0937 -0.0636
   61MOL    H1937339   3.308   4.720   6.461  0.4521  1.6470 -0.1458
   61MOL    H2037340   3.378   4.752   6.631  1.9532 -0.9610  0.6919
   61MOL    H2137341   3.578   4.845   6.511  0.5403 -1.2988 -1.7977
   61MOL    H2237342   3.512   4.803   6.362 -0.7579  2.5840 -1.1309
   61MOL    H2337343   3.473   5.022   6.541 -0.2230 -0.3684  0.4279
   61MOL    H2437344   3.314   4.946   6.506  1.2237 -2.1780  0.8129
   61MOL    H2537345   3.484   5.061   6.280 -1.1265  0.3948 -0.4566
   61MOL    H2637346   3.355   4.961   6.260 -1.1831  0.5776  0.1465
   61MOL    H2737347   3.278   5.192   6.225 -1.4858  0.2250  0.3728
   61MOL    H2837348   3.353   5.244   6.375 -2.7246  2.4068  0.2016
   61MOL    H2937349   3.209   5.137   6.380  1.1313 -0.4476  1.8085
   61MOL    H3037350   3.896   4.588   6.406 -1.2467 -3.1191 -1.4287
   61MOL    H3137351   3.937   4.594   6.242 -0.5451  1.5091 -1.8666
   61MOL    H3237352   3.641   4.662   6.303 -0.2610 -0.7229 -1.5251
   61MOL    C3337353   3.884   4.782   6.304  0.1430  0.4118  0.1647
   61MOL    O3437354   3.881   4.823   6.163 -0.1150  0.1887  0.4838
   61MOL    C3537355   3.825   4.956   6.152  0.7091 -1.0775  0.0836
   61MOL    C3637356   3.851   5.007   6.006  0.4015  0.1700  0.4512
   61MOL    C3737357   3.998   5.033   5.969  0.3733  0.1841 -0.1903
   61MOL    C3837358   4.053   4.960   5.844 -0.1640 -0.7775  0.2393
   61MOL    C3937359   4.199   4.989   5.797  0.0673  0.0487  0.0406
   61MOL    C4037360   4.224   4.958   5.653 -1.2029 -0.7594  0.0842
   61MOL    C4137361   4.359   5.018   5.599 -0.2201  0.8603 -0.5484
   61MOL    C4237362   4.399   4.963   5.458  0.2261  0.0277 -0.6993
   61MOL    C4337363   4.015   4.835   6.379 -0.5365 -0.6446  0.0469
   61MOL    H4437364   3.789   4.824   6.338  1.0580  2.5587  0.1208
   61MOL    H4537365   3.873   5.030   6.217 -2.3977  2.5000 -1.4938
   61MOL    H4637366   3.717   4.952   6.165  0.4499 -2.2809 -2.1703
   61MOL    H4737367   3.800   5.102   5.988  0.6928  0.3654  0.6674
   61MOL    H4837368   3.797   4.930   5.949 -0.8970  0.1990  1.6212
   61MOL    H4937369   4.027   5.138   5.973  0.6881  0.1453 -1.1815
   61MOL    H5037370   4.057   4.995   6.052 -0.8727  1.5982  1.3763
   61MOL    H5137371   4.044   4.852   5.832  0.5942 -0.6494 -1.6186
   61MOL    H5237372   3.994   5.008   5.765 -0.9847  0.4904  1.5862
   61MOL    H5337373   4.225   5.089   5.831  0.0976 -0.6861  2.2751
   61MOL    H5437374   4.274   4.924   5.843  0.3493 -0.7217 -1.4853
   61MOL    H5537375   4.136   4.978   5.593 -0.9985  1.6930  0.5472
   61MOL    H5637376   4.230   4.850   5.643 -0.2949 -0.6198 -0.9946
   61MOL    H5737377   4.353   5.127   5.602 -1.3955  0.7547  2.2404
   61MOL    H5837378   4.440   5.004   5.670 -1.8938 -2.1253  0.8446
   61MOL    H5937379   4.492   5.010   5.427  0.4221  2.5168  3.2776
   61MOL    H6037380   4.322   4.999   5.390  1.5385 -0.7360 -2.6011
   61MOL    H6137381   4.391   4.855   5.447 -0.3158 -0.0149  0.0795
   61MOL    H6237382   4.089   4.756   6.369  1.1747  0.9971 -0.5293
   61MOL    H6337383   4.049   4.921   6.321  2.8876 -2.4242 -0.6631
   61MOL    C6437384   3.992   4.859   6.528  0.1036 -0.3642 -0.2761
   61MOL    O6537385   3.902   4.967   6.529  0.7855  0.2899  0.3355
   61MOL    C6637386   3.827   4.994   6.648  0.3623  0.2145 -0.5851
   61MOL    C6737387   3.765   5.133   6.646  0.3199 -0.8456  0.1654
   61MOL    C6837388   3.678   5.167   6.770 -1.0663 -1.1911  0.5084
   61MOL    C6937389   3.600   5.295   6.754 -0.4319 -0.3903  0.1458
   61MOL    C7037390   3.505   5.333   6.870 -0.2032  0.2843 -0.1020
   61MOL    C7137391   3.484   5.483   6.894 -0.1277 -0.3862  0.5174
   61MOL    C7237392   3.369   5.509   6.995 -0.1182  0.6708  0.3657
   61MOL    C7337393   3.337   5.648   7.026 -0.3789  0.4606 -0.0680
   61MOL    C7437394   4.124   4.896   6.605  0.2339  0.3695  0.1230
   61MOL    H7537395   3.945   4.771   6.571 -1.6051 -0.6255 -2.5702
   61MOL    H7637396   3.880   4.988   6.743  0.1739  1.5320 -0.3944
   61MOL    H7737397   3.759   4.909   6.659  0.9972 -0.3117 -0.7320
   61MOL    H7837398   3.698   5.154   6.563  1.6270  2.7395 -0.0623
   61MOL    H7937399   3.850   5.201   6.638  0.5239 -0.8779  1.7598
   61MOL    H8037400   3.603   5.089   6.784 -3.3889  1.0429  1.0551
   61MOL    H8137401   3.745   5.175   6.856 -1.5366 -1.5893  0.9163
   61MOL    H8237402   3.670   5.377   6.740 -0.0850 -0.3825  1.8112
   61MOL    H8337403   3.537   5.307   6.666 -1.9012 -0.0247  1.2241
   61MOL    H8437404   3.414   5.282   6.840  0.6176 -0.6214 -1.0937
   61MOL    H8537405   3.560   5.288   6.952  2.1502 -1.2322 -2.4234
   61MOL    H8637406   3.460   5.532   6.800  3.2296  0.0503 -0.1761
   61MOL    H8737407   3.575   5.535   6.923 -0.7277 -0.3291  2.3526
   61MOL    H8837408   3.281   5.457   6.956 -0.2098  1.7082 -0.8806
   61MOL    H8937409   3.403   5.466   7.088 -0.2112 -2.4891 -0.9901
   61MOL    H9037410   3.250   5.649   7.091  1.5799 -4.9135  2.9168
   61MOL    H9137411   3.323   5.711   6.937 -1.7240 -0.5400 -0.5778
   61MOL    H9237412   3.418   5.697   7.080  1.3696 -0.6083 -1.6408
   61MOL    H9337413   4.174   4.974   6.548 -0.2327 -0.1166 -0.9534
   61MOL    H9437414   4.107   4.928   6.708 -0.8210  0.7892 -0.1802
   61MOL    C9537415   4.220   4.778   6.637  0.3685  0.3482 -0.4962
   61MOL    O9637416   4.194   4.751   6.774  0.3253  0.2274 -0.9848
   61MOL    C9737417   4.228   4.621   6.808  0.5201  0.2067 -1.1835
   61MOL    C9837418   4.223   4.611   6.964 -0.3396 -0.1344  0.8149
   61MOL    C9937419   4.336   4.692   7.038  0.3947  0.7146  0.2341
   61MOL   C10037420   4.342   4.637   7.186 -0.0498  0.3166  0.5375
   61MOL   C10137421   4.444   4.706   7.273 -0.3405 -0.5219  0.2702
   61MOL   C10237422   4.427   4.664   7.416 -0.2470 -0.5999 -0.5802
   61MOL   C10337423   4.527   4.716   7.516  0.9742 -0.3894  0.2158
   61MOL   C10437424   4.525   4.862   7.545  0.4038 -0.0397 -0.2274
   61MOL   C10537425   4.370   4.809   6.630  0.5953 -0.1306  0.3246
   61MOL   H10637426   4.201   4.695   6.569  0.4063  2.2779 -2.9469
   61MOL   H10737427   4.327   4.580   6.786  0.2462  0.5651 -3.1103
   61MOL   H10837428   4.155   4.552   6.765  1.0346 -1.1599  0.0995
   61MOL   H10937429   4.248   4.507   6.984  0.4617 -0.1227 -0.0663
   61MOL   H11037430   4.122   4.634   6.998 -0.2214 -0.0360  1.1033
   61MOL   H11137431   4.433   4.687   6.990  0.4364 -0.0615  0.3986
   61MOL   H11237432   4.300   4.795   7.034 -1.2200  0.1896  0.8259
   61MOL   H11337433   4.243   4.653   7.229 -0.2740  2.4865 -0.6863
   61MOL   H11437434   4.359   4.530   7.193 -0.2914  0.4213  3.6912
   61MOL   H11537435   4.538   4.672   7.229 -1.2074  0.0877 -2.0865
   61MOL   H11637436   4.423   4.812   7.263 -2.1506 -0.8991 -0.0116
   61MOL   H11737437   4.423   4.555   7.418  2.0983 -0.7545 -2.4360
   61MOL   H11837438   4.329   4.692   7.453  0.0639 -2.0408  1.4276
   61MOL   H11937439   4.518   4.665   7.612 -0.4932  0.5649  0.6060
   61MOL   H12037440   4.625   4.696   7.473 -0.4116 -2.2554 -2.1954
   61MOL   H12137441   4.602   4.894   7.615  0.0240  2.0056 -0.7155
   61MOL   H12237442   4.425   4.887   7.580  0.0185 -1.3034 -0.4095
   61MOL   H12337443   4.537   4.918   7.452  1.1400  1.2051  0.6025
   61MOL   H12437444   4.398   4.892   6.694 -1.6043  1.0635 -0.2249
   61MOL   H12537445   4.414   4.712   6.654 -1.6665 -1.2259  0.1539
   61MOL   C12637446   4.412   4.854   6.483  0.3275 -0.3114 -0.1768
   61MOL   O12737447   4.375   4.744   6.403  0.0846  0.1342  0.3239
   61MOL   C12837448   4.341   4.781   6.271  0.6118 -0.7543  0.7870
   61MOL   C12937449   4.302   4.665   6.176 -0.2412 -1.0981 -1.1501
   61MOL   C13037450   4.414   4.575   6.129 -0.1832  0.8978 -0.1787
   61MOL   C13137451   4.357   4.451   6.054  0.7207  0.7965  0.3436
   61MOL   C13237452   4.465   4.338   6.034 -0.1622  0.7186  0.3833
   61MOL   C13337453   4.396   4.203   5.994  0.3895  0.2845 -0.2186
   61MOL   C13437454   4.497   4.099   5.948 -0.5875  0.3454 -0.3472
   61MOL   C13537455   4.426   3.968   5.903  0.0019  0.6227  0.3104
   61MOL   C13637456   4.567   4.874   6.478  0.6669  0.1497  0.1314
   61MOL   H13737457   4.355   4.943   6.454  0.7702 -0.0507 -0.2567
   61MOL   H13837458   4.435   4.822   6.232  0.1976  1.6411  2.2245
   61MOL   H13937459   4.273   4.866   6.268  2.5345  0.8256  0.8695
   61MOL   H14037460   4.257   4.722   6.095  1.7958  0.3654 -1.3169
   61MOL   H14137461   4.226   4.609   6.230  0.5027 -2.6533 -1.6929
   61MOL   H14237462   4.484   4.631   6.067  1.2973 -0.4378  0.2560
   61MOL   H14337463   4.474   4.543   6.214 -0.4399 -2.1975 -1.1074
   61MOL   H14437464   4.285   4.404   6.122 -0.7329  0.5996 -1.3160
   61MOL   H14537465   4.307   4.471   5.960 -2.5818 -1.9625  1.3938
   61MOL   H14637466   4.522   4.365   5.944  1.0224  0.0471  0.9154
   61MOL   H14737467   4.537   4.319   6.113  0.2536  0.5155 -0.0392
   61MOL   H14837468   4.314   4.211   5.922  1.3450  1.1931 -1.2339
   61MOL   H14937469   4.342   4.161   6.079  0.2334  1.6018  0.3453
   61MOL   H15037470   4.555   4.135   5.863 -0.1466 -0.5528 -0.4358
   61MOL   H15137471   4.571   4.078   6.026  0.7284  0.5627 -1.5171
   61MOL   H15237472   4.359   3.931   5.981  0.5290 -1.2541 -0.0902
   61MOL   H15337473   4.488   3.880   5.882 -1.4091 -0.1498 -0.7051
   61MOL   H15437474   4.371   3.979   5.810  2.3013  0.5037 -1.0928
   61MOL   H15537475   4.612   4.793   6.535 -0.9205  0.5623  2.0335
   61MOL   H15637476   4.604   4.879   6.375 -0.1963 -2.8845 -0.3730
   61MOL   C15737477   4.599   5.010   6.550 -0.2550 -0.7963 -0.3091
   61MOL   O15837478   4.519   5.106   6.487  0.5343 -0.0013  0.2290
   61MOL   C15937479   4.485   5.219   6.560  0.1634  0.4318  0.5605
   61MOL   C16037480   4.373   5.309   6.487  0.3586 -0.1690  0.3904
   61MOL   C16137481   4.235   5.247   6.480 -0.2651 -0.0120 -0.8259
   61MOL   C16237482   4.143   5.344   6.409  0.7331  0.8813  0.3749
   61MOL   C16337483   4.013   5.275   6.374 -0.2812  0.0645 -0.1683
   61MOL   C16437484   3.914   5.358   6.297 -0.2239 -0.1542  0.7350
   61MOL   C16537485   3.770   5.291   6.296  0.4144 -0.0064 -0.6334
   61MOL   C16637486   3.669   5.341   6.190 -0.4736  0.5032  1.0999
   61MOL   C16737487   4.744   5.051   6.545  0.3813  0.5076 -0.0125
   61MOL   H16837488   4.580   5.006   6.658  1.6286  1.5748  0.1428
   61MOL   H16937489   4.581   5.262   6.590  0.7872 -1.6809  1.6704
   61MOL   H17037490   4.436   5.183   6.651 -1.3860  1.8723  0.3247
   61MOL   H17137491   4.408   5.336   6.387 -1.1573 -2.7540 -0.8922
   61MOL   H17237492   4.364   5.404   6.539 -3.5070  0.2766 -0.9613
   61MOL   H17337493   4.248   5.148   6.435  2.1172 -0.0168 -0.1993
   61MOL   H17437494   4.194   5.227   6.579  0.1171  0.1140 -0.6427
   61MOL   H17537495   4.124   5.435   6.467 -1.0718 -0.5878  2.1712
   61MOL   H17637496   4.200   5.361   6.318  3.2134 -0.3390  1.6379
   61MOL   H17737497   4.026   5.194   6.304 -0.2352  1.6442 -2.0311
   61MOL   H17837498   3.973   5.233   6.466 -0.7783 -0.4877 -0.6341
   61MOL   H17937499   3.946   5.375   6.195 -2.1109  2.5868  0.5592
   61MOL   H18037500   3.902   5.454   6.346  1.0268  0.2130  0.3123
   61MOL   H18137501   3.777   5.184   6.319  4.3674  0.3894  0.3458
   61MOL   H18237502   3.740   5.331   6.393  0.8069 -0.3217 -0.3784
   61MOL   H18337503   3.573   5.311   6.231  0.0188 -0.5219  1.5360
   61MOL   H18437504   3.675   5.302   6.088 -1.5930  1.3144  0.7180
   61MOL   H18537505   3.678   5.449   6.180 -0.1931  0.4438  0.6907
   61MOL   H18637506   4.751   5.086   6.442 -1.3278 -1.3113 -0.7547
   61MOL   H18737507   4.763   5.145   6.599  3.9600  0.2109 -0.6162
   61MOL   C18837508   4.856   4.949   6.581 -0.6870  0.9233  0.0451
   61MOL   O18937509   4.859   4.944   6.722  0.2387  0.1468 -0.3386
   61MOL   C19037510   4.812   4.820   6.771  0.0581 -0.2799 -0.3892
   61MOL   C19137511   4.792   4.833   6.922  0.0743  0.1380  0.3553
   61MOL   C19237512   4.682   4.928   6.958  1.1557  0.7123  0.0979
   61MOL   C19337513   4.680   4.964   7.109 -0.2635 -0.0950 -0.1345
   61MOL   C19437514   4.780   5.071   7.156 -0.9865 -0.7756  0.0868
   61MOL   C19537515   4.789   5.094   7.306 -0.0479  0.3923  0.4897
   61MOL   C19637516   4.880   4.990   7.367  0.6565 -0.1168  0.0809
   61MOL   C19737517   4.879   4.992   7.520  0.2462 -0.2094 -0.2270
   61MOL   C19837518   4.997   4.988   6.532 -0.4264 -0.5863  0.3721
   61MOL   H19937519   4.827   4.856   6.533 -0.0588  1.5854 -1.6403
   61MOL   H20037520   4.714   4.797   6.730  0.2265 -2.4103  0.3666
   61MOL   H20137521   4.888   4.747   6.744  0.4462  0.1632 -0.5073
   61MOL   H20237522   4.887   4.874   6.955  1.0318 -2.4403  0.9160
   61MOL   H20337523   4.787   4.737   6.972 -1.2804 -0.8083 -1.5413
   61MOL   H20437524   4.686   5.019   6.899  0.7341  1.0903  0.6435
   61MOL   H20537525   4.582   4.897   6.928  0.6986 -0.1943  2.4565
   61MOL   H20637526   4.580   5.005   7.122 -0.6799 -1.0755 -0.2383
   61MOL   H20737527   4.685   4.871   7.166 -0.3072 -0.8149 -1.2996
   61MOL   H20837528   4.878   5.048   7.113 -2.3372 -0.2034 -3.5250
   61MOL   H20937529   4.768   5.162   7.097  2.2479 -1.6836 -2.1817
   61MOL   H21037530   4.690   5.100   7.350 -0.3068  1.4184 -0.2285
   61MOL   H21137531   4.842   5.188   7.318 -1.2322  1.3333 -1.5644
   61MOL   H21237532   4.845   4.889   7.341  0.5427  0.3352 -1.5769
   61MOL   H21337533   4.982   5.003   7.333  1.0485 -0.9939  0.8966
   61MOL   H21437534   4.870   5.088   7.570 -0.7486 -1.4932  2.1525
   61MOL   H21537535   4.976   4.957   7.555  1.5187  0.9182 -2.5158
   61MOL   H21637536   4.803   4.932   7.571  1.4687 -0.8856  0.8198
   61MOL   H21737537   5.034   5.076   6.584  1.1481 -1.0279  0.0184
   61MOL   H21837538   5.068   4.915   6.570  0.0418  0.2555  1.1342
   61MOL   C21937539   5.013   4.997   6.378  0.1811 -0.5212  0.2763
   61MOL   O22037540   4.967   4.870   6.330 -0.1684  0.1170  0.1060
   61MOL   C22137541   4.874   4.874   6.221 -0.9168  0.0351 -0.1158
   61MOL   C22237542   4.804   4.734   6.214  0.4650  0.9108 -0.0156
   61MOL   C22337543   4.901   4.632   6.148 -0.5698  0.2692 -0.2106
   61MOL   C22437544   4.845   4.489   6.145  0.1144 -0.0780  0.4950
   61MOL   C22537545   4.951   4.386   6.114  0.5178  0.3817  0.2453
   61MOL   C22637546   4.897   4.249   6.134 -0.5067  0.4842 -0.0908
   61MOL   C22737547   4.985   4.142   6.077  0.0523  0.0467 -0.9112
   61MOL   C22837548   4.909   4.022   6.049  0.0541 -0.6170  0.0703
   61MOL   C22937549   5.155   5.011   6.332  0.3475  0.6160 -0.1172
   61MOL   H23037550   4.954   5.077   6.334  0.9662  0.8180  1.6385
   61MOL   H23137551   4.925   4.897   6.127 -1.2422 -2.7075 -0.9909
   61MOL   H23237552   4.797   4.950   6.235 -1.3046 -0.4674  0.5228
   61MOL   H23337553   4.721   4.747   6.145  0.3484 -0.4812 -0.1500
   61MOL   H23437554   4.767   4.699   6.310 -1.8091 -0.0654 -1.1931
   61MOL   H23537555   4.923   4.646   6.043 -0.1285 -0.3334 -0.2064
   61MOL   H23637556   5.002   4.629   6.191 -0.9429  1.9871  0.8322
   61MOL   H23737557   4.790   4.475   6.238 -1.1418  0.9965 -0.0757
   61MOL   H23837558   4.767   4.472   6.071  2.1196 -1.9620 -1.2577
   61MOL   H23937559   4.999   4.400   6.016  2.4163  0.9727  1.2221
   61MOL   H24037560   5.029   4.407   6.187 -1.0691  0.4211  1.9523
   61MOL   H24137561   4.797   4.236   6.092  0.6020 -0.4496 -2.5046
   61MOL   H24237562   4.895   4.216   6.238  1.5637 -1.9281 -0.7740
   61MOL   H24337563   5.037   4.188   5.993  0.7535  1.3051  0.1843
   61MOL   H24437564   5.055   4.109   6.153 -0.9635  0.2812  0.1594
   61MOL   H24537565   4.961   3.959   5.975 -0.6793 -0.4404 -0.5981
   61MOL   H24637566   4.808   4.042   6.015  0.9598  0.6032 -2.0177
   61MOL   H24737567   4.899   3.959   6.137 -1.0025  1.1574  1.2229
   61MOL   H24837568   5.216   4.949   6.397 -1.9478  0.1247  1.6517
   61MOL   H24937569   5.173   4.980   6.229 -2.4304  0.2472 -0.5341
   61MOL   C25037570   5.199   5.158   6.355  0.2950  0.2816 -0.4016
   61MOL   O25137571   5.109   5.254   6.304 -0.1948 -0.1093  0.0161
   61MOL   C25237572   5.056   5.358   6.383  0.1257 -0.0524 -0.5501
   61MOL   C25337573   4.965   5.445   6.303  0.1134 -0.1066  0.0481
   61MOL   C25437574   4.843   5.362   6.259  0.5416  0.1984  0.2258
   61MOL   C25537575   4.725   5.453   6.222  0.8066  0.4705  0.2352
   61MOL   C25637576   4.643   5.530   6.331  0.1738  0.7169  0.4960
   61MOL   C25737577   4.505   5.571   6.290  0.2449 -0.2172 -0.3260
   61MOL   C25837578   4.514   5.681   6.177 -0.6015 -0.4472  0.2643
   61MOL   C25937579   4.369   5.736   6.149 -0.5129 -0.7996  0.4635
   61MOL   C26037580   5.328   5.183   6.279  0.6618  0.0751 -0.6202
   61MOL   H26137581   5.212   5.172   6.462 -2.2360 -2.5650  0.3527
   61MOL   H26237582   5.136   5.412   6.432 -1.2554  2.1681 -0.6707
   61MOL   H26337583   4.993   5.317   6.462  0.0218 -0.0424 -0.6266
   61MOL   H26437584   5.018   5.490   6.220 -0.2127 -1.4825 -0.9224
   61MOL   H26537585   4.933   5.523   6.373  1.4223 -0.4773  1.0703
   61MOL   H26637586   4.883   5.307   6.174 -1.4003 -3.1421  1.3733
   61MOL   H26737587   4.816   5.285   6.330 -0.1520  1.9453  1.9168
   61MOL   H26837588   4.752   5.525   6.145 -0.0490  2.3619  1.6708
   61MOL   H26937589   4.661   5.381   6.171  1.8160  0.4331 -0.9990
   61MOL   H27037590   4.624   5.453   6.406 -3.0960 -0.1981 -1.1689
   61MOL   H27137591   4.696   5.609   6.384 -1.5827  0.3916  2.8352
   61MOL   H27237592   4.449   5.617   6.371 -0.9483  0.3526 -1.4614
   61MOL   H27337593   4.453   5.488   6.242 -0.6439  1.1985 -1.8916
   61MOL   H27437594   4.572   5.762   6.222 -1.6980 -0.3567  1.5494
   61MOL   H27537595   4.556   5.646   6.083 -2.1140 -1.3484 -0.0819
   61MOL   H27637596   4.337   5.782   6.242 -1.3634 -0.2258 -0.1093
   61MOL   H27737597   4.303   5.655   6.118 -0.3196 -0.3645 -1.1053
   61MOL   H27837598   4.358   5.814   6.074  1.5536  1.6232  2.5813
   61MOL   H27937599   5.396   5.099   6.279 -0.0039 -0.4722 -1.5690
   61MOL   H28037600   5.303   5.181   6.172 -0.7498 -0.2970 -0.3002
   61MOL   C28137601   5.400   5.316   6.314 -0.1686  0.2553  0.1791
   61MOL   O28237602   5.484   5.344   6.202  0.2213 -0.2957  0.0227
   61MOL   C28337603   5.425   5.419   6.100  0.3369 -0.6713  1.2214
   61MOL   C28437604   5.529   5.425   5.981 -0.1563 -0.1057 -0.1104
   61MOL   C28537605   5.551   5.286   5.918  0.5043 -0.7697 -0.1175
   61MOL   C28637606   5.640   5.309   5.794 -0.0084  0.4604 -1.1752
   61MOL   C28737607   5.673   5.180   5.716 -0.4230  0.4702  0.2970
   61MOL   C28837608   5.789   5.196   5.615  0.4542  0.2272 -0.0498
   61MOL   C28937609   5.923   5.222   5.676  0.0374  0.3235  0.1394
   61MOL   C29037610   6.032   5.254   5.571  0.1193  0.6039  0.2097
   61MOL   C29137611   5.485   5.317   6.439 -0.3401  0.8831 -0.1761
   61MOL   H29237612   5.331   5.399   6.329  1.6958  2.1282 -1.3543
   61MOL   H29337613   5.399   5.514   6.145 -1.1893 -1.1624  1.4322
   61MOL   H29437614   5.337   5.368   6.059  0.3541  0.6060 -0.4363
   61MOL   H29537615   5.632   5.452   6.003  0.5878 -0.6359 -2.7913
   61MOL   H29637616   5.495   5.497   5.906 -0.8880  2.1088  2.2491
   61MOL   H29737617   5.592   5.221   5.996 -0.1711 -0.3101  0.6198
   61MOL   H29837618   5.453   5.244   5.895 -0.7582  1.7648  0.4626
   61MOL   H29937619   5.609   5.380   5.717 -0.1942  1.2831 -0.3499
   61MOL   H30037620   5.729   5.353   5.840 -0.8851  1.0584 -0.0284
   61MOL   H30137621   5.702   5.097   5.781  1.4459  0.5380 -0.4365
   61MOL   H30237622   5.571   5.157   5.685 -0.3628  0.5093  0.0767
   61MOL   H30337623   5.759   5.278   5.549 -1.3161  0.0396  0.4843
   61MOL   H30437624   5.800   5.103   5.559 -2.8256 -0.0729 -0.3185
   61MOL   H30537625   5.928   5.308   5.743  1.3275 -0.3893  0.9691
   61MOL   H30637626   5.963   5.139   5.735 -0.7936  0.1939  0.5342
   61MOL   H30737627   6.115   5.286   5.635  1.2863 -1.8043 -0.0558
   61MOL   H30837628   6.003   5.322   5.490  0.3317 -0.4573 -0.7620
   61MOL   H30937629   6.061   5.167   5.512 -0.2132  1.7740 -1.7172
   61MOL   H31037630   5.426   5.269   6.517 -4.3221  2.7554 -1.8723
   61MOL   H31137631   5.574   5.255   6.440 -1.3080 -0.5538  2.2400
   61MOL   C31237632   5.534   5.450   6.496  0.5054  0.4450  0.7260
   61MOL   O31337633   5.439   5.525   6.571  0.1871  0.6355  0.4978
   61MOL   C31437634   5.445   5.523   6.709 -0.5024 -0.3524 -0.2142
   61MOL   C31537635   5.364   5.639   6.759 -0.2890 -0.2429  0.0393
   61MOL   C31637636   5.323   5.629   6.909 -0.1215  0.6179 -0.2936
   61MOL   C31737637   5.227   5.745   6.942  0.2279 -0.0201  0.1064
   61MOL   C31837638   5.179   5.749   7.092  0.1163 -0.0305  0.3709
   61MOL   C31937639   5.284   5.764   7.195  0.1574  0.5323 -1.0047
   61MOL   C32037640   5.239   5.782   7.345  0.1923 -0.5488 -0.1261
   61MOL   C32137641   5.335   5.724   7.444 -1.1201 -0.2129  0.4509
   61MOL   C32237642   5.600   5.563   6.399  0.3408 -0.3242 -0.4820
   61MOL   H32337643   5.610   5.419   6.567 -0.0745  0.9449  1.5775
   61MOL   H32437644   5.547   5.543   6.742 -0.3099  0.9974 -1.5756
   61MOL   H32537645   5.424   5.421   6.741  0.1556 -0.1149  1.0134
   61MOL   H32637646   5.268   5.636   6.709  0.2799  0.5291 -1.1198
   61MOL   H32737647   5.409   5.736   6.738 -3.0744  1.6340  2.3752
   61MOL   H32837648   5.278   5.531   6.917  1.0367  0.1502  0.4814
   61MOL   H32937649   5.407   5.646   6.976 -1.8132  3.0654  1.2924
   61MOL   H33037650   5.279   5.840   6.926 -2.7253  1.6349 -0.1191
   61MOL   H33137651   5.146   5.756   6.870 -0.5475 -0.3561  0.9119
   61MOL   H33237652   5.100   5.823   7.100  1.4642  1.3741  0.8284
   61MOL   H33337653   5.122   5.657   7.104 -0.2278 -0.3936 -3.3591
   61MOL   H33437654   5.339   5.852   7.163 -1.3115  2.2465  1.0680
   61MOL   H33537655   5.349   5.677   7.184  0.5013  0.7082 -0.3865
   61MOL   H33637656   5.237   5.888   7.368  0.2304 -0.8090  1.0983
   61MOL   H33737657   5.137   5.746   7.362  0.2404 -1.2143 -1.2125
   61MOL   H33837658   5.420   5.789   7.466 -1.6106  0.2286  1.0620
   61MOL   H33937659   5.379   5.633   7.405  2.0025  1.3452  0.1874
   61MOL   H34037660   5.290   5.704   7.541 -0.4396 -0.9437  0.6207
   61MOL   H34137661   5.529   5.608   6.329 -0.7518 -0.3789  0.5638
   61MOL   H34237662   5.633   5.643   6.465 -1.2701 -0.6251  0.7257
   61MOL   C34337663   5.731   5.511   6.327 -0.8137 -0.5172 -0.1944
   61MOL   O34437664   5.805   5.430   6.424  0.1191  0.1720 -0.1845
   61MOL   C34537665   5.877   5.330   6.362  0.5700 -0.2159  0.5297
   61MOL   C34637666   5.974   5.264   6.462  0.4625 -0.3540  0.1891
   61MOL   C34737667   6.074   5.169   6.396  0.1420  0.5648 -0.1409
   61MOL   C34837668   6.149   5.094   6.509  0.1367 -0.1045  0.3280
   61MOL   C34937669   6.253   4.997   6.467 -0.1649  0.7577  0.2084
   61MOL   C35037670   6.374   5.071   6.435 -0.2042 -0.0877  0.7494
   61MOL   C35137671   6.488   4.987   6.376 -0.2483  0.4163  0.7623
   61MOL   C35237672   6.628   5.038   6.408 -0.4352 -0.1277 -0.0727
   61MOL   C35337673   5.827   5.631   6.290  0.6042 -1.0905  0.5648
   61MOL   H35437674   5.711   5.439   6.247 -2.1886 -0.9929  0.5428
   61MOL   H35537675   5.935   5.373   6.281  0.5268  0.1301  0.6821
   61MOL   H35637676   5.814   5.253   6.317  0.9555  0.4737 -1.2307
   61MOL   H35737677   5.927   5.217   6.549  2.8688  0.8183  2.1675
   61MOL   H35837678   6.022   5.349   6.510 -1.5400 -0.2442  2.1066
   61MOL   H35937679   6.030   5.102   6.323 -1.0919  2.6882 -1.3916
   61MOL   H36037680   6.141   5.243   6.351  2.0521 -1.0756 -0.0728
   61MOL   H36137681   6.183   5.174   6.574  0.0378  0.3110 -0.1277
   61MOL   H36237682   6.073   5.042   6.568  1.0375 -2.5799 -0.6219
   61MOL   H36337683   6.280   4.917   6.535  0.8165  0.6094 -0.3361
   61MOL   H36437684   6.210   4.944   6.382 -0.7892  0.3549  0.7746
   61MOL   H36537685   6.410   5.113   6.529 -0.5072 -1.3080  1.4124
   61MOL   H36637686   6.353   5.163   6.380  2.4504  0.8813  1.2547
   61MOL   H36737687   6.489   4.880   6.399  1.2049 -0.0810 -1.4478
   61MOL   H36837688   6.481   4.972   6.268 -0.0221 -1.8264  1.0371
   61MOL   H36937689   6.651   5.044   6.514  1.7260 -1.2009 -0.4579
   61MOL   H37037690   6.637   5.135   6.357  0.9967 -0.6315 -0.7997
   61MOL   H37137691   6.706   4.973   6.369  1.1520  0.6141  1.7985
   61MOL   H37237692   5.846   5.685   6.382  1.2341  1.4406 -1.0234
   61MOL   H37337693   5.927   5.607   6.255  0.5900 -3.2913  1.9294
   61MOL   C37437694   5.770   5.742   6.197  0.1279 -0.0474 -0.4312
   61MOL   O37537695   5.794   5.704   6.065  0.4421  0.5234  0.2936
   61MOL   C37637696   5.718   5.772   5.965 -0.1586 -0.6244  0.6992
   61MOL   C37737697   5.740   5.710   5.825  0.3382  0.1221 -0.5843
   61MOL   C37837698   5.880   5.731   5.773 -0.0544 -0.1227 -0.0357
   61MOL   C37937699   5.876   5.678   5.623 -0.1803 -0.1120  1.0334
   61MOL   C38037700   6.013   5.711   5.552 -0.2341  0.0256  0.5014
   61MOL   C38137701   6.007   5.701   5.398  0.6106  0.2101 -0.1365
   61MOL   C38237702   5.986   5.841   5.338  1.1190  0.4743  0.4357
   61MOL   C38337703   5.869   5.919   5.384  0.7231  0.2224 -0.1568
   61MOL   C38437704   5.844   5.885   6.208  0.3078  0.6266 -0.5678
   61MOL   H38537705   5.661   5.740   6.208  0.1852  1.9213  0.7018
   61MOL   H38637706   5.747   5.876   5.955 -1.6882 -0.2136  0.4375
   61MOL   H38737707   5.612   5.763   5.990 -0.4913 -1.1000 -0.8607
   61MOL   H38837708   5.667   5.756   5.759  0.5638  2.8170  0.9800
   61MOL   H38937709   5.720   5.603   5.821  1.6553 -0.2180  1.2570
   61MOL   H39037710   5.902   5.837   5.782 -0.0388 -0.1762  0.6374
   61MOL   H39137711   5.950   5.671   5.831 -2.0703 -2.1238  0.4305
   61MOL   H39237712   5.860   5.570   5.624  0.7581 -0.2596  0.4658
   61MOL   H39337713   5.796   5.727   5.567  0.6889 -0.7833 -0.8372
   61MOL   H39437714   6.040   5.814   5.575  2.5391 -0.2787 -1.2047
   61MOL   H39537715   6.083   5.643   5.599 -0.4554 -0.0110  0.7776
   61MOL   H39637716   5.928   5.632   5.368  0.8570 -0.7833  1.4209
   61MOL   H39737717   6.100   5.662   5.358  0.3875 -0.0552 -0.3921
   61MOL   H39837718   6.073   5.905   5.356 -0.4333  2.3849  1.4095
   61MOL   H39937719   5.971   5.829   5.231  1.8234 -0.7427  0.4634
   61MOL   H40037720   5.865   6.015   5.333 -1.2770 -0.3441 -1.1212
   61MOL   H40137721   5.876   5.943   5.490  1.6060  1.0048 -0.3839
   61MOL   H40237722   5.767   5.882   5.368 -0.0682  2.2742 -0.0027
   61MOL   H40337723   5.928   5.889   6.138  2.2364  2.8336  1.7832
   61MOL   H40437724   5.771   5.955   6.168 -1.1447 -0.8407 -0.5185
   61MOL   C40537725   5.873   5.943   6.355 -0.2375  0.5680  0.7707
   61MOL   O40637726   5.748   5.931   6.424 -0.0438  0.7016 -0.5260
   61MOL   C40737727   5.753   5.927   6.565 -0.6229 -0.0747 -0.1904
   61MOL   C40837728   5.613   5.954   6.620 -0.3727 -0.4910  0.1329
   61MOL   C40937729   5.544   6.084   6.577  0.0539  0.5506 -0.1361
   61MOL   C41037730   5.399   6.093   6.634  0.0150  0.6813 -0.0725
   61MOL   C41137731   5.402   6.113   6.785  0.1818 -0.1507 -0.5599
   61MOL   C41237732   5.266   6.149   6.850  0.0375  0.6893  0.1495
   61MOL   C41337733   5.299   6.174   7.003 -0.1166 -0.7828 -0.1575
   61MOL   C41437734   5.179   6.153   7.101  0.4080 -0.1009 -0.1730
   61MOL   C41537735   5.929   6.082   6.352  0.3153 -0.6461 -0.4143
   61MOL   H41637736   5.946   5.875   6.399 -0.9839  1.5614  3.6629
   61MOL   H41737737   5.837   5.992   6.591 -0.6919  0.0842 -0.3636
   61MOL   H41837738   5.796   5.828   6.578 -0.1656  0.0518 -0.7167
   61MOL   H41937739   5.611   5.956   6.729  0.9316  0.0888  0.1702
   61MOL   H42037740   5.558   5.867   6.584 -0.6147  0.8885 -3.0117
   61MOL   H42137741   5.610   6.166   6.604  0.6388 -0.4868  1.6680
   61MOL   H42237742   5.554   6.092   6.469  1.5205 -0.5659 -0.1063
   61MOL   H42337743   5.324   6.156   6.587 -1.2659 -1.3325 -0.7764
   61MOL   H42437744   5.349   5.997   6.621  1.4682 -0.3844  1.8511
   61MOL   H42537745   5.440   6.024   6.835 -0.8479 -0.6701 -0.6908
   61MOL   H42637746   5.463   6.201   6.806 -0.4524  0.0769  0.3599
   61MOL   H42737747   5.193   6.068   6.857 -0.8488  1.2322 -2.1637
   61MOL   H42837748   5.214   6.228   6.795 -1.3331 -0.0687  0.3324
   61MOL   H42937749   5.382   6.113   7.039  1.7825  1.4562 -0.6191
   61MOL   H43037750   5.333   6.277   7.008  0.1790 -0.8995  0.2000
   61MOL   H43137751   5.116   6.241   7.089 -2.5636 -2.3362 -1.6623
   61MOL   H43237752   5.200   6.140   7.207 -3.4310 -1.2534  0.5384
   61MOL   H43337753   5.129   6.059   7.078 -0.1465 -0.8634  3.7712
   61MOL   H43437754   5.843   6.142   6.322  0.1234 -0.9420 -0.4563
   61MOL   H43537755   5.944   6.112   6.456  0.5455 -2.0066 -0.0529
   61MOL   C43637756   6.056   6.106   6.257  0.5081 -0.8884  0.0020
   61MOL   O43737757   6.173   6.063   6.323 -0.7310 -0.7572 -0.1024
   61MOL   C43837758   6.249   5.976   6.243  0.0663 -0.7363 -0.4869
   61MOL   C43937759   6.358   5.908   6.324 -0.2596  0.5648  0.0593
   61MOL   C44037760   6.489   5.981   6.341  0.1299 -0.5785  0.2450
   61MOL   C44137761   6.594   5.898   6.414 -0.5719 -0.4563  0.3387
   61MOL   C44237762   6.728   5.993   6.424  0.2516  0.1626  0.3973
   61MOL   C44337763   6.796   6.006   6.292 -0.2773  0.0058  0.6062
   61MOL   C44437764   6.890   6.125   6.279  0.3438  0.4173 -0.3011
   61MOL   C44537765   7.029   6.104   6.337  0.4936  0.0153 -0.3275
   61MOL   C44637766   6.073   6.258   6.236  0.1451  0.2412  0.0547
   61MOL   H44737767   6.036   6.056   6.162 -0.5990 -0.8500  0.2002
   61MOL   H44837768   6.181   5.900   6.205 -0.2012 -1.9366  2.2518
   61MOL   H44937769   6.278   6.030   6.153 -2.1309  0.3506 -0.5627
   61MOL   H45037770   6.389   5.820   6.267 -2.4827  0.1411 -0.5614
   61MOL   H45137771   6.312   5.866   6.414  1.9080  0.6867  1.2463
   61MOL   H45237772   6.533   6.010   6.246  1.0488  0.8404  1.0694
   61MOL   H45337773   6.470   6.069   6.404 -1.3621 -0.6267 -0.1379
   61MOL   H45437774   6.564   5.881   6.517  0.8100 -0.1802  0.7988
   61MOL   H45537775   6.621   5.803   6.367  1.0862  1.3295 -2.4884
   61MOL   H45637776   6.701   6.094   6.455 -1.2115 -0.2663  0.5996
   61MOL   H45737777   6.802   5.960   6.497 -0.1520 -1.1342  0.2489
   61MOL   H45837778   6.737   6.013   6.200  0.3294 -2.8894 -0.0557
   61MOL   H45937779   6.861   5.920   6.272  0.0576  0.4068 -0.0540
   61MOL   H46037780   6.897   6.154   6.174  2.9764  0.2880 -0.1875
   61MOL   H46137781   6.843   6.210   6.329 -2.6237 -1.2735 -0.0960
   61MOL   H46237782   7.019   6.109   6.446  0.9990  1.3237 -0.3398
   61MOL   H46337783   7.095   6.181   6.298 -0.6385  1.6909  1.0052
   61MOL   H46437784   7.078   6.008   6.320  0.8191 -0.1215  1.2712
   61MOL   H46537785   6.082   6.308   6.332  0.6709 -0.6074  0.4548
   61MOL   H46637786   6.174   6.275   6.199  0.8681  0.6512  2.1621
   61MOL   C46737787   5.962   6.319   6.150  0.1428  0.4611 -0.3299
   61MOL   O46837788   5.973   6.256   6.024  0.1756  0.3685  0.2216
   61MOL   C46937789   5.853   6.267   5.937  0.5464  0.5611 -0.3383
   61MOL   C47037790   5.894   6.193   5.810 -0.0408 -0.3432 -0.5859
   61MOL   C47137791   5.798   6.216   5.697  0.0266 -0.0770 -0.2461
   61MOL   C47237792   5.654   6.169   5.722  0.2869  0.7913 -0.4591
   61MOL   C47337793   5.581   6.162   5.581 -0.0704  0.7258  0.6203
   61MOL   C47437794   5.556   6.299   5.514 -0.2407 -0.7030  0.1135
   61MOL   C47537795   5.514   6.297   5.372 -0.3163 -0.3748  0.5529
   61MOL   C47637796   5.498   6.441   5.325  0.2856  0.0349 -0.3191
   61MOL   C47737797   5.977   6.470   6.137 -0.0700  0.0620  0.7391
   61MOL   H47837798   5.861   6.303   6.187  0.6635  1.7344  1.7495
   61MOL   H47937799   5.833   6.374   5.925  2.6720  1.3296  2.4343
   61MOL   H48037800   5.772   6.221   5.993 -0.2673  3.2023  0.7468
   61MOL   H48137801   5.905   6.087   5.833  1.8230  0.0511  0.4440
   61MOL   H48237802   5.991   6.222   5.771 -0.9315  0.9696 -1.8732
   61MOL   H48337803   5.800   6.320   5.663 -0.4800  0.9839  2.7796
   61MOL   H48437804   5.837   6.165   5.610 -3.0471 -2.1106 -0.4960
   61MOL   H48537805   5.652   6.070   5.768  0.3458 -0.0325 -2.1722
   61MOL   H48637806   5.611   6.247   5.784 -0.5430 -0.1442  0.1480
   61MOL   H48737807   5.643   6.098   5.518 -0.4562  0.8626  0.0923
   61MOL   H48837808   5.489   6.104   5.595 -0.9105  1.3574 -2.0005
   61MOL   H48937809   5.640   6.366   5.533 -1.4607  0.4219  1.7433
   61MOL   H49037810   5.482   6.358   5.569  1.3275  1.0450  0.4014
   61MOL   H49137811   5.579   6.235   5.311 -0.1802  0.4601 -0.1621
   61MOL   H49237812   5.419   6.245   5.363  1.6473 -4.4210  2.0475
   61MOL   H49337813   5.589   6.496   5.350  1.0691 -1.8419  1.0420
   61MOL   H49437814   5.414   6.488   5.375 -0.0894  0.8022 -1.6208
   61MOL   H49537815   5.474   6.451   5.219  0.9472  1.1580 -0.3763
   61MOL   H49637816   6.065   6.487   6.074 -0.5825  3.1172  0.7390
   61MOL   H49737817   5.895   6.507   6.075  0.4207 -0.8256 -0.4599
   61MOL   C49837818   5.977   6.561   6.264 -0.7046 -0.2985 -0.3209
   61MOL   O49937819   5.864   6.523   6.344  0.0232  0.0575 -0.1650
   61MOL   C50037820   5.885   6.526   6.486  0.4479 -0.9439 -0.4941
   61MOL   C50137821   5.772   6.461   6.563 -0.1126  0.2165  0.6978
   61MOL   C50237822   5.642   6.537   6.573 -0.2106 -1.1865 -0.1473
   61MOL   C50337823   5.531   6.454   6.631 -0.0925 -0.6562  0.0018
   61MOL   C50437824   5.408   6.547   6.643  0.5846  0.1772 -0.7101
   61MOL   C50537825   5.304   6.481   6.733 -0.4689  0.5365  0.4824
   61MOL   C50637826   5.196   6.582   6.773  0.7537 -0.3375 -0.6454
   61MOL   C50737827   5.071   6.508   6.834  0.3190  0.1590  0.1532
   61MOL   C50837828   5.952   6.714   6.246  0.8414 -0.2543 -0.4708
   61MOL   H50937829   6.069   6.549   6.320 -1.9107  1.1256  2.0641
   61MOL   H51037830   5.902   6.630   6.512  1.6753 -0.2826 -3.8344
   61MOL   H51137831   5.976   6.470   6.508  0.5782 -0.6602 -0.3061
   61MOL   H51237832   5.815   6.449   6.662  1.3825  1.7914  0.2665
   61MOL   H51337833   5.758   6.364   6.514  3.1950  0.7256 -1.4610
   61MOL   H51437834   5.671   6.622   6.635 -0.7538 -1.0215 -0.1126
   61MOL   H51537835   5.610   6.579   6.478  2.2597 -0.1031 -0.5248
   61MOL   H51637836   5.515   6.367   6.567 -2.8984  0.0738 -0.3768
   61MOL   H51737837   5.570   6.418   6.726  0.1357 -0.4307 -0.0044
   61MOL   H51837838   5.435   6.638   6.696  0.3792 -1.0808  1.6191
   61MOL   H51937839   5.372   6.571   6.543  1.6318 -2.6794 -1.8187
   61MOL   H52037840   5.342   6.430   6.821 -0.9517 -0.0192  0.3698
   61MOL   H52137841   5.262   6.393   6.686  2.2779 -0.4976 -0.1471
   61MOL   H52237842   5.235   6.639   6.857 -1.1151 -0.5095  0.3645
   61MOL   H52337843   5.155   6.632   6.685 -0.1564  0.9733  0.5004
   61MOL   H52437844   5.034   6.433   6.764 -1.4326 -0.0272  1.2408
   61MOL   H52537845   4.988   6.574   6.861 -0.3394 -0.9103  0.7758
   61MOL   H52637846   5.106   6.467   6.929  0.2613  0.4686  0.3109
   61MOL   H52737847   5.846   6.734   6.233  0.8227 -1.0777 -1.6789
   61MOL   H52837848   5.966   6.775   6.336 -1.6607  0.4645 -0.5348
   61MOL   C52937849   6.047   6.776   6.148 -0.7242 -0.7877  0.1718
   61MOL   O53037850   6.176   6.759   6.202  0.2053  0.1482 -0.0715
   61MOL   C53137851   6.287   6.712   6.115 -0.1920  0.0767  0.1480
   61MOL   C53237852   6.420   6.752   6.187 -0.5876  0.1967  0.1596
   61MOL   C53337853   6.544   6.738   6.095 -0.3106 -0.2719  0.6381
   61MOL   C53437854   6.674   6.702   6.174 -0.4136  0.2343 -0.0216
   61MOL   C53537855   6.802   6.724   6.088 -0.5029 -0.2753 -0.5929
   61MOL   C53637856   6.937   6.687   6.155 -0.0865 -0.2334 -0.5011
   61MOL   C53737857   6.974   6.768   6.283 -0.0044 -0.7296  0.9960
   61MOL   C53837858   6.935   6.918   6.269 -0.0297  0.3647 -0.3873
   61MOL   C53937859   6.011   6.926   6.120  0.2535  0.4675 -0.1725
   61MOL   H54037860   6.032   6.720   6.056 -1.2351 -1.4146  0.6389
   61MOL   H54137861   6.279   6.604   6.106 -0.3823  0.0149  1.0300
   61MOL   H54237862   6.277   6.760   6.018  2.8507 -1.3316 -0.8959
   61MOL   H54337863   6.444   6.690   6.273  0.6095 -0.7684 -0.8581
   61MOL   H54437864   6.423   6.857   6.216  2.5632 -0.0838  0.9828
   61MOL   H54537865   6.532   6.645   6.039 -0.1932 -0.7601  1.4260
   61MOL   H54637866   6.562   6.823   6.029 -0.4352 -0.0936  0.8325
   61MOL   H54737867   6.683   6.768   6.260 -3.7525  2.9619 -1.6315
   61MOL   H54837868   6.669   6.600   6.209 -1.5155 -0.6226 -2.5654
   61MOL   H54937869   6.807   6.685   5.986 -1.9502  0.4401 -0.9512
   61MOL   H55037870   6.803   6.831   6.067  2.5424 -0.2917 -0.7379
   61MOL   H55137871   7.025   6.704   6.094  0.4141 -1.4532 -0.1231
   61MOL   H55237872   6.940   6.579   6.167 -3.0797 -0.3019  0.1274
   61MOL   H55337873   6.921   6.727   6.369 -0.3384  0.6576  1.4691
   61MOL   H55437874   7.078   6.744   6.307 -0.3474 -1.9765  1.2397
   61MOL   H55537875   6.970   6.975   6.356 -3.1953 -2.5459  2.9509
   61MOL   H55637876   6.826   6.931   6.273  0.0162  0.9180 -0.8412
   61MOL   H55737877   6.969   6.961   6.175  0.7075 -2.2475 -1.3485
   61MOL   H55837878   6.008   6.994   6.205 -2.8500  1.4414 -0.9859
   61MOL   H55937879   6.089   6.963   6.054 -0.6945  0.8816 -1.0725
   61MOL   C56037880   5.877   6.954   6.058 -0.7128 -0.5595 -0.7526
   61MOL   O56137881   5.884   6.887   5.934 -0.7999  0.6227  0.8666
   61MOL   C56237882   5.764   6.810   5.893  0.1445  0.6292  0.5746
   61MOL   C56337883   5.790   6.744   5.760 -0.1645 -0.1517  0.5492
   61MOL   C56437884   5.911   6.651   5.755 -0.3887 -0.3200  0.9425
   61MOL   C56537885   5.940   6.603   5.616  0.1653  0.0188  0.7508
   61MOL   C56637886   6.067   6.513   5.609 -0.1519 -0.0564  0.1547
   61MOL   C56737887   6.116   6.488   5.465 -0.0139 -0.4817  0.2482
   61MOL   C56837888   6.045   6.368   5.403  0.4265  0.3282 -0.2269
   61MOL   C56937889   6.113   6.312   5.272  0.3197 -0.1015 -0.1701
   61MOL   C57037890   5.846   7.105   6.030  0.6878  0.0739 -0.0707
   61MOL   H57137891   5.799   6.905   6.115 -1.0043 -2.2364 -2.5333
   61MOL   H57237892   5.677   6.876   5.882 -1.0623 -0.6347  2.1870
   61MOL   H57337893   5.737   6.731   5.963 -0.9716  0.4477 -0.0502
   61MOL   H57437894   5.801   6.822   5.684  2.6454  0.8016  1.8790
   61MOL   H57537895   5.700   6.688   5.735 -0.0996 -0.7795  1.7118
   61MOL   H57637896   5.989   6.723   5.778 -1.4221  1.7013 -1.5500
   61MOL   H57737897   5.903   6.577   5.834  1.5717 -0.7258  0.7675
   61MOL   H57837898   5.846   6.565   5.575 -0.4026  4.0715 -1.9440
   61MOL   H57937899   5.949   6.686   5.547 -0.1667 -0.5636 -0.0001
   61MOL   H58037900   6.143   6.569   5.664 -0.6385  1.5571 -0.7972
   61MOL   H58137901   6.051   6.420   5.664 -2.6123  0.4513  0.3408
   61MOL   H58237902   6.220   6.455   5.471  0.4873  1.3261  2.3199
   61MOL   H58337903   6.129   6.578   5.404 -0.1452 -0.8702 -0.3533
   61MOL   H58437904   6.035   6.291   5.479  2.3005  0.1745 -0.1220
   61MOL   H58537905   5.944   6.401   5.379 -0.3259 -0.1587  2.1986
   61MOL   H58637906   6.106   6.204   5.274 -0.6180 -0.0360  0.5042
   61MOL   H58737907   6.218   6.342   5.271  0.0155  1.0557  0.3929
   61MOL   H58837908   6.068   6.336   5.176  2.7962 -0.7682 -1.5525
   61MOL   H58937909   5.924   7.166   6.077 -0.6176  1.0893  0.8032
   61MOL   H59037910   5.855   7.117   5.922 -0.6613 -1.3754 -0.3572
   61MOL   C59137911   5.710   7.163   6.079 -0.3738  0.1465  0.5225
   61MOL   O59237912   5.696   7.297   6.035  0.1053 -0.0191 -0.7194
   61MOL   C59337913   5.570   7.366   6.041  0.1795  0.1958 -0.3044
   61MOL   C59437914   5.568   7.449   5.912 -0.6416 -0.5150 -0.3931
   61MOL   C59537915   5.458   7.562   5.904  0.0137  0.3806 -0.2192
   61MOL   C59637916   5.442   7.622   5.763  0.1852  0.4798  0.2598
   61MOL   C59737917   5.312   7.705   5.744  0.1850  0.3139  0.1105
   61MOL   C59837918   5.313   7.769   5.602  0.5465 -0.5623  0.2227
   61MOL   C59937919   5.201   0.100   5.570  0.2866  0.6138  0.0577
   61MOL   C60037920   5.242   0.178   5.438  1.0370  0.0480 -0.5491
   61MOL   C60137921   5.674   7.142   6.226 -0.2771 -0.4711  0.0847
   61MOL   H60237922   5.634   7.101   6.032 -2.2528  0.9674  2.4021
   61MOL   H60337923   5.551   7.432   6.125  1.6992  1.1538 -0.6922
   61MOL   H60437924   5.489   7.293   6.043  1.8182 -1.7075 -1.1403
   61MOL   H60537925   5.556   7.382   5.827  3.3069 -1.2277 -0.4798
   61MOL   H60637926   5.665   7.497   5.909 -0.8825 -0.1424 -3.0905
   61MOL   H60737927   5.367   7.508   5.930  0.1721 -0.1205 -0.6944
   61MOL   H60837928   5.469   7.643   5.976  1.2118  1.3745 -1.4952
   61MOL   H60937929   5.536   7.671   5.735  1.0529 -0.6099  1.2496
   61MOL   H61037930   5.443   7.552   5.680 -3.2792 -1.1593  1.5556
   61MOL   H61137931   5.224   7.640   5.749 -0.0075  0.3492 -2.1620
   61MOL   H61237932   5.315   7.773   5.829  2.4226 -2.4094  2.3099
   61MOL   H61337933   5.289   7.693   5.527 -2.5950 -0.4453  1.0237
   61MOL   H61437934   5.405   0.049   5.578  2.2113 -3.2747  0.2350
   61MOL   H61537935   5.102   0.059   5.546  1.3098 -0.2419 -2.9928
   61MOL   H61637936   5.197   0.160   5.661 -1.2951  2.2401 -1.0314
   61MOL   H61737937   5.222   0.111   5.355  0.8148  1.1608 -1.4072
   61MOL   H61837938   5.340   0.226   5.444  0.1695  1.8204 -0.0360
   61MOL   H61937939   5.167   0.255   5.421 -0.4302 -1.3719 -0.6132
   61MOL   H62037940   5.685   7.232   6.286  0.0058  0.0065 -0.6761
   61MOL   H62137941   5.568   7.126   6.243 -0.3156 -2.3245 -1.6232
   61MOL   H62237942   5.726   7.054   6.264 -0.5229 -0.5172  0.3116
   62MOL     C137943   3.174   5.179   0.878  0.1565 -0.5890 -0.2832
   62MOL     O237944   3.301   5.237   0.856 -0.2535  0.6309  0.9419
   62MOL     C337945   3.381   5.146   0.770  0.8195 -0.6043 -0.4691
   62MOL     C437946   3.442   5.239   0.659 -0.3413  0.5224  0.0123
   62MOL     C537947   3.336   5.295   0.559  0.8526  0.2885 -0.2600
   62MOL     C637948   3.404   5.366   0.444  0.3395 -0.1021  0.0658
   62MOL     C737949   3.312   5.419   0.329 -0.1789 -0.0470 -0.4742
   62MOL     C837950   3.254   5.315   0.235  0.8561  0.2714  0.1761
   62MOL     C937951   3.139   5.366   0.142 -0.6604  0.2004  0.2464
   62MOL    C1037952   3.041   5.252   0.102  0.3935  0.0974 -0.0295
   62MOL    C1137953   3.085   5.283   0.947  0.1334 -0.2425 -0.4093
   62MOL    H1237954   3.130   5.144   0.784 -0.5525 -1.0383  0.2149
   62MOL    H1337955   3.324   5.062   0.733  0.3266 -0.9824  1.1084
   62MOL    H1437956   3.462   5.111   0.835  2.3288 -0.0740 -2.0283
   62MOL    H1537957   3.520   5.182   0.608 -0.9612 -0.2424 -0.0892
   62MOL    H1637958   3.498   5.322   0.703 -1.5326  0.3040  1.9805
   62MOL    H1737959   3.279   5.210   0.521 -1.5403  0.5466  2.5715
   62MOL    H1837960   3.262   5.353   0.614  0.8884 -0.6905  0.8427
   62MOL    H1937961   3.448   5.455   0.488 -1.9925  0.9109  0.4391
   62MOL    H2037962   3.480   5.307   0.393 -1.0124 -1.4841 -0.3921
   62MOL    H2137963   3.226   5.473   0.370 -0.5862 -1.7019  0.8784
   62MOL    H2237964   3.365   5.495   0.270 -0.2633  2.0097  2.0063
   62MOL    H2337965   3.201   5.246   0.300 -0.4657  0.6639 -0.4690
   62MOL    H2437966   3.335   5.265   0.183  1.0315  1.3656 -0.6247
   62MOL    H2537967   3.079   5.440   0.196 -0.3444  0.4201  0.3046
   62MOL    H2637968   3.178   5.402   0.047  1.4216 -1.0153  0.5974
   62MOL    H2737969   3.084   5.181   0.031 -0.5925 -1.0495  0.5022
   62MOL    H2837970   2.962   5.303   0.049  0.1097 -0.3186 -0.0116
   62MOL    H2937971   3.014   5.184   0.183  1.0875  1.1394  1.0902
   62MOL    H3037972   3.155   5.333   1.014  1.2922 -1.6939 -0.5051
   62MOL    H3137973   3.037   5.353   0.880  1.2508 -0.2835 -1.2662
   62MOL    H3237974   3.188   5.099   0.951 -2.4616  1.1911  2.2860
   62MOL    C3337975   2.978   5.210   1.023 -0.0746  0.4165  0.0170
   62MOL    O3437976   2.890   5.145   0.934 -0.0796  0.5718 -0.0464
   62MOL    C3537977   2.838   5.018   0.970 -0.0681 -0.9373  0.6631
   62MOL    C3637978   2.948   4.907   0.960 -0.2094 -0.4143  0.5030
   62MOL    C3737979   2.984   4.866   0.816 -0.3445 -0.6686  0.4289
   62MOL    C3837980   3.108   4.779   0.806 -0.2752  0.0266 -0.4279
   62MOL    C3937981   3.135   4.744   0.662  0.5464 -0.4742  0.6416
   62MOL    C4037982   3.231   4.843   0.595 -0.4304 -0.1668 -0.6061
   62MOL    C4137983   3.287   4.791   0.462 -0.1015  0.2044  0.4298
   62MOL    C4237984   3.356   4.904   0.393 -0.9380 -0.1446 -0.9506
   62MOL    C4337985   2.885   5.306   1.090  0.1714 -0.2673 -0.4499
   62MOL    H4437986   3.014   5.128   1.086 -0.3935  0.5944  0.4358
   62MOL    H4537987   2.763   5.002   0.892 -0.7328  0.2762  1.0369
   62MOL    H4637988   2.791   5.014   1.068  0.9403  0.3786  1.2186
   62MOL    H4737989   2.902   4.820   1.007  0.1074 -1.8105 -1.7033
   62MOL    H4837990   3.032   4.929   1.026  1.3824 -1.4730 -1.1039
   62MOL    H4937991   2.897   4.814   0.776 -1.3451  0.7191  0.7912
   62MOL    H5037992   2.993   4.953   0.750  0.8743 -2.6522 -2.1428
   62MOL    H5137993   3.195   4.825   0.853  0.1757  0.6067 -1.8128
   62MOL    H5237994   3.101   4.691   0.869  0.8484  1.2750  1.5049
   62MOL    H5337995   3.184   4.646   0.666  1.1908 -0.1630  0.4630
   62MOL    H5437996   3.044   4.739   0.603  0.9231 -1.0582  0.0879
   62MOL    H5537997   3.316   4.860   0.663 -1.6311  0.3496  0.7967
   62MOL    H5637998   3.176   4.935   0.578 -2.5543 -1.2783  0.1363
   62MOL    H5737999   3.349   4.703   0.477 -0.8022  0.0574  2.7446
   62MOL    H5838000   3.203   4.749   0.407  0.7688  0.2213 -0.9150
   62MOL    H5938001   3.293   4.991   0.374 -0.9739 -0.6070 -3.0788
   62MOL    H6038002   3.390   4.874   0.294  0.1673  1.5442 -1.0958
   62MOL    H6138003   3.448   4.925   0.447 -0.9209  0.3344 -1.1601
   62MOL    H6238004   2.852   5.370   1.008 -0.1327 -2.4548 -2.0946
   62MOL    H6338005   2.797   5.267   1.140  0.3976  2.0924  1.8928
   62MOL    C6438006   2.958   5.392   1.195 -0.0095 -0.2360 -0.1764
   62MOL    O6538007   2.985   5.305   1.311 -0.7532  0.1647  0.3568
   62MOL    C6638008   3.123   5.279   1.341  0.0002 -0.0195 -0.1254
   62MOL    C6738009   3.131   5.163   1.441  0.6249 -0.4108 -0.3015
   62MOL    C6838010   3.090   5.194   1.582 -0.3765 -0.0888 -0.4091
   62MOL    C6938011   3.105   5.077   1.683  0.2014 -0.3247 -0.4443
   62MOL    C7038012   3.044   5.102   1.823 -0.2077 -0.2397  0.1055
   62MOL    C7138013   3.053   4.980   1.917 -0.2715 -0.0486  1.0944
   62MOL    C7238014   3.196   4.934   1.949  0.4658  0.1357  0.2999
   62MOL    C7338015   3.212   4.813   2.039  0.0133  0.3759 -0.0932
   62MOL    C7438016   2.866   5.505   1.248  0.0103 -0.0529  0.2920
   62MOL    H7538017   3.045   5.440   1.152  1.9590 -0.9193  2.8867
   62MOL    H7638018   3.180   5.363   1.380 -0.0897 -0.2067  0.4164
   62MOL    H7738019   3.170   5.243   1.250  0.9649  0.4800  0.1761
   62MOL    H7838020   3.218   5.098   1.449 -0.3775 -1.4405  3.1247
   62MOL    H7938021   3.045   5.107   1.407 -0.9021  2.0891 -0.6852
   62MOL    H8038022   3.138   5.287   1.612  1.8929 -1.5513  0.5708
   62MOL    H8138023   2.983   5.214   1.577 -0.2201  1.0061  0.3655
   62MOL    H8238024   3.056   4.995   1.629  1.0309 -1.6637  0.7859
   62MOL    H8338025   3.212   5.062   1.698  0.3361  1.5527  0.5504
   62MOL    H8438026   3.092   5.181   1.880 -2.2384  0.5650  0.7298
   62MOL    H8538027   2.937   5.120   1.819  0.2407  2.9207  0.6864
   62MOL    H8638028   3.000   4.894   1.877  0.0172 -0.1104  0.8353
   62MOL    H8738029   3.012   5.004   2.014 -1.6668  1.2198  0.2117
   62MOL    H8838030   3.237   4.913   1.850  1.9011  0.5539  0.7880
   62MOL    H8938031   3.259   5.014   1.988  0.5781 -0.1345  0.6773
   62MOL    H9038032   3.156   4.727   2.000  1.1333  0.1305 -1.1706
   62MOL    H9138033   3.177   4.826   2.141  0.2368 -0.5162  0.1002
   62MOL    H9238034   3.317   4.786   2.049  0.1067 -0.0680 -1.9839
   62MOL    H9338035   2.825   5.550   1.158 -0.9510  0.1250  0.8111
   62MOL    H9438036   2.779   5.455   1.291 -1.6492  1.2782 -1.4357
   62MOL    C9538037   2.941   5.598   1.352 -0.1245 -0.6005  0.2212
   62MOL    O9638038   2.856   5.691   1.418 -0.2538 -0.6155  0.0118
   62MOL    C9738039   2.786   5.630   1.528 -0.4251 -0.0114  0.2617
   62MOL    C9838040   2.769   5.746   1.635  0.2052  0.3413  0.4610
   62MOL    C9938041   2.901   5.793   1.705  0.0298  0.5901 -0.9008
   62MOL   C10038042   2.958   5.692   1.800 -0.2582  0.6077 -0.0377
   62MOL   C10138043   3.089   5.724   1.883  0.0927 -0.7356 -0.3163
   62MOL   C10238044   3.106   5.603   1.986 -0.6709 -1.1863  0.3060
   62MOL   C10338045   3.245   5.594   2.040 -0.1023  0.4984  0.1884
   62MOL   C10438046   3.270   5.494   2.156 -0.1009 -0.5140 -0.6564
   62MOL   C10538047   3.068   5.669   1.298  0.2298 -0.0494  0.7163
   62MOL   H10638048   2.972   5.525   1.427  0.9744  1.3907  1.7576
   62MOL   H10738049   2.829   5.544   1.579  0.1975  0.8754  1.2511
   62MOL   H10838050   2.692   5.608   1.477 -0.1212  5.4540 -3.0138
   62MOL   H10938051   2.699   5.726   1.715  2.5156  0.8455  2.6859
   62MOL   H11038052   2.731   5.829   1.575 -0.3301 -0.9437 -0.9993
   62MOL   H11138053   2.974   5.817   1.628 -0.3812  1.6840 -0.9552
   62MOL   H11238054   2.880   5.880   1.766  2.8571  1.6167 -1.3501
   62MOL   H11338055   2.881   5.661   1.871 -1.1249  0.9326 -0.8277
   62MOL   H11438056   2.965   5.595   1.751 -0.3403  0.5488  0.0671
   62MOL   H11538057   3.164   5.732   1.804  0.7146 -1.5629  0.1812
   62MOL   H11638058   3.076   5.821   1.930 -1.5420 -0.2539 -1.7517
   62MOL   H11738059   3.087   5.504   1.943 -0.6027 -0.4322 -1.5301
   62MOL   H11838060   3.034   5.612   2.068 -1.2504 -2.0241 -0.0939
   62MOL   H11938061   3.316   5.568   1.962 -2.5827 -1.9594 -1.3601
   62MOL   H12038062   3.295   5.681   2.082  2.5264 -0.2440 -1.3178
   62MOL   H12138063   3.366   5.510   2.206 -0.3185  0.3425 -0.5179
   62MOL   H12238064   3.250   5.387   2.147  0.8833 -0.8620  1.0385
   62MOL   H12338065   3.201   5.510   2.239  0.0943 -1.6339 -0.2628
   62MOL   H12438066   3.151   5.603   1.274  0.6901  1.0749 -0.8364
   62MOL   H12538067   3.039   5.700   1.198  0.1451  0.3334  0.8544
   62MOL   C12638068   3.115   5.789   1.380  0.1238 -0.3986  0.1573
   62MOL   O12738069   3.194   5.887   1.312  0.4075  0.0334  0.2416
   62MOL   C12838070   3.136   5.952   1.203 -0.3649 -0.3231  0.5987
   62MOL   C12938071   3.227   6.065   1.163 -0.9772 -0.5427  0.1211
   62MOL   C13038072   3.372   6.029   1.126  0.1666  0.7529  0.4324
   62MOL   C13138073   3.483   6.132   1.105  0.9528 -0.2331 -0.6677
   62MOL   C13238074   3.623   6.065   1.087  0.6127 -0.0141 -0.1861
   62MOL   C13338075   3.747   6.155   1.083  0.0076  0.4358  0.3253
   62MOL   C13438076   3.876   6.084   1.029 -0.0128  0.0678  0.4235
   62MOL   C13538077   3.998   6.176   1.037  0.2290 -0.1841 -0.5474
   62MOL   C13638078   3.199   5.727   1.500 -0.2495  0.4212  0.4790
   62MOL   H13738079   3.039   5.857   1.418  2.5222  1.1454  2.3967
   62MOL   H13838080   3.035   5.993   1.209 -0.2332  0.2888 -0.9576
   62MOL   H13938081   3.125   5.885   1.118 -1.4020 -0.1727  0.6109
   62MOL   H14038082   3.221   6.130   1.251 -2.4241  0.3163 -0.5898
   62MOL   H14138083   3.191   6.115   1.074  0.7908 -0.3442 -0.4991
   62MOL   H14238084   3.405   5.953   1.197  2.8749  1.6508  0.2010
   62MOL   H14338085   3.364   5.976   1.030  0.1789  1.7830 -0.1431
   62MOL   H14438086   3.449   6.198   1.025 -0.6055  1.4275  1.3012
   62MOL   H14538087   3.489   6.200   1.190 -2.5082 -0.5201 -0.1655
   62MOL   H14638088   3.640   5.984   1.158  1.3009  0.3110  0.0284
   62MOL   H14738089   3.614   6.008   0.995  0.5393  0.1353 -0.2709
   62MOL   H14838090   3.769   6.208   1.176  1.6511  2.3480 -1.0855
   62MOL   H14938091   3.716   6.241   1.023 -0.1634 -0.9666 -1.6419
   62MOL   H15038092   3.888   5.984   1.070  0.0614  0.3151  0.9994
   62MOL   H15138093   3.859   6.059   0.924  1.8241  0.9522 -0.1017
   62MOL   H15238094   4.085   6.110   1.031  0.0346 -0.5418  0.3613
   62MOL   H15338095   4.015   6.208   1.140  1.9387  0.3583 -0.9923
   62MOL   H15438096   4.011   6.242   0.952  2.8725 -1.5350 -1.2466
   62MOL   H15538097   3.188   5.801   1.580 -1.6900  0.3558  0.3486
   62MOL   H15638098   3.146   5.644   1.546  0.1727 -0.2601 -0.2548
   62MOL   C15738099   3.348   5.694   1.473 -0.3222  0.0366 -0.2007
   62MOL   O15838100   3.361   5.578   1.393  0.0360  0.0351 -0.6170
   62MOL   C15938101   3.431   5.596   1.275 -0.4317 -0.5990  0.1511
   62MOL   C16038102   3.416   5.461   1.186  0.3451 -0.4227  0.0108
   62MOL   C16138103   3.453   5.488   1.040  0.2137 -0.3308 -0.0211
   62MOL   C16238104   3.356   5.573   0.958  0.1060 -0.6214  0.2811
   62MOL   C16338105   3.410   5.609   0.818 -0.4239  0.0436  0.2996
   62MOL   C16438106   3.362   5.726   0.730  0.7377  0.0397  0.3078
   62MOL   C16538107   3.251   5.679   0.635  0.0982  0.1040 -0.5799
   62MOL   C16638108   3.240   5.771   0.509 -0.1996 -0.0566  0.1621
   62MOL   C16738109   3.424   5.678   1.606 -0.0509  0.5150 -0.2519
   62MOL   H16838110   3.392   5.783   1.429  0.3255 -0.3465 -0.3362
   62MOL   H16938111   3.534   5.613   1.304 -0.6681  2.4060 -0.6212
   62MOL   H17038112   3.393   5.686   1.227 -1.9879 -1.1166  0.3560
   62MOL   H17138113   3.313   5.427   1.185 -0.6855  2.5009  0.8064
   62MOL   H17238114   3.467   5.374   1.227  1.7784 -0.3823 -1.6395
   62MOL   H17338115   3.555   5.525   1.030  0.1186 -0.0608  0.0200
   62MOL   H17438116   3.452   5.388   0.997 -0.6554  0.2762 -1.4714
   62MOL   H17538117   3.258   5.528   0.947 -0.9589  1.7966 -0.5529
   62MOL   H17638118   3.340   5.669   1.008 -1.2646  0.0308 -1.3486
   62MOL   H17738119   3.518   5.622   0.833 -0.6388  1.1941  0.8845
   62MOL   H17838120   3.401   5.511   0.771 -1.6801 -0.2579  1.1560
   62MOL   H17938121   3.444   5.741   0.660  2.7074  0.0364  2.5452
   62MOL   H18038122   3.343   5.815   0.789 -3.2883 -0.3122 -0.3290
   62MOL   H18138123   3.269   5.577   0.601  0.5864 -0.2565  0.7174
   62MOL   H18238124   3.158   5.669   0.691  0.4097 -2.4797 -0.4469
   62MOL   H18338125   3.143   5.755   0.463 -0.3549  1.5160 -0.0826
   62MOL   H18438126   3.326   5.742   0.448  0.6506  1.6691  0.5004
   62MOL   H18538127   3.245   5.876   0.536  0.2980  0.2771 -1.1720
   62MOL   H18638128   3.368   5.613   1.673  1.0925  0.8320  1.0462
   62MOL   H18738129   3.515   5.619   1.598 -1.1261 -1.5878  2.1813
   62MOL   C18838130   3.462   5.805   1.688  0.8730  0.2073  0.2934
   62MOL   O18938131   3.536   5.897   1.614 -0.2856 -0.0590 -0.5621
   62MOL   C19038132   3.476   6.018   1.591 -0.1185  0.1005 -0.0522
   62MOL   C19138133   3.552   6.093   1.484  0.3699 -0.2615 -0.1085
   62MOL   C19238134   3.698   6.130   1.530  0.2045 -0.7755 -0.2896
   62MOL   C19338135   3.693   6.246   1.635  0.3773  0.0944 -0.2286
   62MOL   C19438136   3.836   6.281   1.668 -0.0165  1.2316 -0.1054
   62MOL   C19538137   3.853   6.386   1.784  0.2267 -0.4877 -0.6036
   62MOL   C19638138   3.988   6.382   1.857  0.3731  0.3391  0.5058
   62MOL   C19738139   4.002   6.475   1.976  0.2262  0.2969 -0.6001
   62MOL   C19838140   3.556   5.775   1.814  0.8615  0.8126 -0.3059
   62MOL   H19938141   3.375   5.853   1.733  1.7561  0.5895  1.6131
   62MOL   H20038142   3.373   5.997   1.560 -0.4560  1.0489  0.3970
   62MOL   H20138143   3.473   6.081   1.679  0.2607  0.9471 -0.6432
   62MOL   H20238144   3.498   6.186   1.463  1.8045  0.7097  0.4559
   62MOL   H20338145   3.549   6.033   1.393  1.0016  1.2793 -1.1604
   62MOL   H20438146   3.737   6.033   1.558 -1.9515 -1.7070 -0.4331
   62MOL   H20538147   3.755   6.154   1.440  2.0452 -1.9733  0.5447
   62MOL   H20638148   3.631   6.329   1.601  1.3260  0.5011 -0.9531
   62MOL   H20738149   3.642   6.210   1.725 -3.2736  2.2231 -1.3402
   62MOL   H20838150   3.895   6.192   1.689  0.5677  2.0772  1.9999
   62MOL   H20938151   3.880   6.324   1.578  1.2160  0.3106  0.0422
   62MOL   H21038152   3.773   6.361   1.855  1.6262 -0.3493  1.0714
   62MOL   H21138153   3.830   6.485   1.744  0.8259  0.2679  0.8589
   62MOL   H21238154   4.027   6.282   1.878  2.0891  0.3247 -2.3838
   62MOL   H21338155   4.059   6.409   1.778 -0.5501 -1.0986 -0.8669
   62MOL   H21438156   4.102   6.465   2.016  0.7575  1.5097 -1.5963
   62MOL   H21538157   3.922   6.470   2.049 -0.9206  0.1355 -1.8318
   62MOL   H21638158   3.991   6.577   1.940 -0.4622  0.4352 -0.0126
   62MOL   H21738159   3.521   5.685   1.864 -2.8545  2.4638  0.2890
   62MOL   H21838160   3.651   5.739   1.775 -0.9162 -2.4794 -1.7663
   62MOL   C21938161   3.576   5.894   1.910 -0.3806 -0.1610  0.0439
   62MOL   O22038162   3.688   5.871   1.994 -0.6524 -0.0044  0.0631
   62MOL   C22138163   3.814   5.916   1.952 -0.5942 -0.2113 -0.6768
   62MOL   C22238164   3.923   5.854   2.046  0.1201 -0.2986  0.0831
   62MOL   C22338165   4.057   5.922   2.020 -0.4478 -0.5250 -0.1228
   62MOL   C22438166   4.124   5.872   1.889 -0.4714 -0.3103  0.1010
   62MOL   C22538167   4.187   5.732   1.907 -0.1307  0.5400 -0.0902
   62MOL   C22638168   4.206   5.665   1.768  0.4547 -0.3713  0.1724
   62MOL   C22738169   4.291   5.543   1.763 -0.6319  0.3844 -0.7010
   62MOL   C22838170   4.209   5.418   1.776 -0.1860 -0.1380 -0.3729
   62MOL   C22938171   3.450   5.926   1.996 -0.6698 -0.2002 -0.4050
   62MOL   H23038172   3.600   5.981   1.848 -0.1297 -0.1132  0.2045
   62MOL   H23138173   3.804   6.024   1.960 -0.0536 -0.0797 -1.6313
   62MOL   H23238174   3.827   5.888   1.847 -0.1436 -1.4790 -0.2984
   62MOL   H23338175   3.926   5.746   2.028  0.3398 -0.1186 -0.9898
   62MOL   H23438176   3.880   5.874   2.143  0.7670  1.6377 -0.0134
   62MOL   H23538177   4.047   6.031   2.028  1.5708 -0.2529 -1.0134
   62MOL   H23638178   4.122   5.909   2.106  1.0932  1.0359 -1.0258
   62MOL   H23738179   4.057   5.865   1.804 -0.3139  1.5283 -0.1947
   62MOL   H23838180   4.213   5.930   1.865 -2.2273  2.7385  0.7577
   62MOL   H23938181   4.281   5.735   1.963 -1.3268  1.5592  1.9144
   62MOL   H24038182   4.128   5.664   1.968  3.2117  0.2296  2.9927
   62MOL   H24138183   4.257   5.731   1.697  0.9171 -0.6124  0.2784
   62MOL   H24238184   4.106   5.643   1.730  0.8833 -0.5463 -0.8767
   62MOL   H24338185   4.337   5.543   1.664 -0.8768 -0.3180 -0.8142
   62MOL   H24438186   4.365   5.547   1.844 -0.6299 -1.8240 -0.5691
   62MOL   H24538187   4.170   5.409   1.878  0.8378  0.5656  0.0979
   62MOL   H24638188   4.279   5.336   1.759  0.7295  0.9706 -2.0335
   62MOL   H24738189   4.129   5.411   1.703 -0.9397  2.1925  0.1864
   62MOL   H24838190   3.362   5.917   1.932 -0.1388 -1.0837 -1.0285
   62MOL   H24938191   3.436   5.848   2.071  0.6856  0.9937  1.1034
   62MOL   C25038192   3.436   6.061   2.067  0.5495  0.4970 -0.3122
   62MOL   O25138193   3.313   6.070   2.125 -0.2427  0.0999 -0.0797
   62MOL   C25238194   3.305   6.007   2.254  0.0965  0.0295 -0.2361
   62MOL   C25338195   3.155   6.002   2.298  0.1027 -0.0383 -0.4413
   62MOL   C25438196   3.070   5.907   2.222 -0.3303 -0.1425  0.4185
   62MOL   C25538197   2.921   5.940   2.219 -0.5225  0.0588  0.8522
   62MOL   C25638198   2.846   5.845   2.131 -0.2534  0.3868  0.0162
   62MOL   C25738199   2.689   5.846   2.153 -0.3432 -0.3224  0.0962
   62MOL   C25838200   2.628   5.743   2.072 -0.5086  0.7119 -0.5416
   62MOL   C25938201   2.485   5.770   2.029  0.3474 -0.4872  0.1416
   62MOL   C26038202   3.462   6.183   1.972 -0.1077 -0.0215  0.3846
   62MOL   H26138203   3.508   6.069   2.149  1.5639 -1.2895 -0.9950
   62MOL   H26238204   3.358   6.067   2.328 -0.2005  1.6012 -1.2579
   62MOL   H26338205   3.353   5.910   2.263 -1.8311 -0.9232  0.1763
   62MOL   H26438206   3.121   6.105   2.305  2.1475  0.7729 -2.2584
   62MOL   H26538207   3.154   5.964   2.400  0.8266 -0.2061 -0.4928
   62MOL   H26638208   3.111   5.917   2.122 -1.6114 -0.2735 -0.1391
   62MOL   H26738209   3.088   5.805   2.256  1.0934  0.3361  1.1525
   62MOL   H26838210   2.883   5.943   2.321 -1.4720  1.1198  0.4663
   62MOL   H26938211   2.897   6.041   2.188  3.5016  0.9701  0.4439
   62MOL   H27038212   2.880   5.853   2.028 -1.8649 -1.5215 -0.6969
   62MOL   H27138213   2.873   5.746   2.169  1.0494  0.5740 -0.4147
   62MOL   H27238214   2.652   5.946   2.129 -2.4944 -1.5678 -1.9104
   62MOL   H27338215   2.671   5.840   2.260  0.2066  1.5157  0.3217
   62MOL   H27438216   2.678   5.721   1.977 -1.1847  0.6055 -0.8754
   62MOL   H27538217   2.638   5.650   2.128  0.6438  1.3972  0.4074
   62MOL   H27638218   2.413   5.798   2.106 -1.2870  1.7672 -2.1327
   62MOL   H27738219   2.443   5.688   1.973  0.0245 -0.6974  0.6838
   62MOL   H27838220   2.479   5.857   1.963 -1.1218 -1.0542 -0.4723
   62MOL   H27938221   3.562   6.177   1.930  0.6424  2.2325  1.7511
   62MOL   H28038222   3.390   6.176   1.890  2.7090 -1.3288 -2.0824
   62MOL   C28138223   3.445   6.323   2.037 -0.7091  0.4269  0.4067
   62MOL   O28238224   3.449   6.423   1.936  0.2003 -0.0160 -0.1806
   62MOL   C28338225   3.323   6.458   1.881  0.1773 -0.2805 -0.0417
   62MOL   C28438226   3.333   6.559   1.764  0.9184  0.1670 -0.1634
   62MOL   C28538227   3.383   6.485   1.638 -0.3904 -0.5712 -0.6655
   62MOL   C28638228   3.276   6.443   1.532 -0.3861 -0.4856  0.3653
   62MOL   C28738229   3.190   6.326   1.585  0.0045 -0.3811  0.3022
   62MOL   C28838230   3.086   6.279   1.481 -0.7907  0.5104  0.4242
   62MOL   C28938231   3.019   6.147   1.506  0.3748  0.3486  0.3708
   62MOL   C29038232   2.936   6.141   1.636 -0.6019  0.1473  0.2861
   62MOL   C29138233   3.563   6.355   2.133  0.5288 -0.2050  0.4501
   62MOL   H29238234   3.350   6.329   2.091 -1.5749  0.9082 -1.1616
   62MOL   H29338235   3.280   6.489   1.976  0.7339  1.6265 -0.3992
   62MOL   H29438236   3.270   6.372   1.839 -1.0934 -0.8757  2.7190
   62MOL   H29538237   3.400   6.638   1.795  1.9338 -0.9094  0.4157
   62MOL   H29638238   3.230   6.596   1.760  0.5653 -0.6282  1.0764
   62MOL   H29738239   3.444   6.553   1.580  1.9238 -2.4899 -0.5546
   62MOL   H29838240   3.440   6.397   1.669 -1.8041 -1.1794  0.2881
   62MOL   H29938241   3.206   6.520   1.499  0.0507 -0.7491 -1.2400
   62MOL   H30038242   3.331   6.401   1.448  0.9589  0.4269  0.7810
   62MOL   H30138243   3.250   6.239   1.610 -0.7769 -0.9498  0.1823
   62MOL   H30238244   3.135   6.368   1.669 -0.8855  0.0500 -0.4874
   62MOL   H30338245   3.150   6.270   1.393 -0.4772  2.8479  0.3637
   62MOL   H30438246   3.012   6.355   1.454  0.7790  1.2597 -2.0022
   62MOL   H30538247   2.950   6.122   1.426  1.5254  0.8564 -0.7880
   62MOL   H30638248   3.092   6.067   1.501 -0.3000 -0.1150 -2.7565
   62MOL   H30738249   2.880   6.049   1.624 -2.6466  1.4674 -0.5439
   62MOL   H30838250   2.873   6.229   1.648 -0.5954  0.3800 -1.2400
   62MOL   H30938251   3.005   6.122   1.718  0.9278  0.3216 -0.9171
   62MOL   H31038252   3.561   6.279   2.210 -4.2535 -1.0142 -0.3529
   62MOL   H31138253   3.661   6.349   2.084  0.2181 -1.8698  0.0234
   62MOL   C31238254   3.548   6.488   2.206  0.4563 -0.0169  0.2478
   62MOL   O31338255   3.679   6.493   2.277 -0.2121 -0.0463  0.2113
   62MOL   C31438256   3.720   6.628   2.304 -0.2298  0.3596 -0.4370
   62MOL   C31538257   3.824   6.636   2.421  0.4444  0.8724 -1.2753
   62MOL   C31638258   3.750   6.632   2.557 -0.4737 -0.1745  0.1510
   62MOL   C31738259   3.829   6.634   2.688  0.2332  0.0320 -0.1751
   62MOL   C31838260   3.923   6.514   2.700 -0.7518  0.1392 -0.3555
   62MOL   C31938261   3.998   6.508   2.835  0.0701 -0.0924  0.2571
   62MOL   C32038262   4.104   6.406   2.825  0.3793  0.7203  0.8200
   62MOL   C32138263   4.203   6.410   2.943  0.1628 -0.8313 -0.2964
   62MOL   C32238264   3.445   6.495   2.319  0.1062 -0.0410 -0.0290
   62MOL   H32338265   3.533   6.567   2.133  0.5739  1.6081  1.9413
   62MOL   H32438266   3.630   6.684   2.328 -1.0244 -0.7035 -0.8607
   62MOL   H32538267   3.776   6.668   2.220  1.2116  2.7439  1.5789
   62MOL   H32638268   3.876   6.732   2.431  1.1011  0.3939  0.0442
   62MOL   H32738269   3.901   6.559   2.413  1.1627  1.2919  1.1860
   62MOL   H32838270   3.686   6.721   2.561 -1.6113 -0.9848  0.3530
   62MOL   H32938271   3.684   6.545   2.558 -0.0842 -0.4655  0.5385
   62MOL   H33038272   3.893   6.723   2.696 -0.5734  0.6060 -0.0602
   62MOL   H33138273   3.763   6.638   2.775  0.5744  0.2798  0.0758
   62MOL   H33238274   3.850   6.433   2.700  0.4611 -0.9793 -1.0212
   62MOL   H33338275   3.999   6.522   2.622 -1.1108 -0.4976 -0.7722
   62MOL   H33438276   3.929   6.506   2.919 -0.1025  0.9649  0.1534
   62MOL   H33538277   4.053   6.599   2.858  0.7492 -0.0663 -1.3875
   62MOL   H33638278   4.058   6.308   2.810  1.3461  0.3267  0.3298
   62MOL   H33738279   4.163   6.429   2.736 -1.5495  3.1430  0.1159
   62MOL   H33838280   4.250   6.508   2.948  2.3210 -1.8906  1.2318
   62MOL   H33938281   4.277   6.332   2.923 -1.2387 -2.4126  0.5440
   62MOL   H34038282   4.158   6.379   3.038 -1.3825  1.9212 -0.0727
   62MOL   H34138283   3.421   6.396   2.357  0.0053  0.6166  1.6627
   62MOL   H34238284   3.510   6.542   2.393  1.5053  0.7844 -1.7268
   62MOL   C34338285   3.314   6.578   2.316 -0.2006 -0.7858 -0.1605
   62MOL   O34438286   3.359   6.706   2.289  0.4892 -0.2196  0.1618
   62MOL   C34538287   3.284   6.776   2.194 -0.8162  0.2979  0.0889
   62MOL   C34638288   3.335   6.919   2.177 -0.3996  0.3555 -0.7634
   62MOL   C34738289   3.260   6.997   2.070 -0.1362  0.4854 -1.0750
   62MOL   C34838290   3.299   7.145   2.057  0.5255  0.0698  1.0270
   62MOL   C34938291   3.227   7.221   1.940  0.6704  0.1428 -0.4639
   62MOL   C35038292   3.264   7.376   1.939  0.6956  0.0238 -0.1489
   62MOL   C35138293   3.212   7.452   1.814  0.7706 -0.0672 -0.0967
   62MOL   C35238294   3.063   7.455   1.776 -0.0446 -0.1959  0.4346
   62MOL   C35338295   3.242   6.596   2.446 -0.3088  0.1922  1.4224
   62MOL   H35438296   3.249   6.536   2.239 -0.0779 -0.8910 -0.2080
   62MOL   H35538297   3.178   6.775   2.219 -0.6403 -2.0497  0.9393
   62MOL   H35638298   3.285   6.725   2.098  0.2129  0.9198 -0.2309
   62MOL   H35738299   3.443   6.925   2.170 -0.3042 -1.0959 -0.6892
   62MOL   H35838300   3.300   6.965   2.270  0.0765 -0.1587 -0.3250
   62MOL   H35938301   3.276   6.944   1.976 -1.9920  3.2333 -3.0066
   62MOL   H36038302   3.153   6.999   2.092 -0.1208 -0.0392 -0.9369
   62MOL   H36138303   3.258   7.187   2.149 -1.0102  3.0695 -0.9353
   62MOL   H36238304   3.406   7.165   2.044  0.4409 -1.5190 -2.5505
   62MOL   H36338305   3.245   7.175   1.843 -0.7264 -0.1214 -0.6021
   62MOL   H36438306   3.119   7.216   1.952  0.7599  0.7026  0.6228
   62MOL   H36538307   3.372   7.390   1.949  0.4660  0.9872  1.0108
   62MOL   H36638308   3.222   7.426   2.025 -0.5084 -2.5605  0.8261
   62MOL   H36738309   3.242   7.557   1.823  3.3784 -0.7781 -0.0543
   62MOL   H36838310   3.262   7.412   1.726 -0.4137 -1.8948  0.0423
   62MOL   H36938311   3.057   7.505   1.679  3.5239  0.1939  0.3732
   62MOL   H37038312   3.001   7.513   1.844 -0.3093 -0.0838  0.1019
   62MOL   H37138313   3.030   7.352   1.761  2.9261 -1.4212  1.9678
   62MOL   H37238314   3.327   6.605   2.514  1.8148 -0.7931 -0.9864
   62MOL   H37338315   3.177   6.683   2.443 -0.0844  0.3204 -0.7080
   62MOL   C37438316   3.158   6.470   2.478  0.1475  0.4247  0.0514
   62MOL   O37538317   3.047   6.489   2.393  0.2617  1.0205  0.6895
   62MOL   C37638318   2.975   6.381   2.344 -0.4589 -0.4051 -0.4030
   62MOL   C37738319   3.000   6.362   2.192 -0.0601 -0.0333  0.0112
   62MOL   C37838320   3.001   6.492   2.103 -0.3408  0.8705  0.2214
   62MOL   C37938321   2.867   6.561   2.088  0.1721 -0.4112  0.4229
   62MOL   C38038322   2.899   6.705   2.042 -0.4276  0.1084  0.4333
   62MOL   C38138323   2.777   6.778   1.993 -0.7888 -0.2171 -0.0833
   62MOL   C38238324   2.784   6.933   1.999  0.5218 -0.5687 -0.8842
   62MOL   C38338325   2.869   6.991   1.890 -0.1128 -0.3811  0.1826
   62MOL   C38438326   3.113   6.467   2.625 -0.2640  0.3426  0.5043
   62MOL   H38538327   3.215   6.380   2.451  0.3933  0.9742 -1.3167
   62MOL   H38638328   2.870   6.387   2.374 -0.3773 -0.7888 -0.0326
   62MOL   H38738329   3.007   6.290   2.394 -2.8253 -0.1654  1.6334
   62MOL   H38838330   2.937   6.284   2.149  2.5261 -1.7659 -0.7157
   62MOL   H38938331   3.102   6.330   2.174 -0.6126 -0.1963 -3.1211
   62MOL   H39038332   3.078   6.559   2.141  0.4624  0.6129 -0.9171
   62MOL   H39138333   3.024   6.461   2.001  1.9609  2.2826  0.2688
   62MOL   H39238334   2.795   6.505   2.029  0.8032 -1.1845  0.3741
   62MOL   H39338335   2.822   6.566   2.187  1.1590 -0.5074  0.8856
   62MOL   H39438336   2.935   6.750   2.135 -3.1085  0.9933  1.1076
   62MOL   H39538337   2.978   6.689   1.969 -0.8181  2.2741 -0.5131
   62MOL   H39638338   2.690   6.749   2.053  0.3719  0.5517  2.0198
   62MOL   H39738339   2.753   6.744   1.892 -0.4825 -0.4348 -0.0837
   62MOL   H39838340   2.685   6.976   1.988  0.5406 -0.4470 -0.5821
   62MOL   H39938341   2.836   6.965   2.089  1.0340  1.0453 -1.7242
   62MOL   H40038342   2.837   6.949   1.795 -1.7742  1.1229  0.0533
   62MOL   H40138343   2.978   6.980   1.888  0.0350  0.9253  0.4155
   62MOL   H40238344   2.847   7.098   1.891 -0.7054 -0.4120 -3.2630
   62MOL   H40338345   3.039   6.546   2.640  0.2149  1.4619 -2.6466
   62MOL   H40438346   3.061   6.374   2.647 -3.5053  1.6112 -1.4579
   62MOL   C40538347   3.230   6.462   2.726 -0.2231  0.3856  0.2091
   62MOL   O40638348   3.313   6.351   2.698  0.2947  0.2864 -0.5089
   62MOL   C40738349   3.454   6.372   2.698  0.2129 -0.1224 -0.1711
   62MOL   C40838350   3.530   6.238   2.696 -0.4131 -0.3898  0.1468
   62MOL   C40938351   3.479   6.129   2.591  0.4872 -0.6536 -0.0627
   62MOL   C41038352   3.564   6.007   2.611 -0.8826  1.0716  0.1237
   62MOL   C41138353   3.528   5.886   2.518  0.2130  0.1831  0.9284
   62MOL   C41238354   3.632   5.774   2.539 -0.2646  0.0682 -1.3910
   62MOL   C41338355   3.631   5.649   2.448  0.3194  0.1672 -0.2512
   62MOL   C41438356   3.733   5.665   2.336 -0.1805 -0.1327 -0.2041
   62MOL   C41538357   3.185   6.443   2.870 -0.3788  0.0223 -0.0822
   62MOL   H41638358   3.284   6.557   2.719  0.5964 -0.0550  0.4691
   62MOL   H41738359   3.490   6.420   2.788 -2.1193 -1.8901  1.7599
   62MOL   H41838360   3.472   6.431   2.608 -0.0101  0.0988 -0.0701
   62MOL   H41938361   3.499   6.203   2.794  0.5592  0.7704  0.8741
   62MOL   H42038362   3.636   6.263   2.697 -0.4515 -0.2357  0.7095
   62MOL   H42138363   3.374   6.114   2.619  0.4855  1.7256  1.3922
   62MOL   H42238364   3.495   6.163   2.489  1.8676  0.5392  0.5378
   62MOL   H42338365   3.669   6.028   2.593 -0.9575  0.7018 -0.8056
   62MOL   H42438366   3.566   5.977   2.715 -2.8846  0.7544  0.0932
   62MOL   H42538367   3.427   5.853   2.545 -0.9745  2.6077 -0.3930
   62MOL   H42638368   3.527   5.905   2.411 -1.0707  2.5276  1.3164
   62MOL   H42738369   3.619   5.752   2.645 -1.4458 -3.1002 -2.1342
   62MOL   H42838370   3.738   5.799   2.531  0.2871 -1.8778 -0.6546
   62MOL   H42938371   3.657   5.562   2.510  1.4565  0.5179 -0.2240
   62MOL   H43038372   3.542   5.626   2.390 -0.3549  1.7106  0.1506
   62MOL   H43138373   3.724   5.756   2.276  0.5847 -0.1313 -0.3220
   62MOL   H43238374   3.744   5.582   2.267 -0.7228  2.3950 -3.4605
   62MOL   H43338375   3.832   5.665   2.380 -1.2311  2.7403  2.3001
   62MOL   H43438376   3.123   6.354   2.878 -2.0889  0.9707 -2.1645
   62MOL   H43538377   3.273   6.418   2.929 -0.8979 -0.4381  0.5090
   62MOL   C43638378   3.143   6.575   2.944 -0.6687  0.3434  0.0784
   62MOL   O43738379   3.261   6.638   2.984  0.1996 -0.0201 -0.6986
   62MOL   C43838380   3.259   6.777   2.989 -0.2303 -0.5005  0.4427
   62MOL   C43938381   3.393   6.812   3.059 -0.0077  0.1875 -0.2223
   62MOL   C44038382   3.524   6.773   2.984  0.3256 -0.0794  0.2007
   62MOL   C44138383   3.568   6.877   2.883  0.6589  1.0268 -0.7527
   62MOL   C44238384   3.499   6.873   2.746 -0.8302 -0.7561 -0.2194
   62MOL   C44338385   3.557   6.966   2.647  0.2935  0.5623  0.3954
   62MOL   C44438386   3.466   6.984   2.528 -0.2978  0.2202  0.3068
   62MOL   C44538387   3.506   7.118   2.448 -1.3427 -0.1588  0.0185
   62MOL   C44638388   3.050   6.541   3.062  0.4459  0.4096  0.1667
   62MOL   H44738389   3.083   6.644   2.885 -0.2232  1.7182  1.1989
   62MOL   H44838390   3.257   6.807   2.884 -0.6960 -2.4663 -0.1250
   62MOL   H44938391   3.175   6.822   3.042 -0.7959 -0.0903 -0.7760
   62MOL   H45038392   3.397   6.766   3.158  1.9655 -0.0838 -0.4083
   62MOL   H45138393   3.398   6.920   3.074  0.2489  0.1156  0.2258
   62MOL   H45238394   3.604   6.763   3.058  0.0893  1.0556  0.6174
   62MOL   H45338395   3.513   6.671   2.946  1.4798 -0.0821 -0.1406
   62MOL   H45438396   3.569   6.980   2.917  1.8322  1.0343 -0.7779
   62MOL   H45538397   3.675   6.855   2.873  0.3281  1.1671 -6.2284
   62MOL   H45638398   3.511   6.771   2.710 -2.0034 -0.8437 -0.3949
   62MOL   H45738399   3.393   6.897   2.757 -0.3223  0.4982  2.5107
   62MOL   H45838400   3.654   6.927   2.618  0.7136  1.4018  0.6626
   62MOL   H45938401   3.589   7.062   2.688  0.5461  0.3831  0.6194
   62MOL   H46038402   3.473   6.899   2.460 -0.2360  1.3375 -1.1215
   62MOL   H46138403   3.361   6.982   2.559  0.1883 -2.7750  1.9810
   62MOL   H46238404   3.446   7.139   2.360 -1.7848  1.8712  0.7822
   62MOL   H46338405   3.611   7.142   2.431 -1.1441 -1.3048 -0.4377
   62MOL   H46438406   3.469   7.198   2.513  2.0882  1.8853 -0.3811
   62MOL   H46538407   3.030   6.634   3.115  0.0758  0.6470 -0.3829
   62MOL   H46638408   2.953   6.506   3.027  1.0699 -1.7234  0.5351
   62MOL   C46738409   3.088   6.434   3.162  0.3476 -0.7177 -0.1654
   62MOL   O46838410   3.043   6.302   3.121 -0.4949  0.2093  0.4697
   62MOL   C46938411   3.126   6.191   3.157  0.3323 -0.4761  0.5573
   62MOL   C47038412   3.065   6.066   3.099 -0.1909  0.3911  0.0289
   62MOL   C47138413   2.951   6.021   3.181  0.2262 -0.1729  0.7089
   62MOL   C47238414   2.886   5.892   3.130 -0.1183 -0.7794  0.1617
   62MOL   C47338415   2.960   5.764   3.170  0.1535 -0.3565 -0.9347
   62MOL   C47438416   2.900   5.628   3.132 -0.4471 -0.4053  0.1925
   62MOL   C47538417   2.754   5.609   3.181  0.2008 -0.1636 -0.0762
   62MOL   C47638418   2.698   5.477   3.166  0.9134  0.2740 -0.5037
   62MOL   C47738419   3.060   6.487   3.301 -0.2049 -0.3874 -0.0394
   62MOL   H47838420   3.195   6.423   3.147  0.7198 -1.4280  2.7444
   62MOL   H47938421   3.148   6.178   3.263 -0.4281  1.7834  1.0387
   62MOL   H48038422   3.220   6.209   3.105 -1.3425 -0.1896 -2.4528
   62MOL   H48138423   3.134   5.982   3.092  0.2542  0.8160 -0.7769
   62MOL   H48238424   3.025   6.084   2.999  0.8631  1.1163 -0.2718
   62MOL   H48338425   2.992   6.006   3.281  0.5045 -1.1114  0.4588
   62MOL   H48438426   2.870   6.093   3.196 -0.0001 -0.5359  1.2643
   62MOL   H48538427   2.788   5.876   3.175  0.2760  0.4260  1.5104
   62MOL   H48638428   2.874   5.894   3.022  1.2447 -0.8203 -0.0095
   62MOL   H48738429   3.058   5.771   3.122  0.5390 -1.5376 -0.3394
   62MOL   H48838430   2.985   5.763   3.277  0.6864 -2.6739 -1.0523
   62MOL   H48938431   2.960   5.544   3.168  0.7563  0.4211  0.1473
   62MOL   H49038432   2.901   5.613   3.024  0.5444 -0.4965  0.2077
   62MOL   H49138433   2.743   5.643   3.284 -0.1214  1.4690 -0.6277
   62MOL   H49238434   2.697   5.680   3.120 -1.7907 -0.3687  1.4892
   62MOL   H49338435   2.709   5.432   3.068  3.5241 -1.5236  0.5660
   62MOL   H49438436   2.589   5.474   3.175  0.6657  0.4884 -3.1117
   62MOL   H49538437   2.732   5.400   3.235 -2.2667 -1.7533 -1.0808
   62MOL   H49638438   2.965   6.539   3.307  0.1834  0.1389  1.7924
   62MOL   H49738439   3.053   6.404   3.372 -0.6361  0.3230  0.7473
   62MOL   C49838440   3.168   6.579   3.363  0.5058  0.1437 -0.2279
   62MOL   O49938441   3.270   6.490   3.414 -0.4531 -0.4200  0.5865
   62MOL   C50038442   3.399   6.557   3.433 -0.3369 -0.3646 -0.6186
   62MOL   C50138443   3.516   6.460   3.407  0.0795 -0.1387 -0.1229
   62MOL   C50238444   3.513   6.384   3.271  0.1782 -0.0118  0.3524
   62MOL   C50338445   3.636   6.295   3.254  0.7357  0.9795  0.4639
   62MOL   C50438446   3.662   6.228   3.115 -0.8791  1.0041 -0.1946
   62MOL   C50538447   3.792   6.152   3.095  0.6189 -0.5600  0.1814
   62MOL   C50638448   3.799   6.088   2.956  0.0918  0.4749  0.1602
   62MOL   C50738449   3.707   5.965   2.944 -0.2697  0.5008  0.2890
   62MOL   C50838450   3.111   6.663   3.485  0.2420 -0.2346  0.4770
   62MOL   H50938451   3.212   6.649   3.292 -1.2030  1.2910 -0.1753
   62MOL   H51038452   3.408   6.587   3.537 -1.0546 -1.3654 -0.2640
   62MOL   H51138453   3.404   6.649   3.375  0.2416 -0.2505 -0.3925
   62MOL   H51238454   3.528   6.381   3.482 -0.0600  0.1473  0.1964
   62MOL   H51338455   3.610   6.515   3.412 -0.0623  0.3542 -2.4082
   62MOL   H51438456   3.421   6.324   3.273  1.7230 -2.4834  0.1938
   62MOL   H51538457   3.502   6.456   3.191 -0.3311  0.5456  0.9152
   62MOL   H51638458   3.727   6.342   3.289  1.7172  0.2098 -0.9903
   62MOL   H51738459   3.621   6.216   3.328  0.6847  1.0243  0.5024
   62MOL   H51838460   3.589   6.148   3.103 -2.0567  1.8933  0.9106
   62MOL   H51938461   3.656   6.297   3.031 -1.5145 -2.3475 -3.0302
   62MOL   H52038462   3.801   6.077   3.173  1.7920 -0.7601 -0.1280
   62MOL   H52138463   3.874   6.220   3.121 -1.1068  1.5337  0.2893
   62MOL   H52238464   3.771   6.154   2.875 -1.9426 -0.2631  0.2386
   62MOL   H52338465   3.904   6.062   2.945  0.0364 -0.1185  0.9549
   62MOL   H52438466   3.711   5.908   3.037  2.1812  1.2331  0.6722
   62MOL   H52538467   3.739   5.912   2.854 -1.4693 -0.0683  0.1966
   62MOL   H52638468   3.601   5.985   2.932 -1.3602 -3.6548  2.3247
   62MOL   H52738469   3.046   6.595   3.540  2.2954 -1.5365  1.3556
   62MOL   H52838470   3.187   6.684   3.560 -1.3794  0.6877  1.8957
   62MOL   C52938471   3.048   6.806   3.458  0.9579 -0.2172  0.4635
   62MOL   O53038472   2.958   6.795   3.341  0.2004  0.4676 -0.2440
   62MOL   C53138473   2.843   6.875   3.340 -0.9286  0.0610 -0.0955
   62MOL   C53238474   2.772   6.857   3.204  0.3109  0.1622  0.0715
   62MOL   C53338475   2.848   6.900   3.083 -0.3477  0.9922 -0.5849
   62MOL   C53438476   2.802   6.853   2.946  0.3506 -0.0786 -0.4144
   62MOL   C53538477   2.901   6.915   2.843 -0.2931  0.0221  0.3008
   62MOL   C53638478   2.854   6.887   2.697  0.0770  0.1441 -0.0176
   62MOL   C53738479   2.955   6.931   2.593  0.0111 -0.3179 -0.1057
   62MOL   C53838480   2.925   6.871   2.453  0.4089 -0.0782 -0.3188
   62MOL   C53938481   3.146   6.917   3.415  0.2436 -0.3422 -0.0245
   62MOL   H54038482   2.993   6.833   3.548 -0.3690 -1.3292  0.0061
   62MOL   H54138483   2.775   6.833   3.414  1.0718 -3.0722  0.1084
   62MOL   H54238484   2.866   6.980   3.355  0.4063 -0.3340  0.7208
   62MOL   H54338485   2.681   6.917   3.197 -0.0201 -0.4803 -1.1447
   62MOL   H54438486   2.743   6.752   3.198  1.8650 -0.5383  3.4919
   62MOL   H54538487   2.853   7.009   3.077  1.1326  1.0101  0.7425
   62MOL   H54638488   2.952   6.869   3.091 -0.9436 -0.3948  2.2084
   62MOL   H54738489   2.796   6.744   2.949  0.7345 -0.1181 -1.0987
   62MOL   H54838490   2.704   6.897   2.931  0.5023  0.0580 -1.0012
   62MOL   H54938491   2.924   7.020   2.857  0.5557 -0.0796 -0.2840
   62MOL   H55038492   2.996   6.863   2.841 -0.7259 -0.8155  1.0029
   62MOL   H55138493   2.756   6.929   2.671  0.1084 -0.2121 -0.7151
   62MOL   H55238494   2.831   6.780   2.696 -0.0828  0.1808 -0.6632
   62MOL   H55338495   2.973   7.039   2.595 -3.1010  0.2339  2.3729
   62MOL   H55438496   3.051   6.886   2.620  1.8623  2.8649 -1.0660
   62MOL   H55538497   3.009   6.887   2.386  0.6864 -0.5839 -0.0976
   62MOL   H55638498   2.836   6.910   2.404 -0.4610  0.8917  1.9444
   62MOL   H55738499   2.903   6.766   2.472 -3.0589  0.8072  0.8199
   62MOL   H55838500   3.215   6.883   3.337 -0.8234  1.2767 -1.7292
   62MOL   H55938501   3.094   7.000   3.368  2.4384  0.5015 -1.0638
   62MOL   C56038502   3.231   6.989   3.525 -0.1369 -0.0789  0.4313
   62MOL   O56138503   3.127   7.065   3.583 -0.3791  0.1031 -0.3765
   62MOL   C56238504   3.161   7.109   3.714  0.2748 -0.2583  0.7525
   62MOL   C56338505   3.041   7.155   3.788 -0.2541 -0.2289 -0.1496
   62MOL   C56438506   2.972   7.284   3.732  0.7204 -0.5939 -0.0152
   62MOL   C56538507   3.046   7.402   3.792  0.1389  0.1498  0.5237
   62MOL   C56638508   2.992   7.542   3.751  0.3129  0.3245 -0.9116
   62MOL   C56738509   2.868   7.577   3.841 -0.1646  0.5428 -0.2844
   62MOL   C56838510   2.821   7.728   3.834 -0.3022 -0.1506 -0.6797
   62MOL   C56938511   2.721   0.001   3.941 -0.4772  0.1444  0.2633
   62MOL   C57038512   3.339   7.083   3.469  0.4111 -0.4610 -0.2531
   62MOL   H57138513   3.275   6.910   3.585 -1.6725  0.2740  2.0566
   62MOL   H57238514   3.231   7.193   3.713  0.4637 -0.4153  0.9391
   62MOL   H57338515   3.215   7.031   3.767  1.8974  1.7452  2.1184
   62MOL   H57438516   3.069   7.167   3.893  3.7977  0.0085 -1.1645
   62MOL   H57538517   2.967   7.075   3.784 -0.3737 -0.0988 -0.6047
   62MOL   H57638518   2.979   7.279   3.624 -0.2625 -0.1671 -0.1025
   62MOL   H57738519   2.869   7.290   3.768  1.0102  1.7858  0.5165
   62MOL   H57838520   3.067   7.396   3.899 -1.0681 -1.5677  0.6947
   62MOL   H57938521   3.146   7.391   3.750 -0.6608  0.8337 -1.5975
   62MOL   H58038522   3.070   7.617   3.752 -0.4556  1.1633  2.0658
   62MOL   H58138523   2.958   7.531   3.648  0.9345  0.8528 -1.1727
   62MOL   H58238524   2.899   7.556   3.943  0.5411  0.6183 -0.4829
   62MOL   H58338525   2.787   7.511   3.810 -0.9594 -0.0235  2.8551
   62MOL   H58438526   2.909   0.013   3.856  0.0930 -0.6746 -0.8434
   62MOL   H58538527   2.791   7.752   3.732 -2.7838  0.8902  0.2589
   62MOL   H58638528   2.687   0.103   3.924  0.5981  0.1982 -1.6557
   62MOL   H58738529   2.757   7.764   4.043 -1.8935  2.5012  1.0517
   62MOL   H58838530   2.627   7.723   3.921  1.2586 -2.7610 -0.4701
   62MOL   H58938531   3.393   7.122   3.555 -0.7472 -2.7542  1.5855
   62MOL   H59038532   3.402   7.024   3.403 -0.1771 -1.5193  0.1245
   62MOL   C59138533   3.292   7.204   3.384 -0.3728  0.6517 -0.5507
   62MOL   O59238534   3.260   7.163   3.250 -0.0357 -0.8524 -0.6227
   62MOL   C59338535   3.157   7.238   3.189  0.8830 -0.1137  0.5137
   62MOL   C59438536   3.145   7.205   3.042 -0.8122 -0.4592 -0.0586
   62MOL   C59538537   3.273   7.243   2.963  0.5523  0.0053 -0.1678
   62MOL   C59638538   3.275   7.216   2.808  0.4310  0.6144  0.3662
   62MOL   C59738539   3.167   7.292   2.731  0.2511  0.0726  0.1486
   62MOL   C59838540   3.192   7.298   2.579  0.1822  0.1100  0.5190
   62MOL   C59938541   3.137   7.418   2.505  0.4979  0.6119 -0.8405
   62MOL   C60038542   3.163   7.398   2.355  0.7263 -0.3238 -0.2722
   62MOL   C60138543   3.400   7.310   3.378 -0.0415 -0.8360 -0.1949
   62MOL   H60238544   3.203   7.229   3.441  0.9364 -1.1218  2.3780
   62MOL   H60338545   3.187   7.343   3.197  1.7377 -0.2906 -0.2754
   62MOL   H60438546   3.068   7.217   3.247  0.0200  1.8834 -0.0336
   62MOL   H60538547   3.054   7.249   3.003 -0.3339  1.2174  0.6800
   62MOL   H60638548   3.140   7.097   3.030 -0.0589 -0.4889 -0.1724
   62MOL   H60738549   3.282   7.350   2.984 -1.1889 -0.3273  2.4579
   62MOL   H60838550   3.352   7.186   3.010 -1.1091 -1.6339  0.6946
   62MOL   H60938551   3.373   7.249   2.773  0.6287 -1.5148 -1.2443
   62MOL   H61038552   3.274   7.109   2.787  2.4118  1.1547 -2.9209
   62MOL   H61138553   3.066   7.255   2.746  0.5961 -0.3106  1.5566
   62MOL   H61238554   3.170   7.395   2.767 -3.2040 -0.2701  1.6347
   62MOL   H61338555   3.162   7.205   2.531 -0.1454  0.8114 -0.6388
   62MOL   H61438556   3.301   7.304   2.569  0.1921 -0.9665 -0.0765
   62MOL   H61538557   3.029   7.424   2.518  0.5870  1.7116 -0.5197
   62MOL   H61638558   3.176   7.509   2.551  1.8275  0.1649 -1.0681
   62MOL   H61738559   3.133   7.303   2.312 -0.2900 -0.1775  0.0999
   62MOL   H61838560   3.268   7.412   2.329  1.2269 -0.7067  1.4273
   62MOL   H61938561   3.108   7.470   2.294 -0.7791 -1.5379 -0.3705
   62MOL   H62038562   3.469   7.306   3.462 -0.9955  0.6089  0.6734
   62MOL   H62138563   3.459   7.306   3.286  0.0492  0.8292 -0.2324
   62MOL   H62238564   3.359   7.411   3.371  0.8637 -0.4242  0.3900
   63MOL     C138565   5.854   1.288   2.767 -0.5338  0.1810  0.4224
   63MOL     O238566   5.773   1.244   2.654  0.1288  0.1031 -0.4121
   63MOL     C338567   5.714   1.124   2.668 -0.5117 -0.3570  0.2578
   63MOL     C438568   5.640   1.085   2.539 -0.0102  0.6164 -0.3736
   63MOL     C538569   5.729   1.069   2.414  0.1399  0.7105 -0.1445
   63MOL     C638570   5.651   1.016   2.294  0.2286 -1.1145 -0.2037
   63MOL     C738571   5.723   1.015   2.160 -0.2500 -0.2765  0.5383
   63MOL     C838572   5.837   0.916   2.156 -0.0512 -0.4792  0.3720
   63MOL     C938573   5.919   0.934   2.028 -0.1826 -0.3821  0.4169
   63MOL    C1038574   6.012   0.821   2.009  0.3722 -0.0227  0.0170
   63MOL    C1138575   5.896   1.433   2.756 -0.0564  0.4731 -0.5867
   63MOL    H1238576   5.772   1.276   2.837  0.3850  0.3694  1.5463
   63MOL    H1338577   5.651   1.110   2.756 -1.3240 -0.0598 -0.2693
   63MOL    H1438578   5.792   1.050   2.685  2.2171  2.4867  0.5064
   63MOL    H1538579   5.558   1.156   2.526  0.6002  1.3718 -0.1831
   63MOL    H1638580   5.593   0.987   2.553 -0.9727  1.0907 -0.2000
   63MOL    H1738581   5.784   1.159   2.388 -1.5423  1.9889  0.5757
   63MOL    H1838582   5.808   0.997   2.433 -0.4824 -0.0050 -0.2143
   63MOL    H1938583   5.610   0.918   2.320 -0.4760 -0.8304 -0.2414
   63MOL    H2038584   5.573   1.091   2.279  0.6165 -0.8790 -1.0424
   63MOL    H2138585   5.667   0.987   2.070  1.2413  0.1612 -0.5371
   63MOL    H2238586   5.767   1.113   2.144  0.5869 -0.7317 -0.0104
   63MOL    H2338587   5.795   0.815   2.164 -0.4943 -0.2621  0.8281
   63MOL    H2438588   5.893   0.931   2.248 -0.1827  0.4452  0.3020
   63MOL    H2538589   5.848   0.954   1.948  1.8013  0.3347 -1.2300
   63MOL    H2638590   5.975   1.027   2.040  2.0900 -1.6909  0.2282
   63MOL    H2738591   6.048   0.814   1.907 -0.0532  0.7477 -0.1907
   63MOL    H2838592   5.963   0.726   2.031  2.6564 -1.0441  0.8365
   63MOL    H2938593   6.098   0.835   2.075 -0.6478 -0.0911  1.3920
   63MOL    H3038594   5.947   1.446   2.661  0.9561  2.1079  0.1573
   63MOL    H3138595   5.809   1.499   2.747 -0.8216 -0.5261 -0.6346
   63MOL    H3238596   5.944   1.228   2.783 -0.0877  0.6597 -0.2474
   63MOL    C3338597   5.968   1.502   2.877 -0.0285 -0.0474  0.7694
   63MOL    O3438598   6.091   1.434   2.894 -0.1479 -0.2966 -0.3244
   63MOL    C3538599   6.191   1.473   2.803 -0.6582  0.2661 -0.1914
   63MOL    C3638600   6.247   1.333   2.750 -0.2069 -0.4610 -0.3529
   63MOL    C3738601   6.344   1.256   2.855  0.3139  0.4546 -0.0550
   63MOL    C3838602   6.428   1.156   2.771 -0.7454  0.0595 -0.1406
   63MOL    C3938603   6.526   1.067   2.854 -0.2341 -0.2016 -0.3394
   63MOL    C4038604   6.608   0.978   2.752 -0.1650  0.0210  0.2872
   63MOL    C4138605   6.709   0.885   2.809 -0.2079 -0.0661  0.4548
   63MOL    C4238606   6.775   0.786   2.714 -0.0134 -0.1129  0.1025
   63MOL    C4338607   5.873   1.490   3.006 -0.2753  0.1820 -0.3923
   63MOL    H4438608   5.983   1.606   2.849 -0.6458 -0.1528  0.0026
   63MOL    H4538609   6.274   1.520   2.856 -0.4059 -0.2478 -0.1263
   63MOL    H4638610   6.154   1.541   2.726 -1.3839  0.3309  0.2075
   63MOL    H4738611   6.268   1.365   2.648 -0.9833  0.1602 -0.3247
   63MOL    H4838612   6.170   1.256   2.742 -0.0893 -0.7279  0.9310
   63MOL    H4938613   6.410   1.329   2.900  2.0500 -2.9943  3.2712
   63MOL    H5038614   6.283   1.214   2.936  0.6825 -0.0597 -0.0410
   63MOL    H5138615   6.367   1.106   2.696 -0.2911 -0.4807 -0.1529
   63MOL    H5238616   6.490   1.212   2.700  1.1603 -3.0869 -1.0863
   63MOL    H5338617   6.601   1.135   2.895  0.8864 -2.7001  1.8897
   63MOL    H5438618   6.479   1.014   2.937 -1.9723 -0.4625 -1.4691
   63MOL    H5538619   6.662   1.033   2.674  1.9389 -0.3773  1.4348
   63MOL    H5638620   6.531   0.913   2.710 -1.2540  1.4424  0.0323
   63MOL    H5738621   6.788   0.948   2.849  1.0776 -0.8627 -0.7676
   63MOL    H5838622   6.653   0.823   2.878 -1.9784  2.1053  1.0492
   63MOL    H5938623   6.870   0.743   2.745 -1.0637 -0.3024  3.2136
   63MOL    H6038624   6.789   0.836   2.618  1.0434 -0.5327  0.0372
   63MOL    H6138625   6.700   0.717   2.674  0.3824 -0.3264 -0.2724
   63MOL    H6238626   5.769   1.506   2.981 -0.8759  0.1465  1.9926
   63MOL    H6338627   5.869   1.387   3.043  3.0539 -0.1474 -0.7520
   63MOL    C6438628   5.906   1.587   3.118 -0.5340 -0.3133 -0.5859
   63MOL    O6538629   6.011   1.541   3.203  0.1933 -0.9978  0.5409
   63MOL    C6638630   6.129   1.614   3.195  0.4830  0.4431  0.4744
   63MOL    C6738631   6.248   1.546   3.276  0.4445  0.6447 -0.4517
   63MOL    C6838632   6.284   1.409   3.215 -0.1339 -0.1992 -0.0942
   63MOL    C6938633   6.386   1.336   3.296  0.6739  0.2471 -0.2406
   63MOL    C7038634   6.412   1.194   3.247 -0.6995 -1.0524 -0.0145
   63MOL    C7138635   6.475   1.106   3.361 -0.1162  0.2812 -0.2870
   63MOL    C7238636   6.372   1.022   3.437  0.1855  0.6325  0.2795
   63MOL    C7338637   6.426   0.919   3.533  0.0558 -0.3081  0.0935
   63MOL    C7438638   5.789   1.609   3.213  0.5832 -0.0414  0.5256
   63MOL    H7538639   5.931   1.687   3.082 -0.9849 -0.4014 -1.1569
   63MOL    H7638640   6.110   1.715   3.233  0.1845  0.4804  0.2252
   63MOL    H7738641   6.144   1.638   3.090  3.0993 -0.2357  0.6615
   63MOL    H7838642   6.222   1.536   3.381  1.4397  2.6630  0.0079
   63MOL    H7938643   6.335   1.610   3.269  0.5689  0.5038 -0.1917
   63MOL    H8038644   6.195   1.349   3.202 -1.0046  1.2402 -0.8823
   63MOL    H8138645   6.321   1.429   3.114  1.8977 -1.5197  0.3574
   63MOL    H8238646   6.480   1.391   3.301  0.0116  1.4005 -0.2531
   63MOL    H8338647   6.355   1.330   3.401 -1.5543 -0.4192 -0.9000
   63MOL    H8438648   6.318   1.156   3.207  0.3558 -1.0164 -2.6347
   63MOL    H8538649   6.470   1.189   3.155 -0.9499 -2.6990 -0.1065
   63MOL    H8638650   6.530   1.170   3.430 -3.4954  1.1201  1.7557
   63MOL    H8738651   6.537   1.030   3.312  2.1451 -0.3590  3.3744
   63MOL    H8838652   6.297   1.090   3.478 -0.0411 -0.1652  1.2084
   63MOL    H8938653   6.310   0.967   3.366 -1.8076 -1.4188  3.4592
   63MOL    H9038654   6.459   0.963   3.627 -1.3202  1.4779 -0.2358
   63MOL    H9138655   6.491   0.851   3.478  0.1447 -1.7403  1.9351
   63MOL    H9238656   6.336   0.867   3.567 -2.0053  1.4055 -2.4976
   63MOL    H9338657   5.772   1.521   3.275 -1.5501  1.1862  1.7658
   63MOL    H9438658   5.825   1.689   3.278  2.1778  1.3189 -1.9297
   63MOL    C9538659   5.661   1.666   3.160 -0.0539  0.3534 -0.2309
   63MOL    O9638660   5.684   1.793   3.088 -0.2393 -0.2359 -0.0893
   63MOL    C9738661   5.590   1.818   2.984  0.1699  0.1041 -0.8518
   63MOL    C9838662   5.626   1.943   2.902  0.9410  0.1283  0.3449
   63MOL    C9938663   5.746   1.911   2.813 -0.2756 -0.0579 -0.1290
   63MOL   C10038664   5.725   1.829   2.686  0.0359 -0.3986 -0.3930
   63MOL   C10138665   5.852   1.833   2.598 -0.3786 -0.3510  0.7157
   63MOL   C10238666   5.848   1.778   2.460  0.0235 -0.0715  0.2050
   63MOL   C10338667   5.978   1.785   2.382 -0.1040 -0.2418  0.3267
   63MOL   C10438668   5.992   1.711   2.248 -0.0513 -0.4667  0.3721
   63MOL   C10538669   5.552   1.685   3.262  0.3467 -0.4347 -0.4574
   63MOL   H10638670   5.618   1.606   3.080 -1.4142  1.1066 -0.0820
   63MOL   H10738671   5.491   1.845   3.019 -0.2858 -0.0841 -1.9657
   63MOL   H10838672   5.571   1.728   2.925  2.4834 -2.1867  1.7625
   63MOL   H10938673   5.647   2.027   2.968  0.8847  0.3360  0.0974
   63MOL   H11038674   5.535   1.973   2.850  1.8152  0.8877 -0.7719
   63MOL   H11138675   5.792   2.006   2.787 -0.6395 -0.0707 -0.8185
   63MOL   H11238676   5.826   1.865   2.871  1.4200  1.0340 -1.5250
   63MOL   H11338677   5.712   1.726   2.719 -0.8917  0.0379  0.6423
   63MOL   H11438678   5.637   1.849   2.624 -0.8522  0.7105  1.1556
   63MOL   H11538679   5.881   1.938   2.593  0.8137 -0.4859  3.5680
   63MOL   H11638680   5.932   1.785   2.654  1.4609  1.2956 -0.4255
   63MOL   H11738681   5.760   1.819   2.411 -0.0226  1.3799  1.4744
   63MOL   H11838682   5.831   1.670   2.464  1.7157 -0.2845  2.8513
   63MOL   H11938683   6.007   1.888   2.362  0.4613 -0.2068  1.2748
   63MOL   H12038684   6.059   1.756   2.450 -0.1331  1.9548  1.3617
   63MOL   H12138685   6.092   1.669   2.236  0.5997  1.6860 -2.0340
   63MOL   H12238686   5.966   1.785   2.172  0.5273 -0.6143  0.0323
   63MOL   H12338687   5.927   1.623   2.242 -0.2648 -0.1527 -2.9478
   63MOL   H12438688   5.599   1.735   3.347  1.0049  0.1304 -1.1416
   63MOL   H12538689   5.473   1.750   3.223  0.3030  0.1968  0.6431
   63MOL   C12638690   5.492   1.551   3.317  0.3553  0.1022  0.6403
   63MOL   O12738691   5.394   1.517   3.210  0.4651 -0.4549  0.9250
   63MOL   C12838692   5.377   1.375   3.183 -0.2068  0.8392 -0.1514
   63MOL   C12938693   5.443   1.336   3.053  0.0618 -0.5248  0.3082
   63MOL   C13038694   5.392   1.419   2.932 -0.2571  0.1012 -0.1248
   63MOL   C13138695   5.473   1.403   2.802 -0.3002  0.2143 -0.7287
   63MOL   C13238696   5.438   1.512   2.694  0.0500  0.2783  0.4741
   63MOL   C13338697   5.504   1.484   2.560 -0.2478 -0.1154 -0.3761
   63MOL   C13438698   5.475   1.602   2.459 -0.1466  0.0413  0.3989
   63MOL   C13538699   5.548   1.586   2.322 -0.6498  0.5059  0.9460
   63MOL   C13638700   5.420   1.564   3.451 -0.3508 -0.0843 -0.1730
   63MOL   H13738701   5.560   1.465   3.317  3.0683  2.1489 -0.6307
   63MOL   H13838702   5.276   1.337   3.168 -0.2443  0.5253  0.8199
   63MOL   H13938703   5.404   1.313   3.269 -0.1691  2.4226  0.9904
   63MOL   H14038704   5.428   1.230   3.039  0.6220 -0.3940 -1.3787
   63MOL   H14138705   5.549   1.363   3.059 -0.5866  1.6346  3.4144
   63MOL   H14238706   5.288   1.390   2.918 -0.1478 -0.2733 -0.1710
   63MOL   H14338707   5.401   1.528   2.941  2.3213  0.1510 -2.5821
   63MOL   H14438708   5.578   1.410   2.831 -0.0101 -0.0253 -1.6958
   63MOL   H14538709   5.455   1.300   2.770  3.0851 -0.1257 -1.8008
   63MOL   H14638710   5.329   1.517   2.683  0.0067 -1.0618  0.1797
   63MOL   H14738711   5.476   1.606   2.732  0.5863  0.7414 -1.1515
   63MOL   H14838712   5.491   1.384   2.518 -0.9049 -0.4234  0.5549
   63MOL   H14938713   5.609   1.489   2.589 -0.6579 -1.1812  1.3596
   63MOL   H15038714   5.367   1.611   2.457  0.0210  3.1927  2.1226
   63MOL   H15138715   5.503   1.698   2.503  1.5376  0.5156 -1.6460
   63MOL   H15238716   5.651   1.567   2.350  0.2462  1.0757 -1.8736
   63MOL   H15338717   5.561   1.672   2.257  2.8898 -1.6248 -1.2760
   63MOL   H15438718   5.508   1.509   2.256  2.1623  1.7689 -2.3824
   63MOL   H15538719   5.386   1.667   3.464 -0.3018 -0.1214  0.2694
   63MOL   H15638720   5.325   1.512   3.451 -0.7764  0.6713 -0.9390
   63MOL   C15738721   5.497   1.538   3.585  0.4993 -0.0811  0.0252
   63MOL   O15838722   5.399   1.547   3.685 -0.0955 -0.0657 -0.2322
   63MOL   C15938723   5.328   1.428   3.704 -0.1045 -0.4195 -0.4472
   63MOL   C16038724   5.191   1.447   3.779  0.1929 -0.4750  0.0594
   63MOL   C16138725   5.184   1.494   3.925  0.2953 -0.6593 -0.7093
   63MOL   C16238726   5.055   1.471   3.995  0.1543 -0.7977 -0.1845
   63MOL   C16338727   5.052   1.534   4.138 -0.4464 -0.5309 -0.0543
   63MOL   C16438728   4.909   1.557   4.196  0.3480 -0.5624  0.2683
   63MOL   C16538729   4.906   1.628   4.330  0.2738  0.7535 -0.4374
   63MOL   C16638730   4.988   1.551   4.435  0.4530 -0.0370  0.4097
   63MOL   C16738731   5.616   1.638   3.616 -0.4542 -0.2602  0.3706
   63MOL   H16838732   5.537   1.438   3.571 -1.2116 -0.5130 -2.1808
   63MOL   H16938733   5.385   1.375   3.780 -0.1916 -0.2873 -0.2887
   63MOL   H17038734   5.328   1.362   3.618 -1.1055 -2.9249  1.4116
   63MOL   H17138735   5.151   1.347   3.790 -2.2613  0.5012  0.3766
   63MOL   H17238736   5.130   1.507   3.711 -0.6851 -1.9421 -0.4555
   63MOL   H17338737   5.261   1.436   3.976  1.1120  1.7788  0.9174
   63MOL   H17438738   5.219   1.597   3.934 -2.3781  0.2362 -0.0700
   63MOL   H17538739   4.977   1.518   3.935 -0.2452  0.1702  1.0695
   63MOL   H17638740   5.016   1.370   3.997 -0.1154 -0.7228 -1.4345
   63MOL   H17738741   5.122   1.474   4.195 -2.7172 -2.7846  0.4131
   63MOL   H17838742   5.105   1.630   4.137 -1.1010 -0.1649 -0.4344
   63MOL   H17938743   4.847   1.468   4.201  0.3152 -0.5377  0.3038
   63MOL   H18038744   4.855   1.624   4.130 -2.1693 -2.1717  0.6086
   63MOL   H18138745   4.950   1.728   4.334  3.5183 -0.6679  1.1197
   63MOL   H18238746   4.805   1.638   4.369  0.1870  2.0731 -0.9727
   63MOL   H18338747   4.958   1.447   4.449 -0.0514  0.2011  1.1619
   63MOL   H18438748   4.994   1.602   4.532  1.6063 -0.1722  0.4191
   63MOL   H18538749   5.091   1.548   4.401 -0.2257 -2.4272 -1.5155
   63MOL   H18638750   5.696   1.618   3.544 -0.1313 -0.4459  0.7789
   63MOL   H18738751   5.579   1.740   3.605  1.0550  0.3043  0.4960
   63MOL   C18838752   5.677   1.630   3.758 -0.5038 -1.4908 -0.9702
   63MOL   O18938753   5.794   1.716   3.776 -0.1155 -0.1924 -0.3413
   63MOL   C19038754   5.782   1.853   3.735  0.1208  0.0197 -0.3385
   63MOL   C19138755   5.914   1.930   3.706 -0.3465 -0.4679 -0.5078
   63MOL   C19238756   6.009   1.878   3.594 -0.1434 -0.2266  0.0350
   63MOL   C19338757   6.135   1.961   3.575 -0.1318 -0.5121 -0.3371
   63MOL   C19438758   6.238   1.890   3.486 -0.0826 -0.4654 -0.3078
   63MOL   C19538759   6.370   1.951   3.481  0.8111  0.0026  0.0552
   63MOL   C19638760   6.461   1.871   3.384  0.5114  0.0350  0.6396
   63MOL   C19738761   6.600   1.935   3.375  0.1494 -0.4258 -0.3792
   63MOL   C19838762   5.712   1.488   3.785  0.0286  0.0140  0.6537
   63MOL   H19938763   5.602   1.643   3.836 -0.7895  1.0277 -1.5960
   63MOL   H20038764   5.736   1.852   3.636 -2.3750 -1.8163  0.8013
   63MOL   H20138765   5.720   1.913   3.801 -0.0888 -1.3860  0.7647
   63MOL   H20238766   5.968   1.949   3.798  0.4229 -0.7583 -0.9018
   63MOL   H20338767   5.878   2.029   3.676 -3.8206 -0.5266  2.9953
   63MOL   H20438768   6.037   1.773   3.607  0.5435  0.1365  1.5629
   63MOL   H20538769   5.955   1.876   3.500  1.0949  2.9219 -0.7945
   63MOL   H20638770   6.107   2.062   3.546 -1.3720 -1.1722 -1.5064
   63MOL   H20738771   6.181   1.974   3.673  1.4190  1.9271 -1.3373
   63MOL   H20838772   6.236   1.786   3.517  1.7620 -0.1582  0.9115
   63MOL   H20938773   6.203   1.870   3.385 -2.0438 -3.2620  0.8618
   63MOL   H21038774   6.414   1.970   3.579  2.2594  2.8378 -1.0756
   63MOL   H21138775   6.365   2.052   3.440  0.4666 -0.2292 -0.4735
   63MOL   H21238776   6.482   1.779   3.439 -1.6199 -1.0741 -0.3628
   63MOL   H21338777   6.415   1.845   3.289 -1.5881  0.3144  1.5658
   63MOL   H21438778   6.623   1.990   3.467  0.1714 -1.9497  0.5496
   63MOL   H21538779   6.602   2.005   3.291  0.2052  2.8875  2.2588
   63MOL   H21638780   6.678   1.860   3.363  0.0890 -0.1387 -2.6530
   63MOL   H21738781   5.744   1.477   3.889  2.2033 -0.5101 -0.0521
   63MOL   H21838782   5.623   1.426   3.774 -0.4201  0.6126  0.8707
   63MOL   C21938783   5.822   1.424   3.703 -0.8838 -0.1282  0.0901
   63MOL   O22038784   5.769   1.352   3.585 -0.3689  0.2432 -0.2373
   63MOL   C22138785   5.869   1.339   3.484 -0.8771 -0.5508  0.0742
   63MOL   C22238786   5.827   1.245   3.370  0.2203  0.0172  0.0802
   63MOL   C22338787   5.949   1.207   3.287 -0.7322 -0.4477  0.2164
   63MOL   C22438788   5.922   1.103   3.181 -0.1781  0.1860  0.2323
   63MOL   C22538789   6.019   1.097   3.072  0.5201  0.4060 -0.1096
   63MOL   C22638790   5.993   0.977   2.976  0.1821 -0.1954 -0.7084
   63MOL   C22738791   6.114   0.967   2.886 -0.7076  0.3280 -0.1207
   63MOL   C22838792   6.092   0.889   2.753 -1.1083 -0.1498 -0.4632
   63MOL   C22938793   5.908   1.333   3.791  0.2602 -0.1630 -0.3504
   63MOL   H23038794   5.872   1.515   3.671  0.2746 -0.7356  0.1615
   63MOL   H23138795   5.953   1.289   3.531  1.1957 -0.0847 -2.9803
   63MOL   H23238796   5.901   1.438   3.451 -1.8006 -0.2176  0.1493
   63MOL   H23338797   5.755   1.299   3.308  0.3894  0.3731  0.1928
   63MOL   H23438798   5.782   1.152   3.406  0.0928 -0.1159 -0.4217
   63MOL   H23538799   5.980   1.301   3.240 -3.4359  0.1961 -0.3681
   63MOL   H23638800   6.032   1.175   3.351 -0.6963  1.9193  1.4125
   63MOL   H23738801   5.916   1.004   3.228 -0.7034  0.1506  0.0974
   63MOL   H23838802   5.829   1.126   3.129 -1.2318 -1.8917  1.1181
   63MOL   H23938803   6.030   1.194   3.024  2.7543  0.1302 -0.2204
   63MOL   H24038804   6.117   1.089   3.120  1.3070  0.8735 -1.5951
   63MOL   H24138805   5.908   1.004   2.913  0.5870 -0.3621 -1.3182
   63MOL   H24238806   5.960   0.882   3.018  0.8436 -0.6204 -1.1613
   63MOL   H24338807   6.145   1.067   2.855 -0.3215  0.0538 -0.6310
   63MOL   H24438808   6.199   0.923   2.938 -0.3941  0.3711 -0.5914
   63MOL   H24538809   6.188   0.872   2.704 -0.4174  0.5647  0.6183
   63MOL   H24638810   6.020   0.947   2.695  0.8757  2.4840 -0.4019
   63MOL   H24738811   6.051   0.789   2.767 -1.6637  0.1075 -0.2281
   63MOL   H24838812   5.859   1.285   3.876  0.9609 -2.0006 -0.9465
   63MOL   H24938813   5.939   1.248   3.730  1.7947 -0.3016  0.5919
   63MOL   C25038814   6.036   1.399   3.834  0.4514 -0.5580  0.3738
   63MOL   O25138815   6.124   1.297   3.869  0.0101  0.5328  0.0196
   63MOL   C25238816   6.186   1.224   3.760 -0.3254  0.4298 -0.1680
   63MOL   C25338817   6.327   1.194   3.784 -0.0639  0.2546 -0.4040
   63MOL   C25438818   6.355   1.133   3.922  0.8631 -0.1542 -0.2198
   63MOL   C25538819   6.509   1.118   3.948  0.4610  0.7706  0.6340
   63MOL   C25638820   6.551   1.038   4.070  0.3249 -0.0412 -0.7706
   63MOL   C25738821   6.483   0.897   4.086 -0.2950  0.3374 -0.3430
   63MOL   C25838822   6.555   0.807   4.190  0.6094  0.4300  0.4283
   63MOL   C25938823   6.474   0.678   4.215 -0.4311  0.3844  0.2972
   63MOL   C26038824   6.019   1.492   3.953 -0.2925  0.1573  0.2044
   63MOL   H26138825   6.070   1.467   3.757  0.6378  1.6194  2.3172
   63MOL   H26238826   6.184   1.282   3.667  0.8813 -3.1357 -2.5105
   63MOL   H26338827   6.135   1.129   3.746  1.4437 -0.4751 -0.5968
   63MOL   H26438828   6.385   1.285   3.771 -1.1749  1.3401  1.9147
   63MOL   H26538829   6.351   1.127   3.702  1.6617  2.4411 -1.7578
   63MOL   H26638830   6.322   1.189   4.009  0.7651 -3.4553  1.9729
   63MOL   H26738831   6.302   1.038   3.929 -1.2318  0.9020 -1.2372
   63MOL   H26838832   6.547   1.064   3.861 -2.6464 -0.3610 -0.0983
   63MOL   H26938833   6.555   1.217   3.941  1.6594  0.2047  0.3175
   63MOL   H27038834   6.660   1.026   4.075  0.4715  1.9046  1.6100
   63MOL   H27138835   6.535   1.094   4.161 -0.5869 -0.8513 -0.4269
   63MOL   H27238836   6.493   0.846   3.990  0.1639 -1.0418  0.4176
   63MOL   H27338837   6.379   0.911   4.114 -0.2009 -0.9789  0.7034
   63MOL   H27438838   6.650   0.781   4.143  0.4512 -0.1410  0.4099
   63MOL   H27538839   6.567   0.857   4.286  2.4848  1.7079 -0.4378
   63MOL   H27638840   6.380   0.707   4.262 -0.4454 -0.0232  0.5246
   63MOL   H27738841   6.531   0.600   4.265 -0.8175 -0.9141 -1.2273
   63MOL   H27838842   6.453   0.652   4.111 -1.0435  1.1345  0.2271
   63MOL   H27938843   5.940   1.564   3.932 -0.0203  0.3560 -0.1423
   63MOL   H28038844   5.978   1.431   4.034 -1.0268  0.9484  0.4421
   63MOL   C28138845   6.148   1.571   3.988  0.1722  0.1845 -0.5115
   63MOL   O28238846   6.152   1.590   4.131 -0.6039 -0.2648  0.0222
   63MOL   C28338847   6.274   1.551   4.189  0.2670 -0.0865 -0.1394
   63MOL   C28438848   6.246   1.409   4.228 -0.4234  0.3755  0.6257
   63MOL   C28538849   6.362   1.322   4.275  0.7392 -0.9164 -0.3625
   63MOL   C28638850   6.322   1.181   4.320 -0.4915 -0.6338  0.0141
   63MOL   C28738851   6.402   1.122   4.433 -0.7939 -0.0394  0.9202
   63MOL   C28838852   6.352   0.980   4.483  0.1400 -0.6694 -0.3503
   63MOL   C28938853   6.450   0.923   4.587  0.6345 -0.4586 -0.2047
   63MOL   C29038854   6.417   0.780   4.628 -0.3514  0.3860 -0.1975
   63MOL   C29138855   6.152   1.710   3.916 -0.5824  0.1194  0.3484
   63MOL   H29238856   6.236   1.519   3.951  0.6220  0.7134 -0.2023
   63MOL   H29338857   6.284   1.601   4.286 -1.2276  0.8147 -0.4236
   63MOL   H29438858   6.360   1.574   4.127  0.1427 -0.3806 -0.4160
   63MOL   H29538859   6.198   1.351   4.149 -0.6202  1.5776 -0.1503
   63MOL   H29638860   6.167   1.412   4.302  0.3634 -1.7537  1.5983
   63MOL   H29738861   6.450   1.330   4.210  2.0083  1.5121  1.5549
   63MOL   H29838862   6.404   1.368   4.365  0.6042 -1.5085  0.0054
   63MOL   H29938863   6.221   1.192   4.358 -0.4385 -0.7891  0.2015
   63MOL   H30038864   6.321   1.116   4.233 -0.0002  3.4464 -3.2037
   63MOL   H30138865   6.503   1.110   4.394 -2.9459 -1.6054 -4.6469
   63MOL   H30238866   6.410   1.190   4.519 -0.2878  0.9475  0.1049
   63MOL   H30338867   6.346   0.917   4.394  1.3067 -0.8897 -0.2901
   63MOL   H30438868   6.252   0.995   4.523 -0.4296  1.6199 -2.4493
   63MOL   H30538869   6.554   0.948   4.565 -0.1041  1.7322 -1.3079
   63MOL   H30638870   6.426   0.988   4.671 -1.2686  0.1351 -1.1745
   63MOL   H30738871   6.417   0.701   4.552 -2.0075 -1.1186  1.2827
   63MOL   H30838872   6.323   0.773   4.684 -0.9996  2.6907 -0.9315
   63MOL   H30938873   6.492   0.749   4.701 -0.5219  1.7623  0.5635
   63MOL   H31038874   6.104   1.703   3.818  1.2108  3.6045 -0.8830
   63MOL   H31138875   6.089   1.778   3.973 -1.0617 -1.9362  2.3380
   63MOL   C31238876   6.301   1.756   3.908  0.3133 -0.1855 -0.2543
   63MOL   O31338877   6.306   1.894   3.866 -0.6030  0.4036  0.5888
   63MOL   C31438878   6.288   1.995   3.965 -0.5519  0.4788  0.1534
   63MOL   C31538879   6.317   2.130   3.914  0.6938 -0.5892 -0.0138
   63MOL   C31638880   6.367   2.228   4.018 -0.2306 -0.2546 -0.0899
   63MOL   C31738881   6.249   2.272   4.110  0.5601 -0.7998 -0.4280
   63MOL   C31838882   6.281   2.374   4.218  0.3474  0.0942 -0.1756
   63MOL   C31938883   6.161   2.401   4.309 -0.1788 -0.2606  0.1054
   63MOL   C32038884   6.184   2.521   4.397  0.0322  0.1678  0.2451
   63MOL   C32138885   6.082   2.538   4.511  0.2240  0.2561  0.4794
   63MOL   C32238886   6.388   1.703   3.798 -0.6122 -0.1990 -0.1279
   63MOL   H32338887   6.352   1.734   4.002 -1.4604 -0.6271  0.6458
   63MOL   H32438888   6.360   1.976   4.044  2.6145 -0.1121 -2.7486
   63MOL   H32538889   6.202   1.987   4.031 -0.5079  0.4410  0.2056
   63MOL   H32638890   6.243   2.183   3.853 -0.8373 -0.9567  1.4603
   63MOL   H32738891   6.404   2.125   3.850  0.1650  1.3602 -0.9068
   63MOL   H32838892   6.457   2.197   4.071 -0.6603 -2.2266 -0.4956
   63MOL   H32938893   6.399   2.324   3.976 -2.4553  0.6699  0.2461
   63MOL   H33038894   6.160   2.291   4.051  0.5176 -0.4492 -0.2516
   63MOL   H33138895   6.225   2.179   4.162  0.9004 -0.0108  1.1748
   63MOL   H33238896   6.350   2.313   4.276  1.0282  2.3809  1.4894
   63MOL   H33338897   6.332   2.458   4.172  1.9160 -0.7898 -0.0789
   63MOL   H33438898   6.134   2.314   4.368  2.4450 -1.1937  0.0205
   63MOL   H33538899   6.072   2.427   4.252 -2.4192 -1.2354  3.0874
   63MOL   H33638900   6.280   2.513   4.447 -0.4785 -2.7448  0.8325
   63MOL   H33738901   6.182   2.608   4.331 -1.1816 -0.5041 -0.6278
   63MOL   H33838902   6.108   2.488   4.604 -1.4325 -0.5067  0.5491
   63MOL   H33938903   5.976   2.527   4.485 -0.2925  2.7378  1.4917
   63MOL   H34038904   6.075   2.644   4.535 -0.4869  0.4415 -0.5139
   63MOL   H34138905   6.368   1.596   3.791  3.1163 -0.9639  0.0148
   63MOL   H34238906   6.359   1.749   3.703  0.7056  1.5310  0.3042
   63MOL   C34338907   6.548   1.729   3.821  0.9193  0.2493  0.1784
   63MOL   O34438908   6.575   1.864   3.804  0.4657  0.2597 -0.9657
   63MOL   C34538909   6.673   1.913   3.893 -0.0139 -0.2740 -0.9114
   63MOL   C34638910   6.724   2.054   3.844 -0.3450  0.1063  0.4272
   63MOL   C34738911   6.835   2.120   3.924 -0.6201  0.4760 -0.3154
   63MOL   C34838912   6.849   2.273   3.884  0.2908  0.3585 -0.4902
   63MOL   C34938913   6.978   2.340   3.951  0.2084 -0.5892  0.4407
   63MOL   C35038914   7.004   2.490   3.905 -0.5770  0.3606 -0.1739
   63MOL   C35138915   7.135   2.540   3.967  0.2148  0.0787 -0.3201
   63MOL   C35238916   7.152   2.685   3.926  0.3852 -0.0364 -0.6459
   63MOL   C35338917   6.646   1.663   3.718 -0.0392 -0.0693 -0.2623
   63MOL   H35438918   6.573   1.700   3.924  1.8278 -2.4362 -0.7574
   63MOL   H35538919   6.753   1.840   3.881  1.5026  1.3874 -1.1819
   63MOL   H35638920   6.639   1.914   3.997 -1.8821 -0.3652 -1.5016
   63MOL   H35738921   6.645   2.122   3.810 -0.5983 -1.1938 -1.6877
   63MOL   H35838922   6.764   2.031   3.745 -1.7830  0.6413 -0.2872
   63MOL   H35938923   6.832   2.117   4.033  1.9570  3.0311 -0.1031
   63MOL   H36038924   6.930   2.073   3.899  0.2952  2.2631 -0.2881
   63MOL   H36138925   6.844   2.295   3.777  0.1925  1.4488 -0.2655
   63MOL   H36238926   6.759   2.327   3.914  0.1876  0.1721 -0.4633
   63MOL   H36338927   6.979   2.330   4.059 -1.0570 -1.9108  0.3446
   63MOL   H36438928   7.062   2.283   3.912  1.4314  1.7826 -0.5029
   63MOL   H36538929   6.922   2.557   3.932  1.1678  2.3236  0.3502
   63MOL   H36638930   7.009   2.483   3.796  1.0027 -0.0498 -0.0819
   63MOL   H36738931   7.132   2.531   4.075  1.5124 -0.5761 -0.3313
   63MOL   H36838932   7.226   2.485   3.946  1.0058  0.1169  2.7765
   63MOL   H36938933   7.236   2.730   3.979 -0.5337  1.6809 -0.6053
   63MOL   H37038934   7.068   2.744   3.962  2.9829  2.4253  1.6613
   63MOL   H37138935   7.166   2.699   3.819  0.6767 -0.7623 -0.7072
   63MOL   H37238936   6.589   1.659   3.625 -0.9264  1.6426  0.1823
   63MOL   H37338937   6.732   1.727   3.699 -0.6626  0.4677 -1.3387
   63MOL   C37438938   6.700   1.526   3.759 -0.6043 -0.5784  0.2731
   63MOL   O37538939   6.761   1.552   3.884 -0.4707 -0.4784  0.2322
   63MOL   C37638940   6.717   1.478   4.000  0.0633 -0.0578 -0.0334
   63MOL   C37738941   6.738   1.562   4.125  1.2719 -0.5947  0.2263
   63MOL   C37838942   6.704   1.500   4.266 -0.0448 -0.3571 -0.5589
   63MOL   C37938943   6.768   1.353   4.273 -0.1889  0.2539 -0.1036
   63MOL   C38038944   6.919   1.337   4.280 -0.2741  0.7472  0.1604
   63MOL   C38138945   6.975   1.192   4.281  0.5443  0.0572  0.5356
   63MOL   C38238946   7.133   1.200   4.258  0.1129  0.0058 -0.3212
   63MOL   C38338947   7.218   1.285   4.358 -0.6682 -0.8576 -0.0977
   63MOL   C38438948   6.805   1.479   3.657 -0.3053  0.7737 -0.0923
   63MOL   H38538949   6.622   1.450   3.758 -1.1700 -0.0082  0.3887
   63MOL   H38638950   6.767   1.382   4.013 -1.8301 -0.8578  1.6042
   63MOL   H38738951   6.611   1.458   3.983  0.0626 -0.4156  0.3928
   63MOL   H38838952   6.695   1.662   4.115  1.7029 -0.2892  1.3350
   63MOL   H38938953   6.846   1.580   4.120  1.1169  1.1255  2.3406
   63MOL   H39038954   6.732   1.564   4.350  1.4851 -0.9669 -0.5862
   63MOL   H39138955   6.597   1.484   4.282  0.5579 -2.6939  1.5625
   63MOL   H39238956   6.725   1.304   4.361  0.6740  0.2644  0.3260
   63MOL   H39338957   6.740   1.284   4.193 -0.2924  0.0760  0.0847
   63MOL   H39438958   6.973   1.377   4.195 -0.7704  0.2812 -0.3792
   63MOL   H39538959   6.947   1.388   4.372 -3.1422  2.1650  0.3129
   63MOL   H39638960   6.929   1.126   4.208 -1.3244  3.2658 -1.2729
   63MOL   H39738961   6.959   1.152   4.382  1.3624  0.1978  0.7221
   63MOL   H39838962   7.170   1.098   4.271  0.3860  0.0899 -0.4335
   63MOL   H39938963   7.159   1.232   4.157  0.2622 -0.9559 -0.5974
   63MOL   H40038964   7.211   1.388   4.323  1.1040 -0.1496  1.5772
   63MOL   H40138965   7.324   1.260   4.350 -1.0127 -3.0354  1.7801
   63MOL   H40238966   7.179   1.291   4.459 -0.9702 -1.2017 -0.1948
   63MOL   H40338967   6.754   1.476   3.561 -1.0841 -1.4154  0.3644
   63MOL   H40438968   6.873   1.564   3.660  1.3802 -0.4951 -1.2190
   63MOL   C40538969   6.894   1.354   3.699  0.0880  0.2529 -0.0327
   63MOL   O40638970   6.995   1.328   3.595  0.0658  0.3310 -0.5644
   63MOL   C40738971   7.101   1.420   3.583  0.6028 -0.5450 -0.6100
   63MOL   C40838972   7.230   1.350   3.532 -0.3017  0.0472 -0.7800
   63MOL   C40938973   7.353   1.426   3.581  0.3891 -0.1280 -0.0888
   63MOL   C41038974   7.476   1.335   3.593 -0.4330  0.5022  0.1664
   63MOL   C41138975   7.599   1.417   3.639 -0.4560 -0.2547 -0.1334
   63MOL   C41238976   7.723   1.338   3.664 -0.3664 -0.3958 -0.2482
   63MOL   C41338977   0.075   1.418   3.695  0.4299 -0.2959  0.4399
   63MOL   C41438978   0.206   1.340   3.710  0.6416  0.1001 -0.2636
   63MOL   C41538979   6.813   1.222   3.721  0.5990 -0.3768  0.0526
   63MOL   H41638980   6.943   1.391   3.789  0.1381  1.1922 -0.4405
   63MOL   H41738981   7.125   1.448   3.685 -1.8744 -1.5464  0.2757
   63MOL   H41838982   7.076   1.508   3.524 -0.0374  0.2750  0.8741
   63MOL   H41938983   7.224   1.348   3.423  0.8892  1.6890 -0.8959
   63MOL   H42038984   7.229   1.247   3.567  2.1227 -0.2331 -1.3978
   63MOL   H42138985   7.372   1.521   3.531  3.0335 -0.0659  0.9622
   63MOL   H42238986   7.331   1.462   3.681  2.3478 -0.0428  0.3245
   63MOL   H42338987   7.464   1.253   3.664 -1.9613 -0.4188 -1.1062
   63MOL   H42438988   7.491   1.290   3.494 -3.0230 -0.6610  0.2550
   63MOL   H42538989   7.619   1.502   3.573 -2.5859  0.0518 -0.4393
   63MOL   H42638990   7.570   1.477   3.725  0.6281  2.3078 -1.4986
   63MOL   H42738991   7.739   1.283   3.571 -0.6149 -1.7624  0.5114
   63MOL   H42838992   7.700   1.256   3.732  1.5750 -1.3985 -0.7473
   63MOL   H42938993   0.082   1.503   3.627 -1.3962  2.2810  3.3242
   63MOL   H43038994   0.048   1.455   3.794  0.7694 -0.8657  0.7434
   63MOL   H43138995   0.194   1.237   3.676 -0.7686 -0.1857  1.0296
   63MOL   H43238996   0.231   1.328   3.815  0.0306  1.3296  0.0318
   63MOL   H43338997   0.281   1.404   3.663 -0.9626  2.3115  0.1060
   63MOL   H43438998   6.737   1.255   3.793  1.4626  1.9741 -0.0594
   63MOL   H43538999   6.766   1.201   3.625 -0.8104  2.9676 -0.0891
   63MOL   C43639000   6.888   1.100   3.765 -0.2990 -0.3218  0.1491
   63MOL   O43739001   6.795   0.996   3.781 -0.3219  0.2052  0.6934
   63MOL   C43839002   6.784   0.907   3.679  0.5448 -0.4476  0.0158
   63MOL   C43939003   6.699   0.784   3.726  0.0107  0.2081  0.2626
   63MOL   C44039004   6.768   0.713   3.836  0.2468  0.3069  0.2335
   63MOL   C44139005   6.690   0.590   3.891 -0.2018  0.3884  0.7919
   63MOL   C44239006   6.768   0.545   4.017 -0.5220 -0.2123 -0.5823
   63MOL   C44339007   6.706   0.422   4.087 -0.4871  0.8478  0.7483
   63MOL   C44439008   6.791   0.359   4.199  0.4150 -0.5171 -0.2225
   63MOL   C44539009   6.725   0.229   4.246  0.3281 -0.5857 -0.5021
   63MOL   C44639010   6.968   1.118   3.897 -1.0479  0.0874  0.7889
   63MOL   H44739011   6.969   1.078   3.696 -1.6365  0.3540 -1.6954
   63MOL   H44839012   6.740   0.934   3.583  2.5763  0.2737 -0.7334
   63MOL   H44939013   6.886   0.881   3.652 -0.9901 -0.9715 -5.8846
   63MOL   H45039014   6.676   0.718   3.643 -1.9747  1.2571 -0.0530
   63MOL   H45139015   6.600   0.809   3.763 -0.4083 -0.3138 -0.5080
   63MOL   H45239016   6.866   0.678   3.803  0.5445  0.2301  1.1660
   63MOL   H45339017   6.790   0.781   3.918  0.3375 -0.6314  0.9979
   63MOL   H45439018   6.593   0.628   3.925 -1.0173  0.5468 -1.6204
   63MOL   H45539019   6.683   0.510   3.818  3.1603 -1.3988  2.3338
   63MOL   H45639020   6.867   0.512   3.985 -0.0943  0.7598 -0.2729
   63MOL   H45739021   6.792   0.616   4.096 -0.9624  1.0272 -1.5403
   63MOL   H45839022   6.699   0.346   4.009  2.4440  1.7480 -0.4838
   63MOL   H45939023   6.599   0.427   4.107 -1.0080 -3.2043 -0.4823
   63MOL   H46039024   6.892   0.326   4.177  1.1403  0.1937  1.8652
   63MOL   H46139025   6.788   0.419   4.290 -0.5711  0.1030 -0.6518
   63MOL   H46239026   6.624   0.243   4.284  0.2775  1.7784 -1.4142
   63MOL   H46339027   6.798   0.183   4.313  0.0065  0.1293  0.3692
   63MOL   H46439028   6.710   0.162   4.162 -0.7233 -0.6463 -0.2733
   63MOL   H46539029   7.028   1.207   3.877 -1.5736 -0.0734 -1.6829
   63MOL   H46639030   6.887   1.135   3.967 -0.7451  0.3530  1.0782
   63MOL   C46739031   7.056   0.988   3.924  0.1933 -0.1867  0.7040
   63MOL   O46839032   7.067   0.957   4.061 -0.1025  0.1186  0.2548
   63MOL   C46939033   6.968   0.869   4.112 -0.1938 -0.3317  0.4459
   63MOL   C47039034   7.006   0.839   4.259  0.3087  0.5067 -0.3300
   63MOL   C47139035   6.908   0.767   4.344  0.9503 -0.1925  0.0138
   63MOL   C47239036   6.923   0.795   4.493 -0.5395 -0.2187 -0.4522
   63MOL   C47339037   6.844   0.688   4.579  0.2847  0.3818 -0.7126
   63MOL   C47439038   6.840   0.736   4.721 -0.0032 -0.4046  0.5381
   63MOL   C47539039   6.788   0.631   4.810  0.8403  0.3808  0.0385
   63MOL   C47639040   6.886   0.514   4.835  0.6605  0.2179  0.5705
   63MOL   C47739041   7.201   1.003   3.881 -0.6415 -0.0860  0.4700
   63MOL   H47839042   7.009   0.905   3.872 -0.7027  0.7116  0.0360
   63MOL   H47939043   6.961   0.773   4.062  0.3119  0.7697 -1.7976
   63MOL   H48039044   6.870   0.918   4.113 -0.1309 -0.1685  3.4391
   63MOL   H48139045   7.023   0.934   4.308  2.1414  0.3893 -0.6906
   63MOL   H48239046   7.104   0.792   4.267  0.8750  1.8842  0.9661
   63MOL   H48339047   6.813   0.814   4.316  1.2410 -0.0491 -0.7506
   63MOL   H48439048   6.901   0.665   4.308  0.4272 -0.0051 -0.4328
   63MOL   H48539049   7.031   0.793   4.508 -0.5488 -0.5593 -0.4254
   63MOL   H48639050   6.896   0.898   4.515 -0.7032 -0.4548  0.4584
   63MOL   H48739051   6.742   0.677   4.543 -0.7638  1.3750  1.8490
   63MOL   H48839052   6.901   0.595   4.570  0.9106  0.6891  0.0002
   63MOL   H48939053   6.785   0.829   4.735 -0.6464  0.0361 -4.2234
   63MOL   H49039054   6.937   0.766   4.760  0.0437  0.5207 -0.2908
   63MOL   H49139055   6.757   0.679   4.902 -0.7183 -0.1262 -0.2082
   63MOL   H49239056   6.693   0.597   4.770  0.7125  1.1065 -0.2821
   63MOL   H49339057   6.929   0.468   4.746 -0.2143 -0.7630  0.6497
   63MOL   H49439058   6.848   0.433   4.897  2.7750 -1.0044  0.3238
   63MOL   H49539059   6.966   0.563   4.891  0.2208  1.1950  0.3600
   63MOL   H49639060   7.187   1.041   3.780  0.9470 -1.2884 -0.2190
   63MOL   H49739061   7.250   1.081   3.939  1.5128 -1.2450  0.2537
   63MOL   C49839062   7.286   0.875   3.855 -0.1946 -0.8754  0.7450
   63MOL   O49939063   7.223   0.792   3.756  0.2246  0.3650  0.0824
   63MOL   C50039064   7.307   0.733   3.667  0.3677  1.1209 -0.4146
   63MOL   C50139065   7.227   0.636   3.574 -0.0857 -0.5961  0.3923
   63MOL   C50239066   7.104   0.704   3.506 -0.5691 -0.1163 -0.2726
   63MOL   C50339067   7.133   0.842   3.443 -0.8553  0.4595 -1.0846
   63MOL   C50439068   7.036   0.878   3.321 -0.2797  0.0349 -0.8616
   63MOL   C50539069   7.048   1.023   3.269 -0.5183  0.6401 -0.7278
   63MOL   C50639070   6.942   1.060   3.161 -0.3551  0.1500  0.7382
   63MOL   C50739071   6.936   1.207   3.130  0.5076 -0.0732  0.7779
   63MOL   C50839072   7.308   0.802   3.989 -0.4591  0.1304  0.2031
   63MOL   H50939073   7.386   0.901   3.818 -0.1831 -0.6384  0.9401
   63MOL   H51039074   7.385   0.677   3.720 -0.5730 -0.3812 -0.5864
   63MOL   H51139075   7.364   0.807   3.611  0.7430  1.2347  0.1106
   63MOL   H51239076   7.198   0.548   3.630  0.4386  0.1690  1.8863
   63MOL   H51339077   7.298   0.600   3.498 -0.7092 -0.5213 -0.2283
   63MOL   H51439078   7.072   0.628   3.434  0.5642 -0.7253 -0.1552
   63MOL   H51539079   7.020   0.708   3.575 -0.2385  0.4576  0.0952
   63MOL   H51639080   7.130   0.917   3.522  1.6903  0.4848 -0.9777
   63MOL   H51739081   7.233   0.844   3.400 -0.5975  2.0666 -0.4431
   63MOL   H51839082   7.043   0.799   3.246  2.5913  0.0400 -0.6601
   63MOL   H51939083   6.935   0.861   3.359 -0.2403 -0.8080 -1.1179
   63MOL   H52039084   7.143   1.031   3.216  1.0365 -0.2453  1.7864
   63MOL   H52139085   7.048   1.096   3.350  2.0254 -0.2940  0.2074
   63MOL   H52239086   6.948   0.998   3.071 -1.9065 -2.6977  2.5096
   63MOL   H52339087   6.839   1.035   3.187 -0.8242 -0.7729 -1.8963
   63MOL   H52439088   7.020   1.234   3.066  0.3462 -2.2406 -0.3705
   63MOL   H52539089   6.940   1.259   3.226 -0.8753 -0.4912  1.0693
   63MOL   H52639090   6.844   1.226   3.075  2.5736  1.7855 -2.1889
   63MOL   H52739091   7.212   0.775   4.032 -0.7341 -0.0534 -0.5205
   63MOL   H52839092   7.362   0.710   3.969  0.2432  0.8710 -1.4001
   63MOL   C52939093   7.388   0.884   4.089 -0.4209 -0.6797 -0.2668
   63MOL   O53039094   7.511   0.912   4.034  0.4004  0.3915  0.1976
   63MOL   C53139095   7.541   1.054   4.020 -0.1671 -0.3452  0.5155
   63MOL   C53239096   7.682   1.058   3.967 -0.0382 -0.2471 -0.0019
   63MOL   C53339097   0.022   1.031   4.060  0.1968 -0.1458 -0.3093
   63MOL   C53439098   0.155   1.017   3.981 -0.5333  0.2202  0.0693
   63MOL   C53539099   0.287   1.037   4.059  0.2132  0.4381 -0.1925
   63MOL   C53639100   0.294   0.921   4.158  0.3449  0.6148 -0.0445
   63MOL   C53739101   0.391   0.929   4.275  0.2775 -0.7835 -0.6101
   63MOL   C53839102   0.535   0.950   4.243 -0.3847 -0.0124  0.2888
   63MOL   C53939103   7.418   0.803   4.218 -0.5175  0.3954 -0.5474
   63MOL   H54039104   7.323   0.968   4.113  0.0129 -0.1883 -0.8082
   63MOL   H54139105   7.477   1.086   3.938  1.5548 -2.1997 -1.6231
   63MOL   H54239106   7.521   1.114   4.109 -2.9598  1.4384 -1.2336
   63MOL   H54339107   7.694   1.162   3.936  1.5198 -0.7641 -1.2185
   63MOL   H54439108   7.688   1.000   3.875 -1.2520 -1.0433  0.4143
   63MOL   H54539109   0.031   1.113   4.131 -0.7914  0.0806 -0.4381
   63MOL   H54639110   7.766   0.937   4.106 -0.1272 -0.2650 -0.7668
   63MOL   H54739111   0.151   0.922   3.928 -2.2468 -0.1925  0.9097
   63MOL   H54839112   0.162   1.091   3.902  2.0472  0.5291  0.5333
   63MOL   H54939113   0.371   1.030   3.991  0.7808 -0.4570  0.5892
   63MOL   H55039114   0.298   1.136   4.102 -1.2673  0.0181  1.2224
   63MOL   H55139115   0.320   0.831   4.100 -1.2448 -0.1310  0.3916
   63MOL   H55239116   0.196   0.897   4.197 -0.0976  1.0579 -0.8807
   63MOL   H55339117   0.363   1.004   4.349  0.1231 -2.1829  0.7778
   63MOL   H55439118   0.376   0.835   4.328  0.5075 -0.2696  0.3859
   63MOL   H55539119   0.552   1.057   4.232 -0.1399  0.0966  1.6170
   63MOL   H55639120   0.556   0.898   4.150  1.8286  0.0119  0.7381
   63MOL   H55739121   0.604   0.915   4.320  0.7264 -0.5855 -0.9481
   63MOL   H55839122   7.333   0.761   4.273 -0.3845  0.3460 -0.3783
   63MOL   H55939123   7.471   0.711   4.193 -0.9586  0.0254 -0.1455
   63MOL   C56039124   7.514   0.878   4.318 -0.2913 -0.4352  0.5019
   63MOL   O56139125   7.583   0.787   4.395  0.4376  0.1955  0.3987
   63MOL   C56239126   7.714   0.755   4.335  0.3839  0.2634 -0.7763
   63MOL   C56339127   0.016   0.669   4.436  0.0968  0.7504 -0.3160
   63MOL   C56439128   0.049   0.728   4.571 -0.5453 -0.1308 -0.3307
   63MOL   C56539129   7.725   0.691   4.676  0.3043  0.4243 -0.4106
   63MOL   C56639130   7.766   0.726   4.818  0.0276  0.8180 -0.2027
   63MOL   C56739131   0.069   0.610   4.877  0.1092 -0.2041  0.1833
   63MOL   C56839132   0.081   0.626   5.030 -0.2246  0.9652 -0.0568
   63MOL   C56939133   0.178   0.518   5.084 -0.2919  0.5472  0.1514
   63MOL   C57039134   7.442   0.976   4.412  0.5754 -0.0366  0.4123
   63MOL   H57139135   7.592   0.934   4.266 -1.3006  0.5558  0.0320
   63MOL   H57239136   0.004   0.843   4.332  2.8467 -1.3308  1.7942
   63MOL   H57339137   7.713   0.716   4.233  0.9249 -1.0301 -0.3078
   63MOL   H57439138   0.108   0.643   4.384 -0.1322  1.7413 -1.2243
   63MOL   H57539139   7.739   0.574   4.447  0.7566  0.4820  0.5414
   63MOL   H57639140   0.145   0.693   4.610  0.1743  2.2081  0.0998
   63MOL   H57739141   0.071   0.834   4.583  0.0041 -0.4062  1.1816
   63MOL   H57839142   7.637   0.743   4.640  1.8133  1.8909 -2.1145
   63MOL   H57939143   7.692   0.588   4.686  1.8999  0.0587  1.3189
   63MOL   H58039144   0.052   0.816   4.815  0.5714  0.4956  0.8882
   63MOL   H58139145   7.680   0.737   4.884 -0.8916 -0.6747 -1.1151
   63MOL   H58239146   0.166   0.584   4.834 -0.6409 -0.9741 -1.0909
   63MOL   H58339147   0.008   0.520   4.866 -1.1796  0.7296 -0.3748
   63MOL   H58439148   0.122   0.724   5.056  0.4501  0.8092 -0.5253
   63MOL   H58539149   7.756   0.623   5.076 -0.8395 -0.1964 -1.4236
   63MOL   H58639150   0.270   0.524   5.026  0.6548 -1.1100  1.4403
   63MOL   H58739151   0.132   0.420   5.071  1.2959 -0.4017  1.4902
   63MOL   H58839152   0.199   0.523   5.190  1.6330  2.6788 -0.3032
   63MOL   H58939153   7.390   1.060   4.365 -0.9578 -1.0132  0.3385
   63MOL   H59039154   7.355   0.930   4.460 -1.4821  1.1989 -2.0118
   63MOL   C59139155   7.534   1.039   4.514 -0.6055 -0.2316  0.4895
   63MOL   O59239156   7.466   1.072   4.635  0.0651  0.0249 -0.1334
   63MOL   C59339157   7.449   0.964   4.728  0.0894  0.3943  0.2293
   63MOL   C59439158   7.338   1.005   4.824  0.3259 -0.4131  0.2224
   63MOL   C59539159   7.213   1.071   4.754  0.8756  0.0714 -0.0635
   63MOL   C59639160   7.083   1.066   4.826  0.6439 -0.1015  0.7573
   63MOL   C59739161   6.957   1.127   4.762  0.5158  0.2517  0.2466
   63MOL   C59839162   6.821   1.124   4.836 -0.2285 -0.7746  0.5797
   63MOL   C59939163   6.703   1.188   4.762 -0.3617  0.6688  0.3663
   63MOL   C60039164   6.575   1.169   4.836 -0.1342 -0.1164  0.0479
   63MOL   C60139165   7.605   1.171   4.471 -0.0369 -0.2874 -0.3298
   63MOL   H60239166   7.618   0.969   4.526 -0.8391 -0.3250  1.6024
   63MOL   H60339167   7.546   0.938   4.770  0.1735 -0.5368 -0.5341
   63MOL   H60439168   7.414   0.876   4.673  1.8264 -1.1523  1.5243
   63MOL   H60539169   7.372   1.064   4.909  0.9863  1.9621 -1.6176
   63MOL   H60639170   7.297   0.909   4.855 -1.1513  0.0262 -0.2987
   63MOL   H60739171   7.222   1.174   4.722 -0.0390  0.3504  0.5544
   63MOL   H60839172   7.196   1.021   4.659 -1.0392 -1.3399  0.9745
   63MOL   H60939173   7.053   0.961   4.830 -1.4824  0.5010  1.0619
   63MOL   H61039174   7.085   1.104   4.928  1.9638 -0.5317  0.9056
   63MOL   H61139175   6.979   1.232   4.746  0.9348  0.0584 -0.4626
   63MOL   H61239176   6.952   1.080   4.664 -1.0890 -2.2936  1.4811
   63MOL   H61339177   6.847   1.145   4.939 -1.4652  1.9121  0.4005
   63MOL   H61439178   6.773   1.027   4.850  0.1286 -1.0031  0.2172
   63MOL   H61539179   6.715   1.294   4.738  0.2554 -0.4427 -5.0851
   63MOL   H61639180   6.703   1.143   4.662  1.8411  0.1996  0.5488
   63MOL   H61739181   6.590   1.195   4.941  0.0100 -1.9541  0.5044
   63MOL   H61839182   6.550   1.063   4.838 -0.6391  0.0147  2.2317
   63MOL   H61939183   6.485   1.219   4.801 -1.7106 -2.8734  0.0305
   63MOL   H62039184   7.534   1.240   4.424  1.1233  1.2602  0.1423
   63MOL   H62139185   7.634   1.228   4.559 -3.0514  0.3259  0.3405
   63MOL   H62239186   7.691   1.169   4.404 -1.2419 -0.1229 -1.9072
   64MOL     C139187   4.315   1.752   4.839 -0.9065 -0.5746  0.2138
   64MOL     O239188   4.189   1.814   4.843 -0.2046  0.1166  0.1546
   64MOL     C339189   4.172   1.916   4.746  0.5961  0.5784 -0.2828
   64MOL     C439190   4.034   1.980   4.776 -0.4862  0.4588  0.2028
   64MOL     C539191   3.921   1.876   4.762 -0.8295  0.1942 -0.2531
   64MOL     C639192   3.784   1.937   4.729  0.1284 -1.0092 -0.0950
   64MOL     C739193   3.682   1.826   4.714  0.0849 -0.0817 -0.1525
   64MOL     C839194   3.541   1.872   4.657  0.0368 -0.1667 -0.2031
   64MOL     C939195   3.427   1.765   4.650  0.2641  0.3093  0.0024
   64MOL    C1039196   3.404   1.701   4.789 -0.2054 -0.0335 -0.4287
   64MOL    C1139197   4.322   1.654   4.956  0.6214 -0.5670 -0.0455
   64MOL    H1239198   4.343   1.706   4.745 -0.4949 -2.1718  1.1034
   64MOL    H1339199   4.168   1.857   4.655  0.5290 -0.7564  0.5685
   64MOL    H1439200   4.249   1.992   4.754  0.4063  0.5998  1.7029
   64MOL    H1539201   4.021   2.064   4.708 -0.3216  0.5924  0.3358
   64MOL    H1639202   4.032   2.020   4.878  1.5558  0.0506  0.4139
   64MOL    H1739203   3.932   1.813   4.674  4.7068 -1.7954  1.6059
   64MOL    H1839204   3.925   1.808   4.848 -0.4645  0.9547  0.3333
   64MOL    H1939205   3.761   2.004   4.813 -1.4580  1.5818 -2.5141
   64MOL    H2039206   3.788   1.990   4.634  1.9245  2.8883  2.0393
   64MOL    H2139207   3.716   1.743   4.653  0.4788  1.3924 -1.9919
   64MOL    H2239208   3.656   1.786   4.811 -0.9007  1.5685  0.2890
   64MOL    H2339209   3.556   1.907   4.555  1.6425  1.3596  0.5188
   64MOL    H2439210   3.506   1.968   4.696 -2.6676 -0.7118 -1.1825
   64MOL    H2539211   3.341   1.810   4.600  0.3000  0.1714 -0.1829
   64MOL    H2639212   3.453   1.686   4.580 -1.3360 -0.7969  0.6296
   64MOL    H2739213   3.322   1.634   4.763 -0.6403  0.0140  0.8102
   64MOL    H2839214   3.370   1.761   4.873 -1.2912 -0.0470 -0.8572
   64MOL    H2939215   3.489   1.644   4.828 -0.0565  0.0745 -0.5914
   64MOL    H3039216   4.323   1.717   5.046 -1.6649  1.8050 -1.6066
   64MOL    H3139217   4.233   1.591   4.953  0.8170 -0.7558 -2.0154
   64MOL    H3239218   4.396   1.825   4.849 -1.4724  0.4000 -2.1591
   64MOL    C3339219   4.438   1.558   4.972  0.3517  0.5166 -0.6029
   64MOL    O3439220   4.418   1.504   5.104 -0.3420  0.2235 -0.7683
   64MOL    C3539221   4.407   1.360   5.090 -0.1599  0.5757 -0.0508
   64MOL    C3639222   4.386   1.306   5.234  0.0733 -0.1088  0.8598
   64MOL    C3739223   4.513   1.254   5.305 -0.0288  0.7491 -0.1078
   64MOL    C3839224   4.615   1.366   5.321  0.1188 -0.3010 -0.5340
   64MOL    C3939225   4.729   1.319   5.420  0.0006  0.9322  0.4010
   64MOL    C4039226   4.815   1.433   5.472  0.2077  0.0096 -0.2584
   64MOL    C4139227   4.921   1.385   5.579 -0.0740 -0.4990 -0.5297
   64MOL    C4239228   4.982   1.507   5.652  0.4651 -0.1860 -0.2404
   64MOL    C4339229   4.584   1.608   4.974 -0.8213  0.4541  0.7329
   64MOL    H4439230   4.432   1.486   4.891  0.9547  0.6162 -0.7346
   64MOL    H4539231   4.499   1.325   5.044  0.0779  1.5906 -0.3625
   64MOL    H4639232   4.324   1.336   5.023 -0.8585  0.0599  0.9817
   64MOL    H4739233   4.304   1.234   5.226 -0.3042  0.4026  0.1042
   64MOL    H4839234   4.339   1.377   5.302 -0.4842 -1.8771  2.3840
   64MOL    H4939235   4.495   1.204   5.400  0.5420  0.4454 -0.1583
   64MOL    H5039236   4.561   1.173   5.250 -1.2956 -1.4549  1.9237
   64MOL    H5139237   4.652   1.400   5.224 -1.3422  0.1069 -0.9519
   64MOL    H5239238   4.565   1.450   5.368  3.7737  0.9308  1.3742
   64MOL    H5339239   4.676   1.285   5.509  1.1024  1.6117  1.3272
   64MOL    H5439240   4.797   1.248   5.373 -1.3625  0.6150 -1.1117
   64MOL    H5539241   4.759   1.512   5.522  0.9363 -0.5738  1.5174
   64MOL    H5639242   4.875   1.481   5.395  0.9214  0.7991  0.7792
   64MOL    H5739243   4.873   1.319   5.652  0.6857 -0.8042 -0.3095
   64MOL    H5839244   5.011   1.331   5.549  0.8360  0.7334 -0.0093
   64MOL    H5939245   5.081   1.479   5.688 -0.9810 -1.8836  2.6111
   64MOL    H6039246   4.923   1.533   5.740  2.5342  1.3919  0.7219
   64MOL    H6139247   4.992   1.594   5.587 -1.5838 -1.3681 -2.2082
   64MOL    H6239248   4.595   1.707   5.018  1.5122  0.7658 -0.4689
   64MOL    H6339249   4.634   1.541   5.044  0.4254  0.0271 -0.5423
   64MOL    C6439250   4.671   1.592   4.846  0.5378  0.0697 -0.1045
   64MOL    O6539251   4.691   1.453   4.829 -0.3833  0.8363  0.3071
   64MOL    C6639252   4.715   1.424   4.691 -0.3470 -0.3178 -0.1767
   64MOL    C6739253   4.772   1.279   4.677 -0.0428  0.3458 -0.1318
   64MOL    C6839254   4.918   1.266   4.729  0.1181 -0.3284  0.1252
   64MOL    C6939255   4.973   1.125   4.740 -0.0938  0.2101 -0.2978
   64MOL    C7039256   4.969   1.042   4.607  0.8478  0.4728  0.0782
   64MOL    C7139257   5.033   0.907   4.623  0.3721  0.3810 -0.0781
   64MOL    C7239258   5.063   0.834   4.496  0.2664  0.1221  0.0604
   64MOL    C7339259   5.169   0.715   4.511 -0.0845  0.0564  0.5074
   64MOL    C7439260   4.809   1.650   4.872  0.0695  1.2033 -0.5117
   64MOL    H7539261   4.635   1.640   4.755  0.0152  2.2690  1.2197
   64MOL    H7639262   4.785   1.489   4.639 -0.1982  1.1232  1.7827
   64MOL    H7739263   4.625   1.432   4.630 -0.3184  2.0306  0.0635
   64MOL    H7839264   4.774   1.254   4.571 -0.9930  0.3655 -0.1554
   64MOL    H7939265   4.705   1.217   4.736  1.5396 -1.9042 -0.6655
   64MOL    H8039266   4.982   1.329   4.667  2.3962  0.2870  2.9989
   64MOL    H8139267   4.924   1.302   4.832 -0.9473  0.3629 -0.0585
   64MOL    H8239268   5.078   1.137   4.765 -0.2632  0.9778  0.0683
   64MOL    H8339269   4.926   1.061   4.815  3.6221 -2.0675  0.2300
   64MOL    H8439270   4.867   1.023   4.573  1.0810  1.0317 -0.9522
   64MOL    H8539271   5.023   1.098   4.531 -0.4398 -0.7761 -1.8271
   64MOL    H8639272   4.966   0.844   4.681  1.2433 -0.2167  0.2907
   64MOL    H8739273   5.116   0.923   4.692 -0.1953  0.1928  0.6566
   64MOL    H8839274   4.966   0.791   4.470 -0.3546  1.0187  0.8497
   64MOL    H8939275   5.089   0.903   4.416  0.3153 -1.1127 -1.0014
   64MOL    H9039276   5.181   0.664   4.415 -1.7244  1.1386 -0.2969
   64MOL    H9139277   5.128   0.644   4.582 -0.5022 -0.9339 -0.7125
   64MOL    H9239278   5.267   0.745   4.547 -0.5568 -1.1101  2.8178
   64MOL    H9339279   4.850   1.596   4.958  2.7208  1.9567 -1.2555
   64MOL    H9439280   4.876   1.620   4.792  0.7525 -2.1114  1.2321
   64MOL    C9539281   4.825   1.802   4.910 -0.2420 -0.4447 -0.2469
   64MOL    O9639282   4.783   1.871   4.794  0.2672 -0.1459 -0.3781
   64MOL    C9739283   4.704   1.988   4.810  0.8352 -0.1754 -0.4240
   64MOL    C9839284   4.654   2.018   4.667  0.2580 -0.3484 -0.4011
   64MOL    C9939285   4.548   2.132   4.657 -0.0512 -0.0379  0.1426
   64MOL   C10039286   4.479   2.124   4.512  0.6261  0.7376  0.0304
   64MOL   C10139287   4.397   2.242   4.468 -0.1781  0.1956  0.1023
   64MOL   C10239288   4.356   2.239   4.324  0.2994 -0.2536 -0.0918
   64MOL   C10339289   4.277   2.368   4.270 -0.7381  0.2994 -0.1918
   64MOL   C10439290   4.368   2.491   4.266  0.2140  0.2532 -0.6373
   64MOL   C10539291   4.971   1.842   4.942 -0.5828 -0.1328  0.2345
   64MOL   H10639292   4.753   1.824   4.989 -1.7675  2.9840 -2.4201
   64MOL   H10739293   4.764   2.067   4.855  1.3916 -1.2743  0.7987
   64MOL   H10839294   4.621   1.972   4.879 -0.0787 -1.7977 -1.8608
   64MOL   H10939295   4.604   1.928   4.631 -2.4196  0.6941  0.5572
   64MOL   H11039296   4.730   2.038   4.591 -0.6234 -2.0548 -1.7533
   64MOL   H11139297   4.473   2.118   4.736 -1.8020 -0.4737 -1.5539
   64MOL   H11239298   4.595   2.230   4.661  1.0683 -0.5140 -1.0951
   64MOL   H11339299   4.556   2.100   4.440 -0.0074 -1.0594 -0.0827
   64MOL   H11439300   4.423   2.031   4.514  2.9225 -0.6513  1.9626
   64MOL   H11539301   4.304   2.249   4.525  0.0190 -0.9955  0.5724
   64MOL   H11639302   4.453   2.335   4.484 -1.5443  1.5545 -2.6889
   64MOL   H11739303   4.291   2.158   4.291  0.6062 -0.4119 -0.3123
   64MOL   H11839304   4.448   2.222   4.267  0.3916  1.6119 -0.5514
   64MOL   H11939305   4.224   2.348   4.177 -1.7630 -0.8884  0.6295
   64MOL   H12039306   4.191   2.397   4.331 -0.2418  1.1866  0.0994
   64MOL   H12139307   4.405   2.529   4.361 -1.6998 -0.4165  0.4021
   64MOL   H12239308   4.305   2.571   4.226 -0.1832  0.0941 -0.3346
   64MOL   H12339309   4.447   2.485   4.192  0.8886 -3.4526  0.2951
   64MOL   H12439310   5.034   1.813   4.857 -1.8015 -0.2467 -0.6439
   64MOL   H12539311   4.966   1.950   4.955 -0.3441  0.3526 -3.0649
   64MOL   C12639312   5.027   1.779   5.078 -0.0789  0.2179 -0.6980
   64MOL   O12739313   4.934   1.814   5.175  0.3705  0.7954 -0.5188
   64MOL   C12839314   4.901   1.724   5.279 -0.0880  0.3597 -0.3520
   64MOL   C12939315   4.795   1.787   5.372  0.4899  0.1134 -0.2029
   64MOL   C13039316   4.655   1.792   5.299  0.3127  0.7751  0.3991
   64MOL   C13139317   4.543   1.820   5.398  0.1611 -0.1562 -0.1794
   64MOL   C13239318   4.411   1.849   5.326  0.3412 -1.0426  0.5379
   64MOL   C13339319   4.291   1.845   5.421  0.2491  0.3125  0.4652
   64MOL   C13439320   4.155   1.872   5.366 -0.0066 -0.1574 -0.0664
   64MOL   C13539321   4.111   1.769   5.253  0.0541  0.2745  0.1030
   64MOL   C13639322   5.167   1.836   5.118  0.3401  0.3402  0.2748
   64MOL   H13739323   5.021   1.671   5.075  0.0809  0.2227 -1.5588
   64MOL   H13839324   4.991   1.686   5.326 -1.7099 -0.7495  1.9424
   64MOL   H13939325   4.855   1.636   5.234 -1.1520  0.4207  0.6196
   64MOL   H14039326   4.817   1.891   5.397  0.8200 -0.3637  1.6116
   64MOL   H14139327   4.790   1.746   5.474 -1.8308  1.2700  0.1815
   64MOL   H14239328   4.655   1.866   5.219  4.1913  0.0513 -0.3551
   64MOL   H14339329   4.619   1.698   5.258  0.5214  0.2107  1.4958
   64MOL   H14439330   4.523   1.745   5.475 -0.6267  0.8780  0.6305
   64MOL   H14539331   4.565   1.907   5.459 -1.8762  0.4377 -0.2823
   64MOL   H14639332   4.420   1.945   5.276 -1.1177 -0.9032  0.5389
   64MOL   H14739333   4.389   1.770   5.254 -3.3712  0.0647  0.3634
   64MOL   H14839334   4.316   1.897   5.513 -1.7952 -0.7658  1.6646
   64MOL   H14939335   4.285   1.741   5.453  2.2766 -0.4738 -1.6123
   64MOL   H15039336   4.087   1.862   5.451 -1.0660 -0.0642 -0.8834
   64MOL   H15139337   4.152   1.974   5.327  0.9674  0.1491  0.6408
   64MOL   H15239338   4.004   1.750   5.247 -0.2353  1.7500  0.3763
   64MOL   H15339339   4.166   1.677   5.268 -0.9645 -0.7261 -2.1202
   64MOL   H15439340   4.161   1.807   5.164 -2.4177  1.6095 -0.7702
   64MOL   H15539341   5.145   1.940   5.143 -0.8413  0.2952 -0.5288
   64MOL   H15639342   5.198   1.796   5.214  0.5745 -1.1405 -0.3968
   64MOL   C15739343   5.274   1.833   5.005 -0.7782 -0.8321 -0.3910
   64MOL   O15839344   5.292   1.694   4.974  0.8666 -0.4407  1.0813
   64MOL   C15939345   5.356   1.668   4.851  0.1201  0.3548 -0.0183
   64MOL   C16039346   5.413   1.526   4.858  0.2283 -0.4505  0.2485
   64MOL   C16139347   5.491   1.491   4.730 -0.1831 -0.3178  0.6079
   64MOL   C16239348   5.579   1.363   4.747 -0.3212  0.2125 -0.2762
   64MOL   C16339349   5.662   1.333   4.622 -0.1451 -0.1556 -0.5874
   64MOL   C16439350   5.736   1.451   4.560 -0.5255  0.2746  0.1367
   64MOL   C16539351   5.835   1.408   4.457  0.4295 -0.0366 -0.9542
   64MOL   C16639352   5.876   1.524   4.367 -0.0358 -0.0893  0.6536
   64MOL   C16739353   5.412   1.890   5.051  0.5287 -0.1571  0.1573
   64MOL   H16839354   5.232   1.888   4.920  1.9849 -0.6013 -1.6558
   64MOL   H16939355   5.443   1.731   4.834  1.3970 -1.0687  1.1316
   64MOL   H17039356   5.285   1.652   4.769 -0.7393  1.3669  0.5228
   64MOL   H17139357   5.331   1.457   4.876 -0.0646 -0.0069  0.6578
   64MOL   H17239358   5.477   1.525   4.947 -0.2044 -0.2960  0.5629
   64MOL   H17339359   5.433   1.491   4.638  1.0205 -1.0662 -0.1647
   64MOL   H17439360   5.562   1.570   4.703 -2.4700  1.2871 -0.8748
   64MOL   H17539361   5.650   1.387   4.826  0.7858 -0.1020 -1.1528
   64MOL   H17639362   5.523   1.278   4.786  0.7784  0.1401  1.1888
   64MOL   H17739363   5.730   1.255   4.654 -0.3639  0.2926  1.0252
   64MOL   H17839364   5.589   1.289   4.554 -0.8966  2.1484 -1.3308
   64MOL   H17939365   5.787   1.504   4.641 -1.7253 -0.5385  1.4462
   64MOL   H18039366   5.655   1.517   4.530 -0.6746 -0.1967 -0.5062
   64MOL   H18139367   5.921   1.358   4.503  0.7031  0.8488 -0.4964
   64MOL   H18239368   5.793   1.331   4.392  1.8519 -0.6121 -1.2148
   64MOL   H18339369   5.966   1.501   4.311  0.4769 -0.5902  1.6696
   64MOL   H18439370   5.893   1.622   4.412 -0.9144  0.2996  0.1509
   64MOL   H18539371   5.800   1.538   4.290 -2.0160  1.2838  2.8019
   64MOL   H18639372   5.430   1.817   5.129  0.2403  1.1788  1.5006
   64MOL   H18739373   5.485   1.872   4.972  0.8870  0.9971  0.2096
   64MOL   C18839374   5.406   2.039   5.086  0.4305  0.6574 -0.2537
   64MOL   O18939375   5.375   2.094   4.962 -0.0290 -0.2026 -0.4629
   64MOL   C19039376   5.284   2.202   4.962  0.0413  0.0943  0.2141
   64MOL   C19139377   5.366   2.328   4.988 -0.0400  0.2591 -0.3446
   64MOL   C19239378   5.293   2.460   4.954  0.2277  0.2778 -0.5442
   64MOL   C19339379   5.159   2.486   5.025  0.3251  0.8299  0.2724
   64MOL   C19439380   5.093   2.622   5.010  0.6550 -0.0551 -0.1367
   64MOL   C19539381   4.978   2.642   5.102  0.4647 -0.5220 -0.1857
   64MOL   C19639382   4.977   2.615   5.260 -0.1149  0.8808 -0.3483
   64MOL   C19739383   4.861   2.690   5.331 -0.1916 -0.0720  0.1626
   64MOL   C19839384   5.535   2.091   5.146 -0.4750  0.9753  0.5121
   64MOL   H19939385   5.330   2.049   5.164  1.8875  1.1568  1.1406
   64MOL   H20039386   5.242   2.206   4.862 -2.5984 -0.1962  1.2538
   64MOL   H20139387   5.203   2.194   5.036 -0.7414  1.4395 -0.4755
   64MOL   H20239388   5.465   2.313   4.943  0.7104 -2.4204  2.0540
   64MOL   H20339389   5.381   2.333   5.095  0.5792 -1.8272 -0.3048
   64MOL   H20439390   5.371   2.537   4.955  2.3977 -1.8682 -0.0528
   64MOL   H20539391   5.261   2.462   4.850 -1.3798 -0.7675 -0.0855
   64MOL   H20639392   5.087   2.406   5.011  0.5452  0.9559 -1.6504
   64MOL   H20739393   5.187   2.481   5.131  0.5234  1.7993  0.2659
   64MOL   H20839394   5.161   2.701   5.041 -1.2144  1.0552  1.2695
   64MOL   H20939395   5.061   2.649   4.909 -0.5269  1.7091  0.6629
   64MOL   H21039396   4.900   2.581   5.057  0.5929 -1.4204  0.7919
   64MOL   H21139397   4.943   2.745   5.088  1.2831  0.0701  1.9089
   64MOL   H21239398   4.964   2.508   5.277 -0.3625  0.5824 -2.2433
   64MOL   H21339399   5.071   2.642   5.306 -0.0409  0.3338 -0.1778
   64MOL   H21439400   4.882   2.797   5.326  0.3620 -0.2352 -1.1143
   64MOL   H21539401   4.870   2.668   5.437 -0.5990 -0.1145  0.1874
   64MOL   H21639402   4.759   2.669   5.300 -0.2768 -2.1163  1.7123
   64MOL   H21739403   5.602   2.100   5.060  1.2779 -0.5955  1.6559
   64MOL   H21839404   5.527   2.194   5.182  1.6647  0.8610  1.3834
   64MOL   C21939405   5.607   2.004   5.247 -0.6391  0.3328  0.0537
   64MOL   O22039406   5.523   1.989   5.355 -0.1652 -0.3620 -0.0436
   64MOL   C22139407   5.534   1.868   5.429  0.0084  0.2996 -0.1337
   64MOL   C22239408   5.436   1.863   5.552  0.5772  0.3866  0.2691
   64MOL   C22339409   5.284   1.874   5.528  0.2919 -0.2391  0.3582
   64MOL   C22439410   5.192   1.858   5.651  0.0662 -0.1823 -0.2982
   64MOL   C22539411   5.047   1.910   5.644 -0.8652  0.4810  0.1790
   64MOL   C22639412   4.971   1.881   5.771  0.3017 -0.4514  0.0829
   64MOL   C22739413   4.830   1.945   5.762 -0.1476  0.3171  0.2344
   64MOL   C22839414   4.741   1.888   5.873  0.0231  0.1111 -0.0723
   64MOL   C22939415   5.743   2.070   5.287 -0.0201 -0.1232  0.1435
   64MOL   H23039416   5.625   1.906   5.204  1.9895  0.4048  0.9134
   64MOL   H23139417   5.636   1.857   5.464 -0.7893  3.1401  3.3632
   64MOL   H23239418   5.500   1.784   5.368  0.9700  0.3909 -0.7992
   64MOL   H23339419   5.460   1.946   5.618 -1.2407  0.4452  0.8967
   64MOL   H23439420   5.474   1.788   5.621  1.0859  1.2672  0.9463
   64MOL   H23539421   5.264   1.971   5.483 -2.5448 -1.2008 -0.5739
   64MOL   H23639422   5.259   1.794   5.457  0.3409 -1.1075  1.3118
   64MOL   H23739423   5.186   1.752   5.677 -0.5895 -0.2079 -0.5418
   64MOL   H23839424   5.246   1.905   5.734  2.0199 -0.4757 -1.3628
   64MOL   H23939425   5.041   2.015   5.616 -1.5800  0.8588  1.6801
   64MOL   H24039426   5.000   1.849   5.567  1.8935  0.0512 -1.2060
   64MOL   H24139427   5.015   1.911   5.866 -0.8629  0.0506  0.4738
   64MOL   H24239428   4.955   1.773   5.780 -0.5087 -0.1542  2.6401
   64MOL   H24339429   4.833   2.054   5.763  0.6482  0.3138 -0.9917
   64MOL   H24439430   4.769   1.916   5.677  0.9991  1.8550 -1.1456
   64MOL   H24539431   4.644   1.938   5.865 -0.0233  0.6927  3.3978
   64MOL   H24639432   4.793   1.902   5.967 -1.7173 -1.3590  1.1402
   64MOL   H24739433   4.710   1.783   5.877 -1.5532  0.4200 -2.6902
   64MOL   H24839434   5.810   1.986   5.307  2.1745  1.8327  1.2119
   64MOL   H24939435   5.798   2.120   5.207  0.3217  2.2867  1.8580
   64MOL   C25039436   5.742   2.165   5.414  0.0880  0.0675 -0.7644
   64MOL   O25139437   5.678   2.294   5.392  0.1126  0.4912  0.2983
   64MOL   C25239438   5.554   2.319   5.449  0.0884  0.7544 -0.1258
   64MOL   C25339439   5.495   2.460   5.418  0.3276  0.0999  0.1332
   64MOL   C25439440   5.589   2.574   5.468  0.7812 -0.0585  0.1341
   64MOL   C25539441   5.518   2.711   5.493 -0.6234  0.7115  0.2067
   64MOL   C25639442   5.615   2.797   5.575 -0.6095 -0.1217 -0.4067
   64MOL   C25739443   5.544   2.929   5.611 -0.0818 -0.2466 -0.0555
   64MOL   C25839444   5.525   3.017   5.488 -0.1688  0.4663 -0.1854
   64MOL   C25939445   5.469   3.154   5.537  0.2961 -0.3811  0.4196
   64MOL   C26039446   5.887   2.192   5.481 -0.3627  0.4049 -0.2024
   64MOL   H26139447   5.711   2.119   5.508  2.1454 -3.6370 -1.7866
   64MOL   H26239448   5.570   2.304   5.556  0.3717  1.0623 -0.1224
   64MOL   H26339449   5.490   2.239   5.412  1.5958 -0.0959 -0.9591
   64MOL   H26439450   5.410   2.462   5.486 -0.0171  3.7290 -0.2951
   64MOL   H26539451   5.457   2.465   5.316  0.9205  1.7053 -0.0290
   64MOL   H26639452   5.628   2.538   5.563 -0.4456 -0.0062  0.6564
   64MOL   H26739453   5.676   2.579   5.401 -0.0785 -0.2406 -1.0116
   64MOL   H26839454   5.495   2.745   5.392  0.2744  0.5570 -0.0546
   64MOL   H26939455   5.427   2.691   5.549 -1.7740  0.7779 -1.6047
   64MOL   H27039456   5.656   2.743   5.660 -1.9221 -0.9861 -0.3174
   64MOL   H27139457   5.708   2.823   5.525 -0.3257 -0.2896  0.0286
   64MOL   H27239458   5.609   2.984   5.679 -2.6283  0.7556  1.6545
   64MOL   H27339459   5.450   2.919   5.665  1.9631 -1.3150  3.5369
   64MOL   H27439460   5.620   3.032   5.437 -0.9341 -0.8318 -2.0824
   64MOL   H27539461   5.467   2.968   5.410 -1.0531  2.3619 -0.7478
   64MOL   H27639462   5.360   3.161   5.543  0.1830 -1.3733 -0.4490
   64MOL   H27739463   5.492   3.235   5.468 -1.4480  0.2725  0.5658
   64MOL   H27839464   5.513   3.182   5.633 -1.6919  0.3259  1.1446
   64MOL   H27939465   5.938   2.266   5.419 -1.1963  2.0482  1.0492
   64MOL   H28039466   5.884   2.250   5.573  1.2834  1.6278 -0.8884
   64MOL   C28139467   5.987   2.070   5.504 -0.3195  0.3888  0.8299
   64MOL   O28239468   6.017   2.000   5.385  0.6024 -0.4844  0.2653
   64MOL   C28339469   6.127   2.039   5.307 -0.2114  0.0233  0.0323
   64MOL   C28439470   6.164   1.949   5.189  0.0956 -0.2947 -0.3594
   64MOL   C28539471   6.198   1.814   5.249 -0.1689 -0.3787 -0.2393
   64MOL   C28639472   6.224   1.704   5.145 -0.0557 -0.1337  0.1208
   64MOL   C28739473   6.262   1.564   5.195 -0.0335 -0.2233 -0.5561
   64MOL   C28839474   6.285   1.463   5.080  0.7500  0.1450  0.0744
   64MOL   C28939475   6.298   1.314   5.127 -0.8005 -0.2859 -0.2060
   64MOL   C29039476   6.432   1.288   5.202 -0.2459  0.1581 -0.0890
   64MOL   C29139477   5.931   1.961   5.597 -0.6312  0.2886 -0.6310
   64MOL   H29239478   6.074   2.109   5.556  0.1701 -0.6301  0.7917
   64MOL   H29339479   6.209   2.040   5.379  1.7747 -0.2809 -2.1638
   64MOL   H29439480   6.126   2.141   5.267 -1.7461 -0.2182 -0.5845
   64MOL   H29539481   6.247   2.000   5.139 -2.5705  0.5413 -4.1625
   64MOL   H29639482   6.083   1.951   5.116  0.2909 -0.7356 -0.5871
   64MOL   H29739483   6.284   1.822   5.315 -0.4100  0.1667  0.0057
   64MOL   H29839484   6.113   1.774   5.304 -0.7923 -0.7841 -1.4658
   64MOL   H29939485   6.145   1.717   5.071 -1.9434 -0.2582  2.0639
   64MOL   H30039486   6.316   1.733   5.093 -0.3230  0.8504  0.1801
   64MOL   H30139487   6.354   1.565   5.252 -0.2580  1.2689 -0.1948
   64MOL   H30239488   6.186   1.534   5.268 -0.7378  2.2525 -0.2489
   64MOL   H30339489   6.363   1.499   5.014  0.9716 -0.9373 -0.2493
   64MOL   H30439490   6.192   1.463   5.023  0.5325  2.1208  0.3911
   64MOL   H30539491   6.211   1.289   5.188 -1.2075 -2.3326 -1.5735
   64MOL   H30639492   6.285   1.247   5.042  0.8252 -1.0101  0.1031
   64MOL   H30739493   6.414   1.347   5.292 -1.0700 -2.8060  1.7891
   64MOL   H30839494   6.520   1.326   5.150  0.3651  1.6882  1.9876
   64MOL   H30939495   6.440   1.184   5.235  0.6915 -0.4179 -2.0869
   64MOL   H31039496   5.841   1.920   5.551 -0.6869  1.7624 -1.8755
   64MOL   H31139497   5.992   1.870   5.603 -0.6423  0.4065  1.7096
   64MOL   C31239498   5.882   2.013   5.734  0.5812  0.1595 -0.1051
   64MOL   O31339499   5.999   2.065   5.800 -0.6211  0.3628  0.1406
   64MOL   C31439500   5.976   2.173   5.890 -0.2800  0.0589  0.1738
   64MOL   C31539501   6.114   2.200   5.953  0.0872  0.0740  0.7394
   64MOL   C31639502   6.157   2.107   6.069 -0.0839  0.0661 -0.1956
   64MOL   C31739503   6.295   2.136   6.133  0.4398  0.0885 -0.6859
   64MOL   C31839504   6.330   2.023   6.232  0.8300 -0.0067  0.4202
   64MOL   C31939505   6.477   2.010   6.258  0.3439  0.3917 -0.2278
   64MOL   C32039506   6.515   1.895   6.357 -0.4023 -0.3524  0.4697
   64MOL   C32139507   6.663   1.894   6.374  0.6039  0.4826  0.3329
   64MOL   C32239508   5.812   1.905   5.822  0.4685  0.5892  0.1209
   64MOL   H32339509   5.817   2.097   5.709  1.4619  0.2695 -2.1379
   64MOL   H32439510   5.896   2.154   5.961 -0.1407  1.5783  0.7648
   64MOL   H32539511   5.941   2.259   5.834  0.6235  1.8424  2.2798
   64MOL   H32639512   6.127   2.300   5.995  0.8088 -0.6962  2.4164
   64MOL   H32739513   6.188   2.187   5.874  1.3484 -3.0282  2.3385
   64MOL   H32839514   6.071   2.125   6.134 -2.0285 -1.8513 -2.1123
   64MOL   H32939515   6.145   2.003   6.038  0.1844 -0.5757  1.8205
   64MOL   H33039516   6.375   2.132   6.059  2.3379  1.5498  1.2290
   64MOL   H33139517   6.295   2.234   6.182 -1.4997 -0.4640  0.4555
   64MOL   H33239518   6.265   2.035   6.319 -1.5906  0.5021 -1.4049
   64MOL   H33339519   6.296   1.928   6.189 -0.4970  0.6952 -0.1257
   64MOL   H33439520   6.524   2.104   6.287 -0.1326  0.9211 -1.1464
   64MOL   H33539521   6.526   1.994   6.162 -1.8655  1.5665 -1.5917
   64MOL   H33639522   6.474   1.910   6.457  0.0338  0.4536  0.5249
   64MOL   H33739523   6.488   1.792   6.331 -0.0285 -0.2562 -0.2871
   64MOL   H33839524   6.720   1.887   6.282  0.6640  0.4350  0.3737
   64MOL   H33939525   6.701   1.805   6.423  0.5043 -0.4573 -1.2532
   64MOL   H34039526   6.687   1.992   6.415  2.8352  1.1447 -2.4261
   64MOL   H34139527   5.780   1.961   5.910  1.8034  0.8433  0.4564
   64MOL   H34239528   5.717   1.873   5.781  0.4035  0.6944  0.1902
   64MOL   C34339529   5.897   1.778   5.850 -0.5693 -0.7648  0.1709
   64MOL   O34439530   5.864   1.682   5.750  0.1374 -0.1512 -0.4870
   64MOL   C34539531   5.967   1.591   5.705 -0.0505  0.0978 -0.3613
   64MOL   C34639532   5.908   1.498   5.604  0.2648  0.4000 -0.2245
   64MOL   C34739533   5.846   1.570   5.486  0.0331 -0.5912 -0.0954
   64MOL   C34839534   5.787   1.478   5.373 -0.7658  0.0091  0.0720
   64MOL   C34939535   5.726   1.552   5.252 -0.4381  0.5139  0.3251
   64MOL   C35039536   5.836   1.626   5.169 -0.5000  0.3404  0.2721
   64MOL   C35139537   5.775   1.655   5.023  0.4483  0.3203 -0.2451
   64MOL   C35239538   5.845   1.763   4.944 -0.0630  0.3748 -0.1715
   64MOL   C35339539   5.891   1.716   5.991 -0.3295 -0.5801  0.3354
   64MOL   H35439540   6.001   1.805   5.829 -0.1890 -2.3377  0.0120
   64MOL   H35539541   6.012   1.534   5.786  0.7508 -0.8853 -1.4966
   64MOL   H35639542   6.046   1.656   5.668  1.1043  0.3062  2.2946
   64MOL   H35739543   5.834   1.436   5.654  0.5832  1.0350  1.0360
   64MOL   H35839544   5.978   1.422   5.568 -0.8437 -1.5899  1.7107
   64MOL   H35939545   5.774   1.647   5.514 -0.9564 -1.4516 -0.2390
   64MOL   H36039546   5.932   1.626   5.451 -0.7109  0.7978  0.2734
   64MOL   H36139547   5.866   1.416   5.330  0.2315  0.6460  0.9804
   64MOL   H36239548   5.710   1.421   5.425 -0.4707 -0.2907  0.1793
   64MOL   H36339549   5.658   1.489   5.195 -0.0181  1.6683 -1.4810
   64MOL   H36439550   5.665   1.632   5.294 -1.3508 -0.2638  0.5042
   64MOL   H36539551   5.923   1.561   5.156  0.9254  2.1545  0.5891
   64MOL   H36639552   5.856   1.714   5.231  0.7803  0.5748 -0.4632
   64MOL   H36739553   5.782   1.566   4.961 -1.0965 -2.2556  3.0643
   64MOL   H36839554   5.671   1.688   5.021 -0.3212 -2.0355 -2.3254
   64MOL   H36939555   5.853   1.857   4.998  5.0010 -0.6696  1.2199
   64MOL   H37039556   5.804   1.790   4.847 -0.9181  0.5188  0.2317
   64MOL   H37139557   5.948   1.730   4.927  0.4788  1.0197  1.7458
   64MOL   H37239558   5.931   1.614   5.991 -0.5799 -0.6788 -0.1146
   64MOL   H37339559   5.971   1.767   6.044  0.3114 -0.2929 -0.8819
   64MOL   C37439560   5.756   1.730   6.065 -0.1285 -0.2521  0.2632
   64MOL   O37539561   5.768   1.676   6.196  0.3171 -0.6178  0.2185
   64MOL   C37639562   5.687   1.724   6.300  0.0172  0.2369 -0.2344
   64MOL   C37739563   5.710   1.875   6.341 -0.2666  0.2707 -0.0557
   64MOL   C37839564   5.856   1.895   6.387  0.0732 -0.6732 -0.2994
   64MOL   C37939565   5.868   2.033   6.447 -0.2384 -0.5275  0.1096
   64MOL   C38039566   6.005   2.066   6.508  0.4555 -0.0023 -0.1752
   64MOL   C38139567   6.010   2.202   6.581  0.8728  0.7536 -0.1564
   64MOL   C38239568   5.999   2.313   6.479  0.1632 -0.7020 -0.2034
   64MOL   C38339569   6.015   2.443   6.549  0.0853 -0.3125  0.3641
   64MOL   C38439570   5.647   1.655   5.983  0.0031 -0.0236 -0.8511
   64MOL   H38539571   5.720   1.832   6.067 -1.2956 -0.6804  1.6076
   64MOL   H38639572   5.723   1.667   6.385 -1.0760  2.6058  1.9085
   64MOL   H38739573   5.582   1.704   6.283  0.5644 -2.1577 -0.9432
   64MOL   H38839574   5.627   1.892   6.409 -2.6981 -0.5352 -2.7365
   64MOL   H38939575   5.688   1.957   6.273 -3.5950  0.1904  0.8518
   64MOL   H39039576   5.897   1.827   6.462 -0.2590  0.7233  1.1897
   64MOL   H39139577   5.930   1.891   6.308 -1.1792 -0.9515 -1.4776
   64MOL   H39239578   5.840   2.106   6.372  1.2808  0.0986  0.1347
   64MOL   H39339579   5.795   2.038   6.528 -1.6277  0.3553 -1.1866
   64MOL   H39439580   6.038   1.986   6.574 -0.0857  0.2085  0.3504
   64MOL   H39539581   6.069   2.077   6.421  1.6306 -0.1021  0.6674
   64MOL   H39639582   6.110   2.216   6.624  1.0063 -0.8004  0.0791
   64MOL   H39739583   5.942   2.216   6.665  1.4394  1.7016  0.1514
   64MOL   H39839584   6.074   2.313   6.400 -1.0894 -1.4113 -1.4286
   64MOL   H39939585   5.905   2.310   6.425 -1.1342  0.2567  1.9359
   64MOL   H40039586   5.993   2.528   6.484 -2.1548 -1.8689 -0.9712
   64MOL   H40139587   6.116   2.459   6.587  0.1836 -1.4151  0.5940
   64MOL   H40239588   5.942   2.452   6.629 -0.6744  0.5286 -0.4081
   64MOL   H40339589   5.561   1.670   6.048  1.3058  1.8254  0.4946
   64MOL   H40439590   5.628   1.709   5.890  0.6940  0.4647 -0.7122
   64MOL   C40539591   5.671   1.509   5.938  0.2625  0.5073 -0.0253
   64MOL   O40639592   5.550   1.469   5.871  0.2027 -0.3302  0.5382
   64MOL   C40739593   5.504   1.542   5.758 -0.0181 -0.8043  0.1206
   64MOL   C40839594   5.420   1.434   5.678 -0.0982 -0.2920  0.0358
   64MOL   C40939595   5.368   1.491   5.548  0.1432  0.2539 -0.5645
   64MOL   C41039596   5.334   1.390   5.430  0.0607 -0.1171  0.1410
   64MOL   C41139597   5.303   1.468   5.298  0.2928 -0.5749  0.5644
   64MOL   C41239598   5.292   1.359   5.184  0.6049  0.1351 -0.2301
   64MOL   C41339599   5.172   1.264   5.204  0.7295  0.2288  0.4356
   64MOL   C41439600   5.178   1.162   5.086  0.5199  0.3962 -0.8082
   64MOL   C41539601   5.688   1.417   6.058  0.7365 -0.0056 -0.3585
   64MOL   H41639602   5.753   1.503   5.867 -0.6448 -0.1567 -1.0232
   64MOL   H41739603   5.589   1.571   5.696  0.0852  2.0161  1.5059
   64MOL   H41839604   5.432   1.620   5.782 -0.6424 -1.2068 -0.4011
   64MOL   H41939605   5.342   1.397   5.744  0.9442  3.4137  3.5330
   64MOL   H42039606   5.490   1.358   5.645  0.9448 -0.1724  1.9312
   64MOL   H42139607   5.277   1.549   5.566 -1.0503 -2.4873  2.8820
   64MOL   H42239608   5.438   1.570   5.520  2.4546 -1.3232  0.6717
   64MOL   H42339609   5.425   1.335   5.407 -0.8092 -0.5638 -2.3165
   64MOL   H42439610   5.246   1.334   5.461 -0.9345  0.3730 -1.7612
   64MOL   H42539611   5.217   1.528   5.327  1.0012  0.5412  0.3661
   64MOL   H42639612   5.382   1.539   5.274  0.8356 -1.6325 -0.8316
   64MOL   H42739613   5.382   1.300   5.168 -0.0321 -0.3564 -2.0126
   64MOL   H42839614   5.282   1.410   5.089  0.0822 -0.9270 -0.7474
   64MOL   H42939615   5.178   1.210   5.298 -0.3739 -0.6657  0.0031
   64MOL   H43039616   5.073   1.309   5.205 -0.6923 -2.7929  0.9841
   64MOL   H43139617   5.081   1.111   5.088 -0.7939  2.8148  2.7132
   64MOL   H43239618   5.254   1.084   5.094  0.2481  0.2151  0.1575
   64MOL   H43339619   5.174   1.215   4.991 -1.7195  1.4135 -0.1929
   64MOL   H43439620   5.683   1.461   6.157  1.9897  0.3194 -0.4228
   64MOL   H43539621   5.606   1.346   6.062 -3.1178  4.2061 -0.0009
   64MOL   C43639622   5.825   1.334   6.054  0.3518  0.1854  0.2498
   64MOL   O43739623   5.848   1.283   5.923 -0.2569 -0.0696  0.1292
   64MOL   C43839624   5.760   1.184   5.877  0.3105 -0.2530 -0.2683
   64MOL   C43939625   5.750   1.204   5.724  0.0355 -0.7385  0.1074
   64MOL   C44039626   5.664   1.094   5.651  0.0729 -0.0431  0.8624
   64MOL   C44139627   5.639   1.121   5.502 -0.7558  0.5320  0.5936
   64MOL   C44239628   5.529   1.027   5.430  0.1672 -0.1105 -0.0855
   64MOL   C44339629   5.514   1.052   5.280  0.0163  0.4671 -0.0664
   64MOL   C44439630   5.637   1.008   5.196 -0.1142  0.0229 -0.6016
   64MOL   C44539631   5.592   0.979   5.053 -0.5255  0.5010 -0.1902
   64MOL   C44639632   5.840   1.227   6.161 -0.3271  0.9507 -0.5651
   64MOL   H44739633   5.897   1.414   6.072 -1.2140  1.8420 -0.6569
   64MOL   H44839634   5.793   1.081   5.889  2.2359  0.1994 -1.4283
   64MOL   H44939635   5.658   1.203   5.910 -0.5469 -2.2702 -1.6510
   64MOL   H45039636   5.844   1.195   5.670  0.2523  1.0977  0.1631
   64MOL   H45139637   5.685   1.289   5.705  2.5414  1.2323  0.2292
   64MOL   H45239638   5.701   0.991   5.649 -1.0162 -0.4231 -2.5506
   64MOL   H45339639   5.568   1.087   5.703 -0.7009  0.9872 -0.3894
   64MOL   H45439640   5.613   1.226   5.486 -0.6518  0.1477 -2.3381
   64MOL   H45539641   5.731   1.111   5.445  0.3444  4.1565  1.5550
   64MOL   H45639642   5.554   0.922   5.445 -0.7819 -0.2738  0.3737
   64MOL   H45739643   5.430   1.045   5.472 -0.9461 -1.4502 -2.0521
   64MOL   H45839644   5.483   1.157   5.272 -1.0034 -0.0522 -3.6257
   64MOL   H45939645   5.427   1.000   5.242 -0.8850  0.9115  1.3538
   64MOL   H46039646   5.705   1.093   5.201 -0.3656  0.2712 -1.3949
   64MOL   H46139647   5.692   0.924   5.238  2.1965  0.5302 -2.4831
   64MOL   H46239648   5.556   1.072   5.008 -0.3755  0.4923 -0.3253
   64MOL   H46339649   5.513   0.904   5.043 -0.4921  0.4540 -0.1021
   64MOL   H46439650   5.677   0.941   4.998 -0.1980 -0.2450  0.8112
   64MOL   H46539651   5.778   1.241   6.250 -0.7903  1.2468 -0.9334
   64MOL   H46639652   5.793   1.135   6.126  0.0916 -0.0960  1.5256
   64MOL   C46739653   5.986   1.212   6.205 -0.3969 -0.2183  0.3578
   64MOL   O46839654   6.037   1.090   6.153 -0.5615  0.0835  0.3995
   64MOL   C46939655   6.179   1.089   6.151 -0.4477  0.1431 -0.0552
   64MOL   C47039656   6.217   0.946   6.097 -0.2603 -0.2467  0.0477
   64MOL   C47139657   6.366   0.924   6.071 -0.0205 -0.5079 -0.1296
   64MOL   C47239658   6.409   0.773   6.054  0.0399  0.7510 -0.6508
   64MOL   C47339659   6.534   0.755   5.969 -0.7266 -0.5198 -0.1887
   64MOL   C47439660   6.573   0.607   5.970 -0.0712 -0.0827  0.3284
   64MOL   C47539661   6.706   0.567   5.905  0.4590  0.2666 -0.2589
   64MOL   C47639662   6.712   0.561   5.747 -0.3635  0.9449  0.0614
   64MOL   C47739663   6.006   1.231   6.358 -0.5459  0.7284  1.1259
   64MOL   H47839664   6.043   1.293   6.159  2.3274 -2.2948  0.0133
   64MOL   H47939665   6.222   1.111   6.248  0.4015  2.0166 -0.8306
   64MOL   H48039666   6.221   1.162   6.083  1.8185  0.6947  1.8874
   64MOL   H48139667   6.152   0.921   6.013  0.1943  2.1779 -1.0566
   64MOL   H48239668   6.188   0.870   6.171 -0.4882  0.2786  0.4996
   64MOL   H48339669   6.391   0.980   5.981 -0.8077  0.3618  0.1874
   64MOL   H48439670   6.423   0.964   6.156  2.2871 -0.6372 -1.5683
   64MOL   H48539671   6.429   0.731   6.153  1.7507  2.2814 -0.3116
   64MOL   H48639672   6.338   0.707   6.004  1.5421 -1.7246  0.3594
   64MOL   H48739673   6.494   0.783   5.871 -2.5422 -0.1279  0.6305
   64MOL   H48839674   6.613   0.821   6.006 -1.3257 -0.9647  1.9383
   64MOL   H48939675   6.489   0.547   5.935 -0.8126  0.1500  1.6865
   64MOL   H49039676   6.582   0.579   6.075  2.0751  2.2789  0.8415
   64MOL   H49139677   6.788   0.630   5.940  0.3898  0.3538 -0.2527
   64MOL   H49239678   6.729   0.469   5.948  2.2376  0.0062 -1.7376
   64MOL   H49339679   6.674   0.658   5.715  2.2625  2.4033  1.2278
   64MOL   H49439680   6.646   0.488   5.699 -0.9085 -1.5136  4.2620
   64MOL   H49539681   6.818   0.556   5.722 -0.2259 -0.6572  0.8715
   64MOL   H49639682   5.939   1.161   6.407 -0.3256  0.2870  0.8044
   64MOL   H49739683   6.100   1.202   6.406 -0.4948 -1.3337 -0.1534
   64MOL   C49839684   5.972   1.368   6.411  0.0420  0.5253  1.0495
   64MOL   O49939685   6.089   1.439   6.370  0.0528  0.1778 -0.2092
   64MOL   C50039686   6.066   1.569   6.327  0.1604 -0.0265  0.5231
   64MOL   C50139687   6.181   1.628   6.238 -1.1882 -0.0117 -0.1400
   64MOL   C50239688   6.225   1.544   6.117  0.2436 -0.1843  0.0810
   64MOL   C50339689   6.334   1.601   6.027 -0.4257  0.2613 -0.0209
   64MOL   C50439690   6.299   1.712   5.927 -0.4969  0.1471 -0.4769
   64MOL   C50539691   6.427   1.779   5.876  0.5110 -0.3995  0.3873
   64MOL   C50639692   6.399   1.913   5.808  0.0300  0.2763  0.1633
   64MOL   C50739693   6.326   1.888   5.675 -0.3949  0.4289 -0.0910
   64MOL   C50839694   5.953   1.385   6.566 -0.8362 -0.1157 -0.1003
   64MOL   H50939695   5.883   1.402   6.357  1.1253 -1.0961 -1.8979
   64MOL   H51039696   6.038   1.639   6.406  0.0199  0.2504  0.2307
   64MOL   H51139697   5.977   1.566   6.265  1.9017 -1.2451 -2.0232
   64MOL   H51239698   6.264   1.658   6.302 -1.4927 -1.1596  0.8030
   64MOL   H51339699   6.147   1.722   6.195 -1.6540  0.5284  1.3904
   64MOL   H51439700   6.248   1.442   6.147  0.7904  0.2451  1.1711
   64MOL   H51539701   6.142   1.535   6.047 -0.0424  0.2639  0.3625
   64MOL   H51639702   6.418   1.642   6.083  0.1805 -0.9815 -0.0006
   64MOL   H51739703   6.381   1.522   5.970 -0.3191 -0.0723  0.5231
   64MOL   H51839704   6.230   1.673   5.852 -0.4964 -1.5364  0.3696
   64MOL   H51939705   6.242   1.791   5.975  0.8617 -0.2631  1.9293
   64MOL   H52039706   6.485   1.708   5.816  0.8434  1.2836 -1.3111
   64MOL   H52139707   6.493   1.801   5.960  0.8814  2.6018 -0.6480
   64MOL   H52239708   6.328   1.972   5.866 -0.1122  0.5359 -0.2721
   64MOL   H52339709   6.497   1.959   5.795  1.2142 -1.3067  2.9813
   64MOL   H52439710   6.248   1.812   5.683  0.1901  0.0864  2.7260
   64MOL   H52539711   6.392   1.837   5.604  1.7601  1.5807  1.0449
   64MOL   H52639712   6.272   1.967   5.624  0.7977  0.7076 -0.9413
   64MOL   H52739713   6.027   1.335   6.629 -0.4236  1.0346  0.3295
   64MOL   H52839714   5.978   1.488   6.591  1.7068 -0.8831  0.6735
   64MOL   C52939715   5.814   1.344   6.625 -0.1717 -0.2551 -0.2158
   64MOL   O53039716   5.711   1.408   6.543  0.4531 -0.2747 -0.3060
   64MOL   C53139717   5.612   1.319   6.490 -0.9610  0.3541  0.1520
   64MOL   C53239718   5.487   1.403   6.459  0.0665  0.2096 -0.1089
   64MOL   C53339719   5.383   1.316   6.393  0.2280  0.3716  0.5701
   64MOL   C53439720   5.258   1.382   6.338  0.3203  0.8046  0.9196
   64MOL   C53539721   5.295   1.497   6.236 -0.5758  0.6145 -0.6267
   64MOL   C53639722   5.173   1.581   6.174 -0.2004  0.2058 -0.1491
   64MOL   C53739723   5.098   1.488   6.086 -0.3373 -0.2434  0.8911
   64MOL   C53839724   4.992   1.576   6.008  0.5512 -0.5226 -0.1714
   64MOL   C53939725   5.788   1.387   6.771  0.2825  0.4778  0.0061
   64MOL   H54039726   5.802   1.236   6.612 -1.1783 -0.1611 -0.0768
   64MOL   H54139727   5.653   1.274   6.400 -0.2244 -0.2739  0.8022
   64MOL   H54239728   5.589   1.239   6.560  0.3471 -0.1050  0.0741
   64MOL   H54339729   5.525   1.477   6.389 -2.6612  2.0434  0.2938
   64MOL   H54439730   5.435   1.452   6.541 -0.5223 -0.9223  0.2154
   64MOL   H54539731   5.424   1.262   6.308  3.2231  2.5199  0.5552
   64MOL   H54639732   5.338   1.253   6.470  1.4672 -1.1087  0.1263
   64MOL   H54739733   5.211   1.300   6.283  0.8275 -0.2904  2.0751
   64MOL   H54839734   5.196   1.416   6.420 -0.8927  0.8820 -0.0135
   64MOL   H54939735   5.353   1.567   6.296 -0.1372  0.2952 -0.6793
   64MOL   H55039736   5.357   1.458   6.156  1.6903  0.3138  1.2311
   64MOL   H55139737   5.211   1.662   6.112 -1.0331 -0.1583 -1.1424
   64MOL   H55239738   5.113   1.626   6.253 -0.9240 -1.1954  0.1024
   64MOL   H55339739   5.157   1.436   6.010 -1.8369  1.8644 -1.8427
   64MOL   H55439740   5.043   1.415   6.144 -0.6597  1.3434  2.6131
   64MOL   H55539741   5.025   1.623   5.915  0.7204  0.5202  0.4126
   64MOL   H55639742   4.959   1.659   6.070 -0.2284  0.1823 -1.5095
   64MOL   H55739743   4.901   1.520   5.985 -0.2290  0.8711 -0.5390
   64MOL   H55839744   5.810   1.494   6.763  2.2236  0.2917  2.2813
   64MOL   H55939745   5.682   1.379   6.796  0.3468  2.7228  1.1379
   64MOL   C56039746   5.866   1.303   6.881  0.2317  0.0967  0.3408
   64MOL   O56139747   5.768   1.200   6.928 -0.2118  0.3835 -0.5263
   64MOL   C56239748   5.833   1.089   6.994  0.1461 -0.3288  0.2848
   64MOL   C56339749   5.716   1.015   7.042 -0.0458 -0.3926 -0.3693
   64MOL   C56439750   5.745   0.888   7.125 -0.7401 -1.0857  0.2446
   64MOL   C56539751   5.693   0.750   7.067  0.7604 -0.8384 -0.5080
   64MOL   C56639752   5.705   0.634   7.170 -0.6854  0.2852  0.0685
   64MOL   C56739753   5.643   0.663   7.309  0.7991  0.3761 -0.3322
   64MOL   C56839754   5.624   0.529   7.389 -0.3732 -0.4670  0.1924
   64MOL   C56939755   5.749   0.462   7.428 -0.2756  0.4965 -0.7427
   64MOL   C57039756   5.947   1.394   6.980 -0.1948 -0.1603 -0.4191
   64MOL   H57139757   5.935   1.240   6.826 -1.6665  0.1742 -2.2359
   64MOL   H57239758   5.890   1.138   7.073  0.5741  1.7396 -1.2506
   64MOL   H57339759   5.897   1.036   6.923  0.5965  3.4971 -2.3431
   64MOL   H57439760   5.644   0.987   6.965 -0.8401  0.5763  0.0182
   64MOL   H57539761   5.660   1.077   7.112 -0.2567 -0.4324 -0.5027
   64MOL   H57639762   5.851   0.873   7.145 -0.5263  0.5341  0.3915
   64MOL   H57739763   5.695   0.909   7.219 -0.4213 -0.1485  0.2116
   64MOL   H57839764   5.589   0.753   7.033  0.8508 -0.9940 -0.7982
   64MOL   H57939765   5.747   0.727   6.975  2.2941 -1.1928  0.4584
   64MOL   H58039766   5.651   0.551   7.124 -1.1475  0.5169  0.1910
   64MOL   H58139767   5.811   0.609   7.185 -0.3692  0.2231 -2.1965
   64MOL   H58239768   5.546   0.711   7.298 -0.2042 -1.3769  0.5934
   64MOL   H58339769   5.702   0.728   7.375  0.0441 -1.7041  2.4808
   64MOL   H58439770   5.561   0.536   7.478 -0.1928  1.4103  0.1818
   64MOL   H58539771   5.572   0.469   7.313  0.0405  0.4962 -0.8615
   64MOL   H58639772   5.737   0.377   7.496 -0.3211  1.3292  0.3134
   64MOL   H58739773   5.815   0.521   7.491  2.2537 -0.5564 -2.3119
   64MOL   H58839774   5.807   0.441   7.338  2.3249 -0.4366  1.0898
   64MOL   H58939775   5.884   1.476   7.016  0.4938  0.3105 -0.2761
   64MOL   H59039776   5.989   1.346   7.069  0.9740  0.1772 -0.7808
   64MOL   C59139777   6.067   1.460   6.913 -0.1641 -0.2626 -0.0380
   64MOL   O59239778   6.156   1.352   6.897 -1.0089 -0.1274 -0.1338
   64MOL   C59339779   6.266   1.379   6.799 -0.4281 -0.3030  0.1834
   64MOL   C59439780   6.340   1.245   6.769 -0.0790 -0.3961 -0.0018
   64MOL   C59539781   6.275   1.146   6.672  0.0843 -0.2271 -0.3797
   64MOL   C59639782   6.379   1.046   6.609  0.7374  0.1796  0.2191
   64MOL   C59739783   6.313   0.924   6.558  0.2778 -0.1759 -0.1840
   64MOL   C59839784   6.404   0.817   6.516  0.0858  0.6047  0.4890
   64MOL   C59939785   6.348   0.708   6.426  0.1207  0.2634 -0.1876
   64MOL   C60039786   6.419   0.570   6.422  0.1141 -0.3023  0.2787
   64MOL   C60139787   6.129   1.557   7.027  0.4908  0.1049  0.0563
   64MOL   H60239788   6.036   1.510   6.821 -0.1571 -0.3294 -0.0776
   64MOL   H60339789   6.333   1.451   6.846 -0.1872  0.0468 -0.6953
   64MOL   H60439790   6.238   1.425   6.704 -0.7803  0.3881  0.6184
   64MOL   H60539791   6.349   1.191   6.863  0.7721 -2.2185 -1.1029
   64MOL   H60639792   6.440   1.269   6.731  0.0691 -1.0968 -0.0598
   64MOL   H60739793   6.197   1.093   6.726 -0.5800  1.0316 -0.0918
   64MOL   H60839794   6.229   1.204   6.591 -0.2950  1.5574  1.1006
   64MOL   H60939795   6.420   1.091   6.519  0.8596  0.8655  0.6190
   64MOL   H61039796   6.465   1.034   6.676  2.4163  2.4720 -1.4537
   64MOL   H61139797   6.230   0.887   6.618  0.4816 -1.7365 -0.8439
   64MOL   H61239798   6.261   0.955   6.467 -0.3865  3.0992  1.2287
   64MOL   H61339799   6.436   0.763   6.604 -3.7215 -1.7157  0.5769
   64MOL   H61439800   6.486   0.862   6.460 -0.6111  0.3288 -0.8009
   64MOL   H61539801   6.242   0.698   6.448 -0.3945  1.8080 -1.8015
   64MOL   H61639802   6.333   0.751   6.327  0.8356  0.7149 -0.1058
   64MOL   H61739803   6.393   0.515   6.331  0.0802 -0.5483  0.4362
   64MOL   H61839804   6.381   0.514   6.507  2.8716 -0.5905  1.3651
   64MOL   H61939805   6.527   0.564   6.430  0.3628  0.6210 -1.8074
   64MOL   H62039806   6.064   1.641   7.049 -0.3379 -0.9197  1.6319
   64MOL   H62139807   6.139   1.504   7.122 -2.8300 -0.7881 -0.0294
   64MOL   H62239808   6.229   1.594   7.004  0.1960  0.0889 -1.2807
   65MOL     C139809   2.183   6.692   2.700  0.4050  0.7746  0.1866
   65MOL     O239810   2.065   6.673   2.615  0.8026 -0.7067  0.2821
   65MOL     C339811   2.094   6.647   2.481  0.3832 -0.0238  0.5949
   65MOL     C439812   1.970   6.589   2.397 -0.1636  0.8200 -0.0021
   65MOL     C539813   1.924   6.451   2.444  0.2005  0.5613  0.1261
   65MOL     C639814   1.801   6.404   2.366  0.0924  0.1583  0.2753
   65MOL     C739815   1.753   6.274   2.416 -0.2768 -0.7687 -0.3517
   65MOL     C839816   1.853   6.167   2.383  0.5061 -0.2653 -0.3628
   65MOL     C939817   1.820   6.024   2.432  0.4531  0.3253  0.3473
   65MOL    C1039818   1.853   6.007   2.578  0.1251 -0.0899  0.2317
   65MOL    C1139819   2.144   6.709   2.839 -0.3052  0.0996 -0.3588
   65MOL    H1239820   2.257   6.612   2.701 -0.1866  0.1949 -0.7408
   65MOL    H1339821   2.182   6.584   2.489  1.3046  1.4133  2.0507
   65MOL    H1439822   2.132   6.739   2.437  0.3992 -0.1637  0.3149
   65MOL    H1539823   1.997   6.585   2.292  2.2522 -1.6619  0.6572
   65MOL    H1639824   1.883   6.652   2.417 -1.2630  0.4165 -3.3410
   65MOL    H1739825   2.008   6.384   2.429 -0.3163 -0.3338  1.1331
   65MOL    H1839826   1.901   6.452   2.551  3.6244  0.1846  0.9176
   65MOL    H1939827   1.731   6.486   2.381  0.4705  0.5481 -0.0574
   65MOL    H2039828   1.828   6.400   2.260 -0.0393  1.9537  0.1691
   65MOL    H2139829   1.727   6.275   2.522  0.8831 -0.1176 -0.0581
   65MOL    H2239830   1.658   6.263   2.364  0.3503 -0.2338 -1.6327
   65MOL    H2339831   1.946   6.200   2.428 -0.6845  0.8100  1.3688
   65MOL    H2439832   1.860   6.170   2.274 -3.1246  2.0200 -0.5959
   65MOL    H2539833   1.716   6.007   2.404  0.3699 -1.5512  1.6903
   65MOL    H2639834   1.878   5.949   2.379  0.2271  0.9255 -0.7661
   65MOL    H2739835   1.960   6.016   2.591 -0.0150  2.2282  0.0387
   65MOL    H2839836   1.822   5.907   2.607 -0.9241  0.4141  0.8836
   65MOL    H2939837   1.804   6.088   2.632  0.9034  0.9915 -0.6516
   65MOL    H3039838   2.082   6.799   2.834 -1.2097 -0.5855 -1.7596
   65MOL    H3139839   2.080   6.633   2.885  1.2928 -0.0032  1.7417
   65MOL    H3239840   2.236   6.777   2.658  0.6787  1.3925  1.7690
   65MOL    C3339841   2.263   6.726   2.938 -0.5846 -0.0154  0.1580
   65MOL    O3439842   2.341   6.606   2.917  0.3325  0.4573 -0.2258
   65MOL    C3539843   2.483   6.624   2.907  0.0507 -0.5197  0.1793
   65MOL    C3639844   2.544   6.481   2.889 -0.7267  0.2281  0.0293
   65MOL    C3739845   2.697   6.487   2.883 -0.2264  0.4817 -0.3681
   65MOL    C3839846   2.768   6.352   2.863 -0.5890 -0.5558 -0.3500
   65MOL    C3939847   2.731   6.262   2.747 -0.0691 -0.4076  0.3857
   65MOL    C4039848   2.819   6.126   2.753 -0.3088 -1.2722 -0.0892
   65MOL    C4139849   2.777   6.029   2.637  0.3026  0.4813  0.8429
   65MOL    C4239850   2.829   5.884   2.654 -0.0123 -0.3923 -0.0520
   65MOL    C4339851   2.203   6.733   3.079  0.4404  0.1953 -0.1946
   65MOL    H4439852   2.314   6.822   2.934  1.7899 -1.1988  1.1178
   65MOL    H4539853   2.530   6.678   2.990  0.8918  2.1153 -1.9442
   65MOL    H4639854   2.510   6.692   2.826  2.1718  1.2331  2.2917
   65MOL    H4739855   2.522   6.438   2.791 -1.9627  0.8649  0.0111
   65MOL    H4839856   2.526   6.415   2.973  0.1120  0.0906  0.0980
   65MOL    H4939857   2.718   6.552   2.798 -0.1395  1.4580  0.3881
   65MOL    H5039858   2.733   6.520   2.981 -0.3859 -0.5721  0.0505
   65MOL    H5139859   2.871   6.389   2.859 -1.4068  1.7607 -0.4318
   65MOL    H5239860   2.762   6.302   2.960 -0.8492 -1.2352 -0.7118
   65MOL    H5339861   2.627   6.238   2.766 -0.8615  1.4803 -1.3092
   65MOL    H5439862   2.752   6.314   2.653 -0.8394  0.2866  0.5945
   65MOL    H5539863   2.818   6.069   2.845 -0.0915 -0.1447  0.6278
   65MOL    H5639864   2.922   6.160   2.750 -0.3679 -1.1637 -2.0869
   65MOL    H5739865   2.669   6.041   2.629  0.5871  1.6451 -1.7068
   65MOL    H5839866   2.811   6.060   2.539 -0.0316  1.2271  0.9619
   65MOL    H5939867   2.779   5.814   2.587  0.2606 -1.0529  0.4291
   65MOL    H6039868   2.815   5.847   2.756  2.3481 -2.5979 -0.4605
   65MOL    H6139869   2.936   5.882   2.634  0.4017  0.1543  1.9400
   65MOL    H6239870   2.128   6.813   3.084 -1.3853 -1.4892  0.0178
   65MOL    H6339871   2.141   6.646   3.099 -2.1891  1.8098 -0.9140
   65MOL    C6439872   2.295   6.742   3.197  0.2474 -0.2215 -0.8694
   65MOL    O6539873   2.389   6.840   3.194  0.0974 -0.1041  1.0582
   65MOL    C6639874   2.356   6.976   3.224 -0.5883 -0.5999 -0.2966
   65MOL    C6739875   2.410   7.007   3.364 -0.2113  0.0104  0.1989
   65MOL    C6839876   2.372   7.148   3.405  0.1909 -0.1238  0.6103
   65MOL    C6939877   2.394   7.187   3.549 -0.1228  0.2768  0.2803
   65MOL    C7039878   2.343   7.329   3.569 -0.2817  0.5350 -0.3583
   65MOL    C7139879   2.444   7.443   3.537 -0.0089 -0.4807  0.1147
   65MOL    C7239880   2.379   7.579   3.565  0.6096 -0.1631  0.6465
   65MOL    C7339881   2.273   7.629   3.465 -0.7906  0.3285  0.5509
   65MOL    C7439882   2.369   6.608   3.232  0.0062 -0.0526 -0.1164
   65MOL    H7539883   2.228   6.771   3.279  2.3511  1.6745  0.2422
   65MOL    H7639884   2.249   6.980   3.205 -0.4039 -1.2284 -1.5658
   65MOL    H7739885   2.405   7.039   3.149 -1.9521  1.8162  0.7933
   65MOL    H7839886   2.518   6.999   3.364 -0.3749 -2.7540  0.1829
   65MOL    H7939887   2.363   6.941   3.437 -2.0448 -0.2580 -1.1662
   65MOL    H8039888   2.422   7.213   3.332 -1.3966  0.5031  0.0701
   65MOL    H8139889   2.267   7.170   3.389  0.2783  0.5595  0.9731
   65MOL    H8239890   2.339   7.114   3.608 -1.8978  2.0081  0.8109
   65MOL    H8339891   2.500   7.173   3.572 -0.6867  1.2949  3.8500
   65MOL    H8439892   2.238   7.344   3.544 -0.2490  2.8542  0.7801
   65MOL    H8539893   2.344   7.323   3.678  2.1797 -0.9125 -0.4290
   65MOL    H8639894   2.487   7.439   3.437 -0.2546 -1.7582  0.0483
   65MOL    H8739895   2.522   7.447   3.613 -0.5664  1.9034  0.5982
   65MOL    H8839896   2.330   7.568   3.662 -1.9219  0.0133 -0.5606
   65MOL    H8939897   2.460   7.652   3.570  0.0849  0.2740  4.4513
   65MOL    H9039898   2.186   7.564   3.465  0.6197 -1.6428 -0.9629
   65MOL    H9139899   2.317   7.638   3.366 -2.0349  0.0422 -0.0385
   65MOL    H9239900   2.234   7.727   3.492 -0.0991  0.5774  0.6744
   65MOL    H9339901   2.292   6.531   3.234  0.6233 -0.7351 -2.0940
   65MOL    H9439902   2.439   6.589   3.151  0.9839 -0.5151  0.8221
   65MOL    C9539903   2.450   6.599   3.361  1.0348  0.5467  0.0111
   65MOL    O9639904   2.515   6.472   3.370 -0.5467 -0.7459 -0.2517
   65MOL    C9739905   2.649   6.467   3.317  0.2397 -0.0477  0.4771
   65MOL    C9839906   2.717   6.333   3.345 -0.3932 -0.5888  0.4034
   65MOL    C9939907   2.733   6.282   3.496 -0.2727 -0.1374 -0.5246
   65MOL   C10039908   2.843   6.178   3.528 -0.2541 -0.4638  0.1896
   65MOL   C10139909   2.851   6.136   3.682  0.1296  0.7469  0.3950
   65MOL   C10239910   2.759   6.013   3.705 -0.1595  0.2097 -0.5147
   65MOL   C10339911   2.806   5.879   3.658 -0.0515  0.0562  0.1124
   65MOL   C10439912   2.744   5.760   3.733 -0.8051  0.1054  0.3112
   65MOL   C10539913   2.372   6.606   3.486  0.6016  0.3932 -0.7708
   65MOL   H10639914   2.529   6.675   3.355 -0.9380  2.7468  1.1231
   65MOL   H10739915   2.715   6.544   3.358  0.8541 -0.0891 -0.4080
   65MOL   H10839916   2.656   6.490   3.210  0.5216 -0.5035  0.3981
   65MOL   H10939917   2.817   6.345   3.305 -0.7978  1.2112 -0.1184
   65MOL   H11039918   2.661   6.268   3.279 -0.3645 -0.0132 -0.1974
   65MOL   H11139919   2.748   6.373   3.554 -0.2306 -0.9958  0.8128
   65MOL   H11239920   2.645   6.230   3.532 -0.0177 -1.3466 -1.5929
   65MOL   H11339921   2.833   6.087   3.468  0.4271 -0.3894 -0.0410
   65MOL   H11439922   2.945   6.216   3.523 -0.1102 -0.1868  3.8750
   65MOL   H11539923   2.949   6.104   3.718 -0.9130 -2.9374  0.0863
   65MOL   H11639924   2.818   6.211   3.754 -0.6978 -0.0716  0.8719
   65MOL   H11739925   2.667   6.029   3.648  0.0093  0.1716 -0.8023
   65MOL   H11839926   2.746   6.009   3.813  1.5498 -0.7067 -0.3183
   65MOL   H11939927   2.789   5.866   3.551  0.3588 -1.4424  0.2128
   65MOL   H12039928   2.915   5.870   3.663  0.0345 -0.0291 -1.5842
   65MOL   H12139929   2.643   5.740   3.696 -1.1119 -2.3470  2.3656
   65MOL   H12239930   2.742   5.770   3.841 -0.9931 -0.8517  0.4010
   65MOL   H12339931   2.808   5.674   3.715 -0.0597  1.1799 -2.4923
   65MOL   H12439932   2.299   6.687   3.481 -0.4393 -0.6246 -2.3133
   65MOL   H12539933   2.326   6.510   3.508 -0.5493  0.7300 -1.6904
   65MOL   C12639934   2.459   6.632   3.619  0.0087 -0.5666 -0.4649
   65MOL   O12739935   2.424   6.545   3.730 -0.2360  0.1642 -0.1391
   65MOL   C12839936   2.470   6.415   3.712 -0.3837  0.5737 -0.3989
   65MOL   C12939937   2.405   6.326   3.822  0.0621  0.4073 -0.2556
   65MOL   C13039938   2.456   6.178   3.824 -0.0456 -0.4237 -0.6593
   65MOL   C13139939   2.416   6.083   3.938 -0.4035  0.4359 -0.4205
   65MOL   C13239940   2.507   5.960   3.952  0.0591 -0.2475 -0.4339
   65MOL   C13339941   2.443   5.856   4.040 -0.0859 -0.2653 -0.1896
   65MOL   C13439942   2.519   5.727   4.029  0.0385  0.3387 -0.6971
   65MOL   C13539943   2.649   5.724   4.117 -0.0154 -0.0119 -0.2885
   65MOL   C13639944   2.444   6.774   3.666 -0.2290  0.3559  0.1198
   65MOL   H13739945   2.565   6.612   3.605  0.3553  1.2108 -0.3864
   65MOL   H13839946   2.579   6.411   3.720 -0.4023 -1.8649 -1.1692
   65MOL   H13939947   2.445   6.380   3.612 -4.9484  0.9205  0.5216
   65MOL   H14039948   2.299   6.312   3.800  0.4935 -1.7136 -1.1424
   65MOL   H14139949   2.419   6.359   3.925  3.5864 -0.6579 -0.3327
   65MOL   H14239950   2.427   6.135   3.728  1.4484 -0.0015 -1.3016
   65MOL   H14339951   2.564   6.184   3.832 -0.2078  0.8091  0.8274
   65MOL   H14439952   2.414   6.144   4.029  0.0312 -1.0930  0.6320
   65MOL   H14539953   2.309   6.062   3.941 -0.8698  2.7873  3.9039
   65MOL   H14639954   2.524   5.928   3.849  0.3025 -2.3329  0.2251
   65MOL   H14739955   2.605   5.987   3.992 -0.5472  0.4545  0.6210
   65MOL   H14839956   2.336   5.848   4.020 -0.4216  0.4951  1.2777
   65MOL   H14939957   2.457   5.900   4.138 -0.7942  1.4031 -0.8335
   65MOL   H15039958   2.454   5.653   4.075 -0.4214  2.2578  1.9077
   65MOL   H15139959   2.544   5.701   3.927 -0.2097  0.1027 -0.6951
   65MOL   H15239960   2.727   5.787   4.072 -2.5002  1.7119 -2.3615
   65MOL   H15339961   2.696   5.628   4.136  0.4350  0.3458  0.4198
   65MOL   H15439962   2.636   5.761   4.219 -0.3033  0.3204 -0.4439
   65MOL   H15539963   2.461   6.831   3.576  2.0302 -1.0585 -0.3954
   65MOL   H15639964   2.339   6.795   3.684  0.0325  1.4379  0.4440
   65MOL   C15739965   2.529   6.818   3.795  0.0306 -0.2223 -0.1857
   65MOL   O15839966   2.490   6.956   3.809 -0.1535  0.2172 -0.2405
   65MOL   C15939967   2.478   6.981   3.953  0.2758 -0.0184  0.0625
   65MOL   C16039968   2.449   7.130   3.974  0.3864  0.5350 -0.5544
   65MOL   C16139969   2.573   7.221   3.955 -0.3281  0.5593  0.0653
   65MOL   C16239970   2.531   7.374   3.969  0.0157 -0.2266  0.3792
   65MOL   C16339971   2.473   7.421   4.105 -0.2689 -0.5555 -0.0471
   65MOL   C16439972   2.582   7.441   4.203  0.0132  0.1376  0.2924
   65MOL   C16539973   2.537   7.514   4.331  0.3075  0.1687 -0.2355
   65MOL   C16639974   2.648   7.552   4.421  0.2015 -0.0279  0.2175
   65MOL   C16739975   2.682   6.809   3.780  0.1117 -0.7971  0.4449
   65MOL   H16839976   2.493   6.757   3.878  1.3321  0.1753  0.6838
   65MOL   H16939977   2.567   6.948   4.007 -1.2325  0.2156  2.7841
   65MOL   H17039978   2.392   6.917   3.976 -1.2454  1.2747 -1.9091
   65MOL   H17139979   2.400   7.139   4.070  1.8679 -0.5321  0.3299
   65MOL   H17239980   2.374   7.153   3.899 -0.5996  1.5980  0.7445
   65MOL   H17339981   2.654   7.205   4.026  0.1584 -0.8366 -0.7868
   65MOL   H17439982   2.604   7.205   3.851  1.8780 -0.9200  0.9113
   65MOL   H17539983   2.607   7.440   3.928 -1.4358  0.8467 -0.6421
   65MOL   H17639984   2.454   7.394   3.894 -0.8825  1.1705  1.6572
   65MOL   H17739985   2.409   7.508   4.097  0.8644  0.0847 -3.0222
   65MOL   H17839986   2.407   7.350   4.155 -1.0838  0.2685  0.0547
   65MOL   H17939987   2.664   7.494   4.154 -0.2474 -1.0783 -1.5371
   65MOL   H18039988   2.631   7.349   4.235  0.0234  0.8079  2.2754
   65MOL   H18139989   2.496   7.612   4.308  0.6619  0.7627  1.5955
   65MOL   H18239990   2.454   7.468   4.386  2.1112 -1.3215  1.3195
   65MOL   H18339991   2.711   7.635   4.391  1.4295 -1.7774 -2.2370
   65MOL   H18439992   2.718   7.470   4.434 -0.0369 -0.0769  1.2469
   65MOL   H18539993   2.607   7.576   4.519  0.0927 -1.2417  0.4791
   65MOL   H18639994   2.714   6.817   3.676  2.1384  1.5285  1.1887
   65MOL   H18739995   2.737   6.894   3.821 -0.7669  1.1240 -2.2621
   65MOL   C18839996   2.750   6.686   3.836 -0.5053  1.2496  0.5137
   65MOL   O18939997   2.736   6.675   3.979  0.5434  0.1911 -0.2426
   65MOL   C19039998   2.656   6.565   4.021 -0.2610 -0.0187  0.1796
   65MOL   C19139999   2.639   6.570   4.177 -0.0246  0.6596  0.2272
   65MOL   C19240000   2.530   6.673   4.217  0.3686  0.3490  0.7006
   65MOL   C19340001   2.520   6.686   4.373  0.1693  0.0467 -0.5533
   65MOL   C19440002   2.417   6.791   4.430  0.1621  0.3727  0.0199
   65MOL   C19540003   2.453   6.940   4.399 -0.2015 -0.7020  0.3286
   65MOL   C19640004   2.335   7.027   4.427  0.1999 -0.7881 -0.0331
   65MOL   C19740005   2.374   7.178   4.405  0.2427  0.4521  0.2052
   65MOL   C19840006   2.901   6.706   3.811 -0.5350  0.4671  0.1695
   65MOL   H19940007   2.710   6.597   3.788 -0.0176  1.6088 -0.5826
   65MOL   H20040008   2.557   6.572   3.976 -0.2888  0.4337  0.3081
   65MOL   H20140009   2.708   6.476   3.984 -2.4505 -0.9534 -0.7187
   65MOL   H20240010   2.732   6.603   4.223 -1.6508  2.6920  2.2019
   65MOL   H20340011   2.624   6.473   4.224  1.9868  1.1195  1.8728
   65MOL   H20440012   2.544   6.765   4.161  1.3623 -0.1411  0.1117
   65MOL   H20540013   2.431   6.635   4.191  0.6531  0.4511 -0.5950
   65MOL   H20640014   2.506   6.598   4.435 -1.0393  0.2640 -0.4959
   65MOL   H20740015   2.619   6.717   4.406  0.4010 -1.3424  0.0703
   65MOL   H20840016   2.320   6.765   4.390 -0.1880  0.8920  0.5206
   65MOL   H20940017   2.409   6.787   4.539 -0.5628  1.5847  0.0255
   65MOL   H21040018   2.473   6.960   4.294 -1.4257  1.6090  0.4893
   65MOL   H21140019   2.543   6.966   4.455 -0.6011  1.0965  0.1652
   65MOL   H21240020   2.253   6.998   4.360  1.7239 -1.8702 -1.4553
   65MOL   H21340021   2.289   7.006   4.524  1.1504 -1.2157  0.3214
   65MOL   H21440022   2.462   7.196   4.468  1.3655 -2.2810 -0.5120
   65MOL   H21540023   2.292   7.243   4.435 -1.1429 -1.4656  0.6313
   65MOL   H21640024   2.396   7.202   4.300 -1.6442 -2.2897 -0.8657
   65MOL   H21740025   2.912   6.709   3.702  0.4571  2.0282  0.2989
   65MOL   H21840026   2.939   6.802   3.847 -0.5068  0.6725 -0.4043
   65MOL   C21940027   2.995   6.608   3.875 -0.4004 -0.1501  0.0170
   65MOL   O22040028   3.130   6.654   3.842  0.3176 -0.2424 -0.5119
   65MOL   C22140029   3.194   6.703   3.960 -0.0188 -0.9585  0.3080
   65MOL   C22240030   3.337   6.744   3.925 -0.3168 -1.0679  0.0940
   65MOL   C22340031   3.414   6.631   3.860  0.2663 -0.0725 -0.1540
   65MOL   C22440032   3.561   6.656   3.855 -0.3538 -0.2297  0.2373
   65MOL   C22540033   3.647   6.562   3.772 -0.1175  0.0114 -0.0518
   65MOL   C22640034   3.675   6.425   3.834 -0.8490 -0.0483  0.4119
   65MOL   C22740035   3.721   6.309   3.747  0.4650  0.3359 -0.5657
   65MOL   C22840036   3.859   6.344   3.681  0.2610  0.1497  0.2275
   65MOL   C22940037   2.979   6.457   3.833  0.5297 -0.0599 -0.3155
   65MOL   H23040038   2.968   6.621   3.979  0.1100  2.5510 -0.1572
   65MOL   H23140039   3.199   6.631   4.042 -0.1323  0.0348  1.1909
   65MOL   H23240040   3.139   6.786   4.004 -1.3096 -0.9515 -1.2854
   65MOL   H23340041   3.387   6.771   4.017  0.0035  1.1379 -0.6991
   65MOL   H23440042   3.333   6.830   3.858  0.3116 -0.6021  0.6570
   65MOL   H23540043   3.398   6.540   3.918 -0.8107  1.0447  1.3449
   65MOL   H23640044   3.381   6.623   3.757 -2.7736 -0.5913  0.8125
   65MOL   H23740045   3.572   6.757   3.817  0.1674  0.0645  1.1592
   65MOL   H23840046   3.595   6.658   3.959 -0.4045  0.3892  0.2410
   65MOL   H23940047   3.589   6.552   3.680 -0.1094  1.1603 -0.1821
   65MOL   H24040048   3.736   6.621   3.751  0.9427 -0.2315  3.4592
   65MOL   H24140049   3.601   6.406   3.911  2.0425  1.5002  3.6804
   65MOL   H24240050   3.757   6.441   3.903  0.5985  2.2857 -1.7691
   65MOL   H24340051   3.735   6.232   3.823  0.0074 -0.1373 -0.9558
   65MOL   H24440052   3.642   6.280   3.677 -1.7534  0.9878  1.5953
   65MOL   H24540053   3.903   6.250   3.650 -0.4985 -0.4346  0.9028
   65MOL   H24640054   3.926   6.390   3.753 -0.9132 -3.3371  3.7167
   65MOL   H24740055   3.848   6.417   3.600  0.0039  0.6397  0.6958
   65MOL   H24840056   2.883   6.427   3.874  0.3165  0.0591 -0.7226
   65MOL   H24940057   2.963   6.450   3.725 -1.9131 -0.6953  0.0487
   65MOL   C25040058   3.093   6.366   3.892  0.2486 -0.5006 -0.8558
   65MOL   O25140059   3.133   6.276   3.790  0.6374 -0.6949 -0.0936
   65MOL   C25240060   3.239   6.325   3.707  0.1850 -0.5506 -0.3910
   65MOL   C25340061   3.269   6.216   3.596  0.3234 -0.1016 -0.6065
   65MOL   C25440062   3.277   6.065   3.642  0.1730  0.0258 -0.1017
   65MOL   C25540063   3.317   5.967   3.528  0.0924  0.8617 -0.3336
   65MOL   C25640064   3.464   5.978   3.479 -0.8331  0.0643  0.3469
   65MOL   C25740065   3.557   5.885   3.564 -0.6788  0.2650  0.0277
   65MOL   C25840066   3.706   5.911   3.553 -0.8450 -0.5282  0.4024
   65MOL   C25940067   3.755   5.908   3.404 -0.2058 -0.1421 -0.6783
   65MOL   C26040068   3.037   6.277   4.014 -0.3281  0.3980  0.3858
   65MOL   H26140069   3.171   6.433   3.930 -2.7539  1.4901  2.0342
   65MOL   H26240070   3.335   6.344   3.754 -0.7230  1.7306  0.6330
   65MOL   H26340071   3.202   6.416   3.660  1.7268 -1.3881 -3.3331
   65MOL   H26440072   3.357   6.242   3.537  0.5752 -1.6889 -0.9408
   65MOL   H26540073   3.192   6.222   3.518 -0.1039  2.9192 -0.0334
   65MOL   H26640074   3.346   6.062   3.727  0.3220  1.2057 -0.1637
   65MOL   H26740075   3.177   6.036   3.673  0.0129 -1.5867 -2.0624
   65MOL   H26840076   3.298   5.861   3.544  2.1097  0.1749 -2.2176
   65MOL   H26940077   3.250   5.983   3.444 -0.6510  1.2311  0.3336
   65MOL   H27040078   3.475   5.954   3.374  2.2107 -0.0965  0.6365
   65MOL   H27140079   3.501   6.079   3.499 -0.7219 -0.5080  3.3776
   65MOL   H27240080   3.531   5.780   3.548 -0.9419  0.4415 -0.7014
   65MOL   H27340081   3.512   5.892   3.663 -0.1558  1.7256  0.1711
   65MOL   H27440082   3.747   6.004   3.593 -0.8937 -0.0050 -0.7266
   65MOL   H27540083   3.758   5.829   3.604  1.2397  1.2263  1.1735
   65MOL   H27640084   3.721   5.814   3.360  1.8073 -2.1049  1.8402
   65MOL   H27740085   3.863   5.917   3.399  0.1537 -0.9527  3.5816
   65MOL   H27840086   3.725   5.995   3.345  2.7084  1.3383 -0.0646
   65MOL   H27940087   3.007   6.345   4.094  0.7993  0.2100  0.9798
   65MOL   H28040088   2.944   6.232   3.979 -0.9086  3.5229 -2.3510
   65MOL   C28140089   3.133   6.166   4.053  0.1616  0.3997 -0.4254
   65MOL   O28240090   3.071   6.085   4.153  0.5700 -0.1436 -0.4942
   65MOL   C28340091   2.985   5.983   4.113 -0.1265 -0.6757  0.0870
   65MOL   C28440092   2.973   5.891   4.242  0.1133 -0.4504  0.0877
   65MOL   C28540093   3.089   5.796   4.270 -0.1109  0.5011  0.5627
   65MOL   C28640094   3.129   5.781   4.423  0.0302 -0.2202 -0.4558
   65MOL   C28740095   3.190   5.908   4.484  0.4809 -0.0919 -0.2409
   65MOL   C28840096   3.253   5.870   4.619 -0.1353  0.7666 -0.3098
   65MOL   C28940097   3.297   5.987   4.700  0.0703  0.5277  0.1652
   65MOL   C29040098   3.382   5.945   4.824  0.2286 -0.2439 -0.4004
   65MOL   C29140099   3.260   6.213   4.118 -0.4535  0.1121 -0.6324
   65MOL   H29240100   3.155   6.102   3.967  0.5529  1.2960 -0.9946
   65MOL   H29340101   3.025   5.926   4.031 -1.4643  0.3567 -1.3167
   65MOL   H29440102   2.889   6.029   4.087  0.9014 -0.2618 -3.1519
   65MOL   H29540103   2.885   5.827   4.247  0.2235 -0.6137 -0.0694
   65MOL   H29640104   2.949   5.953   4.328 -1.8601 -1.0267 -0.0086
   65MOL   H29740105   3.066   5.694   4.238 -0.1010  0.8942 -0.7234
   65MOL   H29840106   3.180   5.826   4.217 -0.4334  0.2650 -0.1376
   65MOL   H29940107   3.040   5.750   4.477 -0.5357  0.4704 -0.9912
   65MOL   H30040108   3.194   5.696   4.445  0.1272 -0.2045 -0.6882
   65MOL   H30140109   3.270   5.939   4.417 -0.4884 -0.8151 -1.7540
   65MOL   H30240110   3.121   5.991   4.495 -0.8511 -1.2514  0.4665
   65MOL   H30340111   3.331   5.794   4.616 -1.6451 -0.8386  0.5480
   65MOL   H30440112   3.167   5.830   4.673 -0.3320  0.4889 -0.8287
   65MOL   H30540113   3.352   6.057   4.637 -0.4540  0.5195 -0.3031
   65MOL   H30640114   3.210   6.046   4.730 -0.6027 -1.6872  2.8082
   65MOL   H30740115   3.483   5.923   4.791  0.2036 -0.2488 -0.4741
   65MOL   H30840116   3.343   5.861   4.882  2.8834 -1.1743  0.0941
   65MOL   H30940117   3.379   6.031   4.891  1.0025  0.7189 -1.5926
   65MOL   H31040118   3.315   6.285   4.057  0.5386 -0.0740  0.0222
   65MOL   H31140119   3.243   6.262   4.214 -0.0068 -0.6455 -0.1563
   65MOL   C31240120   3.372   6.114   4.146 -0.0130  0.8440  0.2403
   65MOL   O31340121   3.475   6.182   4.209 -0.7530  0.4332  0.1222
   65MOL   C31440122   3.476   6.198   4.350 -0.3711 -0.5165 -0.4583
   65MOL   C31540123   3.598   6.289   4.377  0.2457 -0.3404 -0.4330
   65MOL   C31640124   3.577   6.430   4.334 -0.0335 -0.3897  1.2886
   65MOL   C31740125   3.706   6.517   4.345 -0.4247 -0.2995  0.0282
   65MOL   C31840126   3.698   6.653   4.268 -0.0362  0.5860  0.5063
   65MOL   C31940127   3.579   6.737   4.310  0.2638  0.4061 -0.3196
   65MOL   C32040128   3.569   6.874   4.237 -0.4791 -0.1134  0.1259
   65MOL   C32140129   3.485   6.973   4.318  0.5961 -0.0617 -0.0287
   65MOL   C32240130   3.441   6.060   4.012 -1.0590  0.8098  0.1170
   65MOL   H32340131   3.341   6.026   4.202 -0.4983  1.4781  0.9768
   65MOL   H32440132   3.481   6.102   4.402  0.5170 -1.0395 -1.5133
   65MOL   H32540133   3.386   6.254   4.376 -0.1552 -0.9345  1.2876
   65MOL   H32640134   3.679   6.250   4.316  0.9921  1.2430 -0.4624
   65MOL   H32740135   3.635   6.285   4.479 -0.6380 -1.8278 -0.1504
   65MOL   H32840136   3.536   6.437   4.233  1.5739  0.7019  0.6923
   65MOL   H32940137   3.500   6.477   4.394 -1.6959 -0.4839 -0.6984
   65MOL   H33040138   3.737   6.533   4.448  1.0448 -0.8596 -0.3160
   65MOL   H33140139   3.791   6.466   4.299  1.0681  0.3685  1.9976
   65MOL   H33240140   3.787   6.711   4.288  2.2320 -1.7877 -2.2801
   65MOL   H33340141   3.678   6.618   4.167 -3.5462  0.3741  1.1901
   65MOL   H33440142   3.579   6.751   4.418 -0.1453 -0.0282 -0.2618
   65MOL   H33540143   3.486   6.683   4.294  1.4727 -1.4678 -1.2419
   65MOL   H33640144   3.667   6.920   4.228 -1.6332  2.5259  0.5606
   65MOL   H33740145   3.526   6.862   4.137  0.7807 -1.3724 -0.2820
   65MOL   H33840146   3.381   6.974   4.285 -0.4563  2.9698  3.1387
   65MOL   H33940147   3.518   7.077   4.314  2.4796 -0.6898 -1.4412
   65MOL   H34040148   3.476   6.954   4.425  0.9244 -0.5922 -0.0943
   65MOL   H34140149   3.380   6.081   3.924 -0.5370  0.1712 -0.4039
   65MOL   H34240150   3.538   6.105   3.992  0.4647 -1.2208  2.5416
   65MOL   C34340151   3.476   5.908   4.017 -0.6082  0.1795 -0.4479
   65MOL   O34440152   3.361   5.820   4.032  0.1572  0.5349 -0.8862
   65MOL   C34540153   3.274   5.816   3.923 -0.0779 -0.1543 -0.1252
   65MOL   C34640154   3.304   5.686   3.845 -0.0264  0.4696  0.2831
   65MOL   C34740155   3.272   5.558   3.916  0.1670  0.2428 -0.1902
   65MOL   C34840156   3.316   5.427   3.851 -0.3946 -0.0014  0.2402
   65MOL   C34940157   3.263   5.316   3.937 -0.1936 -0.4541  0.0998
   65MOL   C35040158   3.324   5.183   3.895 -0.0745  0.1709 -0.0830
   65MOL   C35140159   3.306   5.065   3.988  0.2691 -0.0930  1.4487
   65MOL   C35240160   3.344   4.936   3.922 -0.5027  0.2980 -0.3187
   65MOL   C35340161   3.561   5.868   4.145 -0.4240 -0.1599 -0.3499
   65MOL   H35440162   3.537   5.878   3.933 -0.1993  0.4846 -0.2603
   65MOL   H35540163   3.300   5.902   3.860  1.5650 -2.0228 -2.1160
   65MOL   H35640164   3.172   5.830   3.956 -0.4734 -1.6053 -0.7356
   65MOL   H35740165   3.410   5.677   3.821 -0.2464 -1.6834  0.0211
   65MOL   H35840166   3.257   5.700   3.748 -1.1523 -0.1571  0.7227
   65MOL   H35940167   3.299   5.578   4.020  1.9675  3.2739 -1.1658
   65MOL   H36040168   3.163   5.557   3.929  0.4077  0.5886  2.1014
   65MOL   H36140169   3.285   5.422   3.747  0.6595 -1.0094 -0.0292
   65MOL   H36240170   3.425   5.420   3.849 -0.4676 -1.5244  1.4450
   65MOL   H36340171   3.297   5.326   4.041 -0.9826 -0.5313  0.3671
   65MOL   H36440172   3.155   5.307   3.934 -0.3227  1.3569 -1.2152
   65MOL   H36540173   3.427   5.201   3.863 -0.3269 -1.2875 -1.7602
   65MOL   H36640174   3.281   5.155   3.799 -0.1027 -1.6125  0.4436
   65MOL   H36740175   3.362   5.087   4.079  4.0698  1.4863 -1.2096
   65MOL   H36840176   3.201   5.080   4.014  0.6831  1.7575  2.1053
   65MOL   H36940177   3.288   4.914   3.831  0.2801 -1.4693 -0.3956
   65MOL   H37040178   3.330   4.853   3.992 -0.8587 -0.8232 -1.6966
   65MOL   H37140179   3.449   4.935   3.892 -0.7280  0.1456 -1.1049
   65MOL   H37240180   3.652   5.928   4.149 -0.2861 -0.2936 -1.4075
   65MOL   H37340181   3.502   5.886   4.234 -0.0112  0.7470 -0.2525
   65MOL   C37440182   3.607   5.717   4.136  0.8154  0.5727 -0.4369
   65MOL   O37540183   3.623   5.652   4.263  0.2693 -0.4470 -0.3276
   65MOL   C37640184   3.502   5.620   4.334  0.5120 -0.3033  0.1735
   65MOL   C37740185   3.469   5.467   4.325  0.0982  0.2725  0.6476
   65MOL   C37840186   3.582   5.376   4.362 -1.4070 -0.6099 -0.3375
   65MOL   C37940187   3.542   5.230   4.362 -0.3928 -0.2933 -0.4629
   65MOL   C38040188   3.657   5.131   4.400  0.3428 -0.3521  0.8696
   65MOL   C38140189   3.706   5.136   4.542  0.6312  0.1768  0.3256
   65MOL   C38240190   3.602   5.083   4.640 -0.0635  0.2686 -0.1952
   65MOL   C38340191   3.654   5.067   4.782 -0.0507  0.1454  0.1602
   65MOL   C38440192   3.738   5.690   4.059 -0.3908 -0.1675 -0.1259
   65MOL   H38540193   3.535   5.655   4.083 -0.1421  1.1899  0.1152
   65MOL   H38640194   3.415   5.677   4.301  0.4691 -0.3350  0.2317
   65MOL   H38740195   3.523   5.646   4.437 -1.7968 -1.6553  1.0186
   65MOL   H38840196   3.447   5.441   4.221  1.6386 -1.5013  0.7194
   65MOL   H38940197   3.378   5.450   4.382 -0.8017  1.3857 -0.4662
   65MOL   H39040198   3.665   5.388   4.293  1.3697 -1.3511  2.7704
   65MOL   H39140199   3.620   5.418   4.455 -0.4886 -1.1135 -0.4746
   65MOL   H39240200   3.459   5.214   4.431  0.0711 -1.9350 -0.2555
   65MOL   H39340201   3.507   5.211   4.261 -0.6132 -0.1985 -0.4046
   65MOL   H39440202   3.624   5.031   4.370 -0.3982 -0.6924  2.7883
   65MOL   H39540203   3.746   5.150   4.339  0.8687 -0.2435  1.6601
   65MOL   H39640204   3.732   5.242   4.551  2.5849 -0.1997 -0.6907
   65MOL   H39740205   3.794   5.073   4.548 -0.4097 -1.3553 -0.3720
   65MOL   H39840206   3.511   5.142   4.633  0.4705  1.1982  0.5787
   65MOL   H39940207   3.567   4.989   4.598  0.5806 -0.5306  1.0205
   65MOL   H40040208   3.678   5.171   4.803 -1.0794  0.1002  1.5960
   65MOL   H40140209   3.744   5.007   4.798 -0.4637 -0.6684 -0.5537
   65MOL   H40240210   3.574   5.038   4.849  0.2445  0.4615  0.6552
   65MOL   H40340211   3.745   5.760   3.976  0.0680 -0.4867 -0.3524
   65MOL   H40440212   3.821   5.718   4.124  1.0752 -1.5798 -1.3423
   65MOL   C40540213   3.759   5.547   4.014 -0.5099 -0.1719 -0.0456
   65MOL   O40640214   3.897   5.519   4.018 -0.9400 -0.2529  0.8252
   65MOL   C40740215   3.942   5.482   4.147 -0.1841  0.9708 -0.8917
   65MOL   C40840216   4.076   5.413   4.119  0.0349  0.9089  0.3127
   65MOL   C40940217   4.122   5.325   4.233 -0.1716 -0.4759  0.7882
   65MOL   C41040218   4.260   5.257   4.207 -0.6687  0.1567 -0.2564
   65MOL   C41140219   4.321   5.178   4.321  0.7935 -0.2196 -0.5771
   65MOL   C41240220   4.471   5.144   4.305  0.3406  0.1389 -0.1219
   65MOL   C41340221   4.485   5.040   4.196 -0.2142 -0.3092 -0.4677
   65MOL   C41440222   4.625   5.006   4.160 -0.4404 -0.2473  0.2619
   65MOL   C41540223   3.720   5.536   3.867 -0.6487  0.0003 -0.2593
   65MOL   H41640224   3.702   5.484   4.082  0.3395 -1.4774 -0.5083
   65MOL   H41740225   3.881   5.418   4.209  0.3723  1.6502  0.3726
   65MOL   H41840226   3.960   5.572   4.206 -1.3653  1.1828 -0.8359
   65MOL   H41940227   4.156   5.485   4.100 -0.3795  1.2403 -0.1748
   65MOL   H42040228   4.055   5.346   4.036  0.9339 -0.1831  0.9569
   65MOL   H42140229   4.119   5.379   4.328  0.3433  0.3429  0.3416
   65MOL   H42240230   4.051   5.244   4.248 -0.3105 -0.5738 -0.3678
   65MOL   H42340231   4.238   5.197   4.119 -1.1740  1.0606 -0.7562
   65MOL   H42440232   4.337   5.329   4.181 -0.5460 -0.3624 -1.3466
   65MOL   H42540233   4.312   5.239   4.411  0.2014 -0.3522 -0.5452
   65MOL   H42640234   4.272   5.081   4.327 -0.0503  0.2155 -0.4506
   65MOL   H42740235   4.512   5.116   4.402 -0.2083 -0.8122 -0.1620
   65MOL   H42840236   4.536   5.221   4.262 -2.1482  1.5550 -1.4521
   65MOL   H42940237   4.439   4.945   4.223 -1.0346  1.2134  3.9642
   65MOL   H43040238   4.435   5.085   4.110  2.4180  3.9929  0.0761
   65MOL   H43140239   4.632   4.944   4.070  4.0435  0.0888  0.2884
   65MOL   H43240240   4.672   4.948   4.238  1.3931 -0.1497 -0.7492
   65MOL   H43340241   4.679   5.097   4.135  3.3074 -2.4426 -0.0835
   65MOL   H43440242   3.616   5.503   3.860 -1.3282  1.8755  0.4376
   65MOL   H43540243   3.723   5.631   3.814 -0.5555  0.0956 -0.0851
   65MOL   C43640244   3.789   5.422   3.792  0.4075  0.3261 -0.4998
   65MOL   O43740245   3.745   5.434   3.657  0.2781  0.5037 -0.1089
   65MOL   C43840246   3.831   5.503   3.571 -0.2853  0.1223 -0.2060
   65MOL   C43940247   3.834   5.448   3.424 -0.0566 -0.3332  0.2911
   65MOL   C44040248   3.895   5.542   3.321 -0.2208  0.1429  0.1318
   65MOL   C44140249   3.873   5.516   3.174  0.4411 -0.4768  0.3159
   65MOL   C44240250   3.951   5.606   3.080 -0.6022  0.3635 -0.7351
   65MOL   C44340251   3.909   5.613   2.936  0.3169  0.2050  0.1597
   65MOL   C44440252   3.998   5.707   2.858  0.1016 -0.6320  0.2586
   65MOL   C44540253   3.970   5.716   2.706  0.5492 -0.3700  0.0155
   65MOL   C44640254   3.752   5.271   3.829 -0.1433 -0.3086 -0.1581
   65MOL   H44740255   3.897   5.436   3.799  0.5182 -0.3599 -0.7516
   65MOL   H44840256   3.802   5.608   3.564  0.5349  0.2737 -1.5720
   65MOL   H44940257   3.928   5.521   3.617  0.5360 -0.9506 -1.5008
   65MOL   H45040258   3.732   5.424   3.396  0.5118 -1.8714 -0.5210
   65MOL   H45140259   3.896   5.358   3.426  0.8423  0.2926  1.8550
   65MOL   H45240260   3.859   5.645   3.325  2.6112  1.3693 -3.0418
   65MOL   H45340261   4.002   5.557   3.335 -0.8614  2.7152  2.7158
   65MOL   H45440262   3.909   5.415   3.162  1.8547  0.1784 -1.1233
   65MOL   H45540263   3.771   5.523   3.135  0.6139  0.8483  0.0671
   65MOL   H45640264   3.939   5.707   3.119 -0.0364  0.2550 -0.2646
   65MOL   H45740265   4.059   5.600   3.083 -0.5639  0.6750 -1.4933
   65MOL   H45840266   3.804   5.642   2.926 -0.0023 -0.5441  1.2227
   65MOL   H45940267   3.906   5.510   2.900 -2.1839  0.4856 -0.5591
   65MOL   H46040268   4.003   5.804   2.906  0.6853 -1.4821  1.9299
   65MOL   H46140269   4.102   5.677   2.864  0.9850  1.8778 -1.6051
   65MOL   H46240270   3.908   5.804   2.689 -0.8602 -1.4308 -0.3793
   65MOL   H46340271   3.908   5.628   2.691 -1.5292  0.5983  2.5143
   65MOL   H46440272   4.061   5.717   2.646  0.7948  2.5194  0.3415
   65MOL   H46540273   3.759   5.261   3.937 -3.8889  0.8658  0.2556
   65MOL   H46640274   3.647   5.252   3.806  0.1562 -0.7659 -1.2027
   65MOL   C46740275   3.834   5.161   3.748 -0.4890 -0.2901  0.9446
   65MOL   O46840276   3.785   5.039   3.785 -0.5958 -0.0300  0.2984
   65MOL   C46940277   3.677   4.986   3.713 -0.4961 -0.2565 -0.2082
   65MOL   C47040278   3.666   4.834   3.736  0.2559 -0.3771 -0.3253
   65MOL   C47140279   3.793   4.763   3.685 -0.6820 -0.0771  0.3792
   65MOL   C47240280   3.775   4.609   3.680 -0.0532 -0.1433 -0.3429
   65MOL   C47340281   3.749   4.545   3.815  0.8188 -0.2453 -0.3098
   65MOL   C47440282   3.795   4.397   3.841  0.0439 -0.6165  0.1248
   65MOL   C47540283   3.772   4.356   3.990  0.2394 -0.5596  0.1778
   65MOL   C47640284   3.838   4.226   4.019  0.3988  0.2911  0.4912
   65MOL   C47740285   3.985   5.158   3.765 -0.3839  0.6080  0.0656
   65MOL   H47840286   3.806   5.178   3.644 -1.6576  0.9277  1.4342
   65MOL   H47940287   3.684   5.015   3.608 -1.4389  3.3728  0.6472
   65MOL   H48040288   3.586   5.034   3.750  0.1902 -0.0660  1.2773
   65MOL   H48140289   3.577   4.803   3.682  0.0265  1.3229 -0.9357
   65MOL   H48240290   3.652   4.816   3.843  0.3141  0.1829 -0.2238
   65MOL   H48340291   3.808   4.800   3.583  2.1239 -1.4295  0.2696
   65MOL   H48440292   3.874   4.799   3.748 -0.0955 -1.1824  0.2699
   65MOL   H48540293   3.700   4.575   3.609 -1.1149  2.1239 -0.3320
   65MOL   H48640294   3.868   4.566   3.643  0.7640  1.7487 -0.5588
   65MOL   H48740295   3.796   4.606   3.892 -2.2948  1.0619  0.6506
   65MOL   H48840296   3.643   4.547   3.841  1.5033  4.2793  2.7470
   65MOL   H48940297   3.902   4.401   3.818 -0.2078  2.6699 -0.6500
   65MOL   H49040298   3.748   4.334   3.766 -2.5998  0.8835  0.4504
   65MOL   H49140299   3.812   4.434   4.054  1.3186  0.4573 -1.6635
   65MOL   H49240300   3.664   4.354   4.001  0.1773 -0.4346 -0.3597
   65MOL   H49340301   3.845   4.214   4.127 -0.2427  3.2187  0.8987
   65MOL   H49440302   3.940   4.227   3.979 -0.5209 -0.9683 -1.9819
   65MOL   H49540303   3.780   4.141   3.983  1.0438  0.3940 -0.8359
   65MOL   H49640304   4.028   5.258   3.770 -0.8071  0.7527  0.8819
   65MOL   H49740305   4.010   5.123   3.865 -0.0866  2.5029  0.6666
   65MOL   C49840306   4.065   5.072   3.666  1.1736 -0.6559 -0.2791
   65MOL   O49940307   4.206   5.080   3.708 -0.2507 -0.1249 -0.3085
   65MOL   C50040308   4.255   4.987   3.808  0.2121 -0.0536 -0.6456
   65MOL   C50140309   4.414   5.005   3.791  0.2071  0.2516  0.3784
   65MOL   C50240310   4.470   4.979   3.653  0.1877 -0.2730 -0.0799
   65MOL   C50340311   4.610   5.030   3.624  0.0951 -0.3081 -0.1134
   65MOL   C50440312   4.720   4.947   3.701  0.0150  0.1135 -0.4777
   65MOL   C50540313   4.859   4.985   3.650  0.4130 -0.4312  0.3187
   65MOL   C50640314   4.981   4.939   3.723 -0.1872 -0.8362 -0.1127
   65MOL   C50740315   5.002   4.994   3.862 -0.2415 -0.3326 -0.0945
   65MOL   C50840316   4.053   5.137   3.522  0.1487 -0.1289  0.1119
   65MOL   H50940317   4.023   4.973   3.686  0.0702  0.0424  0.9696
   65MOL   H51040318   4.212   4.889   3.789  1.0551 -0.7147  0.7220
   65MOL   H51140319   4.215   5.008   3.907 -0.6648 -0.9444 -0.8114
   65MOL   H51240320   4.454   4.935   3.865 -2.9818 -0.2017  1.7486
   65MOL   H51340321   4.446   5.103   3.825  0.9670 -0.0949  0.6711
   65MOL   H51440322   4.469   4.872   3.630  1.0380 -0.9256  2.6645
   65MOL   H51540323   4.409   5.025   3.575 -1.0681 -2.6921 -0.5970
   65MOL   H51640324   4.635   5.009   3.520 -0.1010  1.4870 -0.5368
   65MOL   H51740325   4.626   5.137   3.632  2.6179 -0.6041 -0.7931
   65MOL   H51840326   4.703   4.971   3.806 -2.2082 -1.0232 -0.5520
   65MOL   H51940327   4.702   4.840   3.695  0.6863 -0.0370  0.0993
   65MOL   H52040328   4.870   5.092   3.664  0.3468 -0.1360 -1.7565
   65MOL   H52140329   4.865   4.961   3.544 -0.7102  1.5968 -0.2336
   65MOL   H52240330   4.984   4.830   3.725  2.1053 -0.8963 -3.7602
   65MOL   H52340331   5.058   4.977   3.656 -0.0187 -0.5430  0.2416
   65MOL   H52440332   5.065   4.929   3.923 -0.6484  0.3039  1.0258
   65MOL   H52540333   4.912   4.992   3.924 -0.8966 -0.7080 -1.0492
   65MOL   H52640334   5.040   5.096   3.867  0.6722 -0.7299  1.9441
   65MOL   H52740335   3.954   5.151   3.478 -0.6479 -0.6636  1.6942
   65MOL   H52840336   4.091   5.239   3.532  0.0472 -0.0648 -0.1540
   65MOL   C52940337   4.137   5.067   3.418  0.1943  0.4062  0.3617
   65MOL   O53040338   4.126   5.128   3.291 -0.1505 -0.0392  0.2770
   65MOL   C53140339   4.209   5.239   3.277 -0.1285  0.2606  0.3567
   65MOL   C53240340   4.210   5.292   3.133  0.0322 -0.1655  0.1299
   65MOL   C53340341   4.259   5.193   3.022  0.8991 -0.0588  0.2644
   65MOL   C53440342   4.250   5.262   2.878  0.3705  0.5729  0.4131
   65MOL   C53540343   4.372   5.338   2.835  0.1799 -0.0366  0.6645
   65MOL   C53640344   4.374   5.384   2.688  0.6615  0.5809 -0.4342
   65MOL   C53740345   4.415   5.530   2.671  0.3626 -0.4556  0.4523
   65MOL   C53840346   4.546   5.580   2.721  0.0274  0.3778 -0.4289
   65MOL   C53940347   4.082   4.920   3.405 -0.0892 -0.2769  0.8238
   65MOL   H54040348   4.243   5.070   3.442 -0.0148  2.1388  1.1289
   65MOL   H54140349   4.173   5.313   3.348  1.8838 -0.4276  2.1433
   65MOL   H54240350   4.314   5.217   3.297  0.2465  1.5842 -0.1542
   65MOL   H54340351   4.261   5.388   3.134  0.1045 -0.2075  0.9001
   65MOL   H54440352   4.111   5.327   3.106  1.0590  1.5678 -1.4594
   65MOL   H54540353   4.364   5.169   3.038  0.5164 -2.3627 -0.4231
   65MOL   H54640354   4.194   5.105   3.022 -0.3455  0.8382  1.2779
   65MOL   H54740355   4.235   5.182   2.804  1.7117  2.1029 -1.5599
   65MOL   H54840356   4.159   5.323   2.882  0.0040  0.0747 -0.1129
   65MOL   H54940357   4.380   5.430   2.894 -2.5709  1.2781 -0.8995
   65MOL   H55040358   4.455   5.279   2.873 -0.4668 -0.2733  1.7547
   65MOL   H55140359   4.276   5.384   2.642  1.8313  0.2979 -3.0189
   65MOL   H55240360   4.451   5.319   2.646  1.8387  2.0382 -0.5756
   65MOL   H55340361   4.424   5.549   2.564 -0.1348  2.0844  0.8340
   65MOL   H55440362   4.332   5.597   2.692 -0.2070 -0.9310 -0.2885
   65MOL   H55540363   4.574   5.675   2.674  1.7569 -0.3322 -0.8669
   65MOL   H55640364   4.635   5.526   2.688 -1.1163 -1.2645 -0.8782
   65MOL   H55740365   4.542   5.585   2.829  2.9208  1.5465 -0.3190
   65MOL   H55840366   4.097   4.862   3.495 -1.2465 -0.7247  0.7365
   65MOL   H55940367   3.977   4.941   3.385  0.4741  0.1084 -1.9258
   65MOL   C56040368   4.141   4.837   3.282  0.2315 -0.1602 -0.0767
   65MOL   O56140369   4.078   4.717   3.280 -0.3387 -0.5677  0.0936
   65MOL   C56240370   3.943   4.712   3.225 -0.2533 -0.1433  0.1080
   65MOL   C56340371   3.949   4.579   3.141 -0.0167  0.2473  0.1404
   65MOL   C56440372   3.982   4.453   3.229 -0.8408 -0.4520 -0.3823
   65MOL   C56540373   3.945   4.316   3.166  0.3651  0.2794  0.3090
   65MOL   C56640374   3.980   4.190   3.249  0.3773 -0.0103 -0.9307
   65MOL   C56740375   3.971   4.063   3.168 -0.6762  0.8259  0.1873
   65MOL   C56840376   4.068   4.056   3.046  0.2937  0.0022  0.8808
   65MOL   C56940377   4.068   3.910   2.996 -0.9175  0.1911 -0.1962
   65MOL   C57040378   4.301   4.825   3.301  1.2507  0.2128  0.1487
   65MOL   H57140379   4.118   4.888   3.189 -0.7395  1.7251  1.1768
   65MOL   H57240380   3.915   4.799   3.166 -0.6392 -0.9134 -0.8453
   65MOL   H57340381   3.880   4.704   3.314 -0.5148  1.6565  0.0901
   65MOL   H57440382   4.031   4.582   3.069 -0.0728 -0.7348  0.0317
   65MOL   H57540383   3.858   4.571   3.082 -0.4653  1.4247  0.6565
   65MOL   H57640384   4.087   4.450   3.256 -0.3681  1.5029 -1.8628
   65MOL   H57740385   3.932   4.457   3.326  2.7825 -0.1502  1.5292
   65MOL   H57840386   3.844   4.316   3.124  0.8041  0.9684 -0.7684
   65MOL   H57940387   4.021   4.309   3.088  0.1890 -1.1502  0.2400
   65MOL   H58040388   4.083   4.204   3.279  0.7289 -0.5645 -1.8435
   65MOL   H58140389   3.916   4.194   3.337 -0.8852  2.8059 -1.9282
   65MOL   H58240390   3.865   4.057   3.145 -1.1385 -0.2662  2.3944
   65MOL   H58340391   3.997   3.981   3.236  1.3055  0.0395 -1.4636
   65MOL   H58440392   4.028   4.122   2.969 -0.6012  0.3212  1.6135
   65MOL   H58540393   4.165   4.102   3.067  0.1460 -0.2301  2.1347
   65MOL   H58640394   4.115   3.923   2.899 -0.1015  1.9914  0.4091
   65MOL   H58740395   3.968   3.866   2.999  0.8156 -4.0182 -0.7438
   65MOL   H58840396   4.121   3.843   3.063  0.1428 -1.0089 -2.2001
   65MOL   H58940397   4.346   4.924   3.303 -2.0233  1.7444  0.8787
   65MOL   H59040398   4.305   4.776   3.399 -0.7915 -1.8911 -0.7675
   65MOL   C59140399   4.362   4.745   3.191 -0.3387  0.2438  0.1849
   65MOL   O59240400   4.497   4.704   3.218  0.6572  0.0219 -0.3689
   65MOL   C59340401   4.575   4.819   3.231 -0.3922 -0.2386  0.4949
   65MOL   C59440402   4.730   4.780   3.240 -0.7673 -0.0269  0.3620
   65MOL   C59540403   4.770   4.722   3.376 -0.6062 -0.1837  0.1133
   65MOL   C59640404   4.923   4.699   3.404 -0.6621 -0.1361  0.8438
   65MOL   C59740405   4.948   4.601   3.517  0.0426 -0.2081  0.5833
   65MOL   C59840406   5.097   4.585   3.550 -0.4455 -0.2682 -0.3045
   65MOL   C59940407   5.126   4.478   3.658  0.1392 -0.3804  0.0782
   65MOL   C60040408   5.066   4.348   3.628  0.3605  0.2399  0.0343
   65MOL   C60140409   4.343   4.810   3.049 -0.4188 -0.0132 -0.1527
   65MOL   H60240410   4.310   4.649   3.184 -1.4769  0.7360  1.8197
   65MOL   H60340411   4.554   4.876   3.322 -0.0455  0.0771  0.3822
   65MOL   H60440412   4.579   4.897   3.155  1.8309  0.9293  1.7583
   65MOL   H60540413   4.792   4.866   3.219  0.9466 -0.6374  2.6808
   65MOL   H60640414   4.749   4.696   3.173 -0.1908 -0.2407  0.7889
   65MOL   H60740415   4.735   4.788   3.455  0.8263  1.1580 -0.3500
   65MOL   H60840416   4.722   4.626   3.394 -3.1488  0.5947 -2.1820
   65MOL   H60940417   4.961   4.661   3.309 -0.1196 -1.0065  1.4014
   65MOL   H61040418   4.985   4.784   3.433 -2.2875  1.7818 -1.1246
   65MOL   H61140419   4.901   4.634   3.609  0.7813  1.4318  0.3850
   65MOL   H61240420   4.910   4.504   3.485 -3.2850  1.2360 -0.0717
   65MOL   H61340421   5.138   4.677   3.591  1.1019 -1.0602 -0.0145
   65MOL   H61440422   5.155   4.557   3.462 -0.2230  0.2662 -0.3314
   65MOL   H61540423   5.232   4.459   3.675  0.3507 -1.2115 -1.9675
   65MOL   H61640424   5.090   4.507   3.756  2.1925  0.5299  0.5978
   65MOL   H61740425   5.106   4.275   3.699 -1.3725  0.8535  1.6943
   65MOL   H61840426   5.076   4.324   3.522  0.2611  0.0369  0.0696
   65MOL   H61940427   4.958   4.357   3.642  0.5046  0.7748  0.8615
   65MOL   H62040428   4.380   4.744   2.971  0.5882 -0.2098  0.4787
   65MOL   H62140429   4.236   4.821   3.032 -0.3310  0.1501 -0.6059
   65MOL   H62240430   4.386   4.910   3.044 -1.9279  0.5592 -2.4488
   66MOL     C140431   7.387   4.495   7.485  0.2181 -0.4660  0.6894
   66MOL     O240432   7.359   4.497   7.624 -0.3655 -0.2353 -0.2084
   66MOL     C340433   7.444   4.424   7.705  0.2918  0.2422 -0.3738
   66MOL     C440434   7.385   4.408   0.070  0.8611  0.5289 -0.2786
   66MOL     C540435   7.256   4.326   0.065  0.0085 -0.0790 -0.5227
   66MOL     C640436   7.193   4.288   0.201  0.4959  0.2662 -0.1507
   66MOL     C740437   7.076   4.193   0.171  0.1672  0.3543 -0.4495
   66MOL     C840438   6.985   4.193   0.292  0.2437 -0.6721 -0.1236
   66MOL     C940439   6.880   4.080   0.291 -0.7477 -0.7736  0.3072
   66MOL    C1040440   6.798   4.075   0.419 -0.1663 -0.2974 -0.1790
   66MOL    C1140441   7.290   4.589   7.412  0.9154 -1.1222 -0.2834
   66MOL    H1240442   7.488   4.534   7.476 -0.2175  0.7793  1.1084
   66MOL    H1340443   7.536   4.480   7.724  0.8348 -0.9732  0.6775
   66MOL    H1440444   7.464   4.326   7.662  2.8987  0.2545  0.7410
   66MOL    H1540445   7.362   4.505   0.112  1.1547  0.2827  0.4514
   66MOL    H1640446   7.466   4.363   0.127 -1.6041  1.5381  4.2042
   66MOL    H1740447   7.189   4.400   0.021  0.4725 -0.3509 -1.7231
   66MOL    H1840448   7.258   4.241   7.771 -0.5305 -0.9988  0.5824
   66MOL    H1940449   7.261   4.239   0.270 -0.1859  0.1565  0.4391
   66MOL    H2040450   7.168   4.380   0.255 -2.2811 -0.5782  0.0431
   66MOL    H2140451   7.015   4.232   0.089  0.1462 -0.5204 -0.8478
   66MOL    H2240452   7.109   4.091   0.156 -0.7243  0.4127 -3.1003
   66MOL    H2340453   6.928   4.285   0.299  1.2700 -0.1810  1.8533
   66MOL    H2440454   7.040   4.195   0.386 -2.0753  1.5312  1.2392
   66MOL    H2540455   6.809   4.099   0.210  0.4595  0.9079 -0.3819
   66MOL    H2640456   6.932   3.988   0.266 -0.6195 -0.3327 -1.1321
   66MOL    H2740457   6.771   3.970   0.431  0.7554 -0.4377  0.7154
   66MOL    H2840458   6.707   4.136   0.414  1.9160  2.8624 -0.9684
   66MOL    H2940459   6.863   4.112   0.498  0.6877 -1.4943 -0.3082
   66MOL    H3040460   7.272   4.670   7.482 -0.4574  0.2715 -2.1897
   66MOL    H3140461   7.349   4.630   7.330 -0.1237  0.0886 -0.4402
   66MOL    H3240462   7.378   4.389   7.462  0.4553 -0.7009  1.6569
   66MOL    C3340463   7.153   4.535   7.360  0.3600  0.1838  0.3805
   66MOL    O3440464   7.080   4.616   7.265  0.3846 -0.5292 -0.5395
   66MOL    C3540465   7.128   4.609   7.131  0.0215 -0.0767 -0.6104
   66MOL    C3640466   7.049   4.704   7.033  0.0746  0.0528 -0.5164
   66MOL    C3740467   7.039   4.656   6.883  0.0767 -0.3972  0.1659
   66MOL    C3840468   6.953   4.762   6.809 -0.2188  0.2415  0.0123
   66MOL    C3940469   6.804   4.746   6.823 -0.6777  0.2658  0.3118
   66MOL    C4040470   6.724   4.869   6.774  0.1068 -0.3007  0.3875
   66MOL    C4140471   6.572   4.843   6.774 -0.2399 -0.2002 -0.0731
   66MOL    C4240472   6.498   4.974   6.794  0.1831 -0.3815  0.8931
   66MOL    C4340473   7.063   4.498   7.477 -0.3344  0.0277  0.4475
   66MOL    H4440474   7.174   4.443   7.307 -1.9170 -1.2856  1.9485
   66MOL    H4540475   7.119   4.502   7.110  0.9706 -0.4175  0.6896
   66MOL    H4640476   7.233   4.638   7.132  0.4736 -1.7061  0.7633
   66MOL    H4740477   7.089   4.805   7.036  0.5015 -0.1540  1.2027
   66MOL    H4840478   6.947   4.714   7.069 -1.0191  0.3569 -3.5469
   66MOL    H4940479   7.138   4.650   6.837  0.9091 -2.5816  2.1539
   66MOL    H5040480   6.992   4.559   6.894 -0.7842 -0.1143 -0.9243
   66MOL    H5140481   6.980   4.864   6.834  0.3271  0.4120 -1.2385
   66MOL    H5240482   6.968   4.755   6.701  1.5962 -1.7071  0.3605
   66MOL    H5340483   6.757   4.661   6.773  0.0043  0.6762 -1.0537
   66MOL    H5440484   6.780   4.737   6.929 -1.0019 -0.5218  0.1719
   66MOL    H5540485   6.753   4.913   6.679 -2.4201 -0.9792 -0.7406
   66MOL    H5640486   6.748   4.945   6.848  0.0137  1.1768 -1.0817
   66MOL    H5740487   6.557   4.808   6.672 -1.7145  1.3149 -0.4063
   66MOL    H5840488   6.544   4.770   6.850  2.1668 -0.4487  0.6194
   66MOL    H5940489   6.525   5.019   6.889  1.0430  0.2432  0.3648
   66MOL    H6040490   6.391   4.955   6.783  0.1772 -0.4277  1.0374
   66MOL    H6140491   6.517   5.040   6.709 -0.8374 -1.5170 -0.2438
   66MOL    H6240492   7.117   4.450   7.558  0.6560 -0.9158 -0.7497
   66MOL    H6340493   7.011   4.587   7.513 -0.4071  0.7639 -1.3894
   66MOL    C6440494   6.950   4.396   7.438  0.7980  1.1098 -0.1953
   66MOL    O6540495   6.992   4.288   7.361 -0.0849  0.1513 -0.3964
   66MOL    C6640496   7.083   4.210   7.425 -0.1675  0.7427 -0.6350
   66MOL    C6740497   7.108   4.081   7.355  0.1249 -0.2801 -0.4597
   66MOL    C6840498   7.237   4.015   7.407  0.0954  0.0571 -0.1783
   66MOL    C6940499   7.261   3.877   7.340 -0.5660 -0.4173 -0.1367
   66MOL    C7040500   7.400   3.821   7.355 -0.8700  0.2361 -0.1753
   66MOL    C7140501   7.428   3.667   7.324 -0.3771  0.5972 -0.2767
   66MOL    C7240502   7.572   3.612   7.373  0.3590 -0.0903 -0.0042
   66MOL    C7340503   7.617   3.479   7.311 -0.2903 -0.2950 -0.2658
   66MOL    C7440504   6.823   4.467   7.360  0.6520  0.1122  0.3051
   66MOL    H7540505   6.904   4.355   7.527  0.3337 -0.6750 -1.2397
   66MOL    H7640506   7.048   4.190   7.526  3.5448 -0.1140  0.5722
   66MOL    H7740507   7.179   4.262   7.437  1.1329 -2.1636  2.3876
   66MOL    H7840508   7.131   4.102   7.251 -0.2156 -0.4028 -0.5588
   66MOL    H7940509   7.022   4.014   7.361 -0.2584  0.0030 -2.6818
   66MOL    H8040510   7.329   4.068   7.382  0.3521 -0.1855  0.2550
   66MOL    H8140511   7.231   4.013   7.516  0.3549 -0.9489 -0.1792
   66MOL    H8240512   7.189   3.808   7.385  1.9569 -2.0809  1.5200
   66MOL    H8340513   7.245   3.902   7.236  0.8618  2.4480  0.2909
   66MOL    H8440514   7.477   3.885   7.313 -0.6112 -0.4068 -0.6880
   66MOL    H8540515   7.428   3.824   7.461  1.6012 -0.3845 -0.7910
   66MOL    H8640516   7.428   3.665   7.215  0.3031  1.4242 -0.2921
   66MOL    H8740517   7.350   3.597   7.356  0.0536  0.4111  0.3833
   66MOL    H8840518   7.648   3.688   7.354 -0.7641  0.6556 -1.5812
   66MOL    H8940519   7.571   3.611   7.482 -0.3500  1.2351  0.0139
   66MOL    H9040520   7.606   3.484   7.203  0.7052 -1.8301 -0.4668
   66MOL    H9140521   7.553   3.394   7.336  1.3094 -1.2059  0.8437
   66MOL    H9240522   7.714   3.452   7.354 -0.2070 -0.6287 -0.6550
   66MOL    H9340523   6.849   4.514   7.265 -0.6017 -1.8657 -1.0544
   66MOL    H9440524   6.752   4.394   7.321  0.2794  0.7624 -0.2371
   66MOL    C9540525   6.742   4.559   7.458 -0.2561 -0.0719 -0.3114
   66MOL    O9640526   6.731   4.502   7.589  0.3387 -0.4563 -0.1885
   66MOL    C9740527   6.751   4.583   7.700  0.0689 -0.3627 -0.1171
   66MOL    C9840528   6.739   4.500   0.056  0.0263 -0.2851  0.3786
   66MOL    C9940529   6.605   4.434   0.075  0.1360  0.5573  0.6888
   66MOL   C10040530   6.582   4.374   0.216  0.2094 -0.4616  0.0005
   66MOL   C10140531   6.439   4.315   0.237  0.9750  0.2723 -0.0306
   66MOL   C10240532   6.402   4.272   0.379 -0.1386  0.7630  0.1406
   66MOL   C10340533   6.251   4.262   0.395  0.6328  0.0942 -0.0164
   66MOL   C10440534   6.212   4.184   0.523 -0.5474 -0.0938  0.3886
   66MOL   C10540535   6.602   4.588   7.402 -0.0006  0.2081  0.2837
   66MOL   H10640536   6.794   4.653   7.471 -2.4696  1.1039  0.3464
   66MOL   H10740537   6.677   4.663   7.701  0.4562 -0.0226  1.5523
   66MOL   H10840538   6.843   4.636   7.675 -0.6747  0.5630 -0.9577
   66MOL   H10940539   6.771   4.565   0.137 -1.6895  0.4701  0.4631
   66MOL   H11040540   6.818   4.426   0.066  0.5852  0.2558 -0.0660
   66MOL   H11140541   6.526   4.508   0.058 -0.6312  0.3007  2.9301
   66MOL   H11240542   6.593   4.358   7.772  3.0160  0.2170  0.5359
   66MOL   H11340543   6.657   4.297   0.235  1.1395  0.6534  0.9427
   66MOL   H11440544   6.592   4.454   0.290 -0.2150 -0.3298 -0.0844
   66MOL   H11540545   6.369   4.391   0.202  0.4290  0.8655  2.2839
   66MOL   H11640546   6.411   4.228   0.178 -0.4242 -0.6503  1.9642
   66MOL   H11740547   6.449   4.327   0.461 -1.5939  3.3368 -0.6920
   66MOL   H11840548   6.444   4.172   0.390 -0.5352  0.5652 -0.1443
   66MOL   H11940549   6.203   4.360   0.399 -0.5555 -0.3248 -2.7007
   66MOL   H12040550   6.215   4.200   0.313  0.9940 -0.3646  0.1729
   66MOL   H12140551   6.104   4.168   0.528 -0.5950 -0.8807 -2.3828
   66MOL   H12240552   6.246   4.234   0.614 -3.2697 -0.5541  1.7268
   66MOL   H12340553   6.263   4.088   0.516 -0.2184  0.2730 -2.8456
   66MOL   H12440554   6.547   4.494   7.397  3.0709 -1.6480  0.0582
   66MOL   H12540555   6.555   4.649   7.479  0.9113  1.2220  0.0507
   66MOL   C12640556   6.599   4.686   7.280  0.2002  0.5744  0.4850
   66MOL   O12740557   6.640   4.815   7.329 -0.2131  0.2980 -0.8781
   66MOL   C12840558   6.722   4.875   7.235 -0.3774  0.2872  0.5295
   66MOL   C12940559   6.735   5.035   7.255  0.1197 -0.0626  0.3441
   66MOL   C13040560   6.819   5.099   7.146 -0.6580 -0.0301  0.8679
   66MOL   C13140561   6.860   5.249   7.151 -0.0053 -0.3635 -0.0741
   66MOL   C13240562   6.920   5.299   7.021 -0.0490 -0.3931  0.2003
   66MOL   C13340563   6.969   5.445   7.027  0.2421 -0.6909 -0.4866
   66MOL   C13440564   7.031   5.489   6.894 -0.4915 -0.6365 -0.9463
   66MOL   C13540565   6.919   5.525   6.805  0.1088  0.0411 -0.3828
   66MOL   C13640566   6.469   4.691   7.202 -1.0017 -0.0362 -0.9573
   66MOL   H13740567   6.674   4.649   7.211  0.1936 -2.2090  1.8813
   66MOL   H13840568   6.681   4.861   7.135  0.7922 -1.2712  0.2627
   66MOL   H13940569   6.819   4.825   7.239  0.2847  1.6286  1.8707
   66MOL   H14040570   6.776   5.035   7.356 -2.1170 -1.2906  1.2803
   66MOL   H14140571   6.632   5.070   7.263  0.6411  1.0223  2.7194
   66MOL   H14240572   6.913   5.045   7.138 -0.5438  0.3457 -0.4877
   66MOL   H14340573   6.779   5.073   7.047  0.0423 -3.0732  1.3257
   66MOL   H14440574   6.767   5.304   7.158 -0.5482 -1.2834  0.1255
   66MOL   H14540575   6.917   5.276   7.240  0.5224 -0.1246 -0.4832
   66MOL   H14640576   7.000   5.229   6.998  0.0874 -0.5236  1.0348
   66MOL   H14740577   6.847   5.287   6.942 -2.0253  2.3326  1.5121
   66MOL   H14840578   7.046   5.452   7.103 -0.4812  1.2733  0.1042
   66MOL   H14940579   6.888   5.513   7.054  0.7698 -0.1382 -0.2821
   66MOL   H15040580   7.083   5.584   6.909 -1.9997  0.1571 -0.5755
   66MOL   H15140581   7.110   5.429   6.849 -0.4037 -0.5628 -0.8910
   66MOL   H15240582   6.859   5.609   6.840 -0.0372  0.5768 -1.8714
   66MOL   H15340583   6.846   5.445   6.791  1.1399 -0.6285 -2.0809
   66MOL   H15440584   6.954   5.548   6.704 -0.0963  1.3152 -0.1628
   66MOL   H15540585   6.389   4.702   7.276 -0.9802 -2.1956 -0.5845
   66MOL   H15640586   6.462   4.778   7.136 -1.0025 -0.0418 -0.9650
   66MOL   C15740587   6.449   4.559   7.125 -0.0872 -0.3740 -0.1442
   66MOL   O15840588   6.569   4.523   7.054 -0.8461 -0.3116 -0.3887
   66MOL   C15940589   6.616   4.383   7.049  0.0364 -0.0787  0.4535
   66MOL   C16040590   6.749   4.388   6.979 -0.1958  0.7403  0.1553
   66MOL   C16140591   6.852   4.273   6.995 -0.9719 -0.9554  0.4045
   66MOL   C16240592   6.805   4.129   6.968 -0.0793  0.2094 -0.1505
   66MOL   C16340593   6.914   4.049   6.902 -0.4195 -0.6858 -0.2090
   66MOL   C16440594   7.044   4.040   6.977  0.3411  0.9760  0.4239
   66MOL   C16540595   7.158   4.005   6.878 -0.1156 -0.2742 -0.9425
   66MOL   C16640596   7.153   3.850   6.867 -0.2392  0.3654 -0.4885
   66MOL   C16740597   6.342   4.569   7.016  0.1397  0.3772  0.0855
   66MOL   H16840598   6.431   4.475   7.193  0.6116 -0.5032 -0.1093
   66MOL   H16940599   6.532   4.337   6.997  0.0282 -0.3410  0.6965
   66MOL   H17040600   6.608   4.348   7.152  1.4152 -1.9558 -0.0563
   66MOL   H17140601   6.802   4.479   7.005  0.3035  0.1021  1.3928
   66MOL   H17240602   6.731   4.406   6.873 -1.7663 -0.0958  0.2598
   66MOL   H17340603   6.944   4.290   6.939 -1.1537 -1.4975 -0.0574
   66MOL   H17440604   6.875   4.286   7.101 -0.5468 -0.5773  0.2696
   66MOL   H17540605   6.760   4.090   7.059  0.0263 -1.0939 -0.6371
   66MOL   H17640606   6.729   4.128   6.890 -2.7070  3.0370  2.2729
   66MOL   H17740607   6.880   3.946   6.887 -0.5882 -1.2603  3.5666
   66MOL   H17840608   6.937   4.093   6.805 -0.8696  1.1713  0.5199
   66MOL   H17940609   7.035   3.979   7.067 -0.6063 -2.1608 -1.6975
   66MOL   H18040610   7.079   4.136   7.016  5.2164  0.7865 -3.1597
   66MOL   H18140611   7.152   4.064   6.787  0.7208  0.7893 -0.3222
   66MOL   H18240612   7.251   4.031   6.928 -0.2026 -1.9613  0.1557
   66MOL   H18340613   7.136   3.797   6.960  0.8574 -0.9344 -1.0152
   66MOL   H18440614   7.251   3.830   6.824 -0.5503  0.7730 -1.4220
   66MOL   H18540615   7.072   3.832   6.797  1.0721  0.8705 -2.1732
   66MOL   H18640616   6.367   4.648   6.946 -0.7888  0.3544 -0.2793
   66MOL   H18740617   6.338   4.474   6.962 -2.4074  1.0432 -0.9933
   66MOL   C18840618   6.196   4.591   7.069 -0.3324  0.3156 -0.0101
   66MOL   O18940619   6.160   4.481   7.146  0.7433 -0.0049 -0.7497
   66MOL   C19040620   6.151   4.511   7.287 -0.0610 -0.3971  0.0699
   66MOL   C19140621   6.091   4.391   7.360  0.6350 -0.6993  0.1447
   66MOL   C19240622   5.965   4.331   7.295  0.2131 -0.2391 -0.1426
   66MOL   C19340623   5.892   4.227   7.375  1.1527  0.7185 -0.3238
   66MOL   C19440624   5.771   4.159   7.310 -0.4103 -0.0217  0.7170
   66MOL   C19540625   5.635   4.231   7.327 -0.9137  0.4418  0.0858
   66MOL   C19640626   5.521   4.142   7.276  0.1019 -0.4620 -0.2298
   66MOL   C19740627   5.500   4.032   7.372  0.0704  0.8280 -0.6323
   66MOL   C19840628   6.099   4.582   6.949  0.5621  0.4836 -0.0110
   66MOL   H19940629   6.192   4.686   7.121  1.7731  0.7544 -0.6385
   66MOL   H20040630   6.247   4.532   7.335  1.0848 -2.2536 -1.3380
   66MOL   H20140631   6.087   4.598   7.300  0.8438  0.5428 -1.5183
   66MOL   H20240632   6.070   4.431   7.459  1.6690  0.3217 -0.0490
   66MOL   H20340633   6.163   4.310   7.374 -2.1673 -3.4634 -0.7411
   66MOL   H20440634   5.899   4.412   7.264  1.3532  0.1342 -1.6452
   66MOL   H20540635   5.998   4.291   7.199  0.9113  0.3432 -0.1488
   66MOL   H20640636   5.971   4.156   7.400  0.9952  0.4575 -0.5604
   66MOL   H20740637   5.864   4.261   7.475  1.1551  2.2349 -0.8258
   66MOL   H20840638   5.777   4.157   7.201  0.4217  2.3726  0.6828
   66MOL   H20940639   5.779   4.055   7.341  0.2858 -0.7786 -1.8763
   66MOL   H21040640   5.637   4.322   7.266 -2.3548 -0.4654 -1.3493
   66MOL   H21140641   5.623   4.261   7.431  1.9101 -1.2206  0.9457
   66MOL   H21240642   5.439   4.214   7.268  1.1538  0.7444 -0.2739
   66MOL   H21340643   5.534   4.095   7.178  0.1109 -1.7392  0.3803
   66MOL   H21440644   5.586   3.965   7.373  0.2295  1.0482  0.6498
   66MOL   H21540645   5.421   3.963   7.341  1.0844  0.4663 -2.5050
   66MOL   H21640646   5.486   4.061   7.476  1.3167 -0.7983  0.0097
   66MOL   H21740647   6.098   4.487   6.895 -4.1817 -1.2310  2.7653
   66MOL   H21840648   6.001   4.582   6.997 -0.3459  0.4003 -1.8159
   66MOL   C21940649   6.089   4.711   6.871  0.5049 -0.0868 -0.2716
   66MOL   O22040650   6.060   4.824   6.960 -0.0399  0.4134 -0.0670
   66MOL   C22140651   6.076   4.950   6.897 -0.3288 -0.2066 -0.1714
   66MOL   C22240652   6.079   5.061   7.007  0.6034  0.0177  0.6737
   66MOL   C22340653   6.196   5.044   7.099 -0.6485  0.2103 -0.6116
   66MOL   C22440654   6.205   5.145   7.214 -0.3461  0.5113 -0.3504
   66MOL   C22540655   6.332   5.113   7.295  0.2564 -0.0461 -0.3759
   66MOL   C22640656   6.346   5.195   7.425 -0.4010 -0.0256 -0.1663
   66MOL   C22740657   6.471   5.167   7.508  0.2070 -0.5016  0.2389
   66MOL   C22840658   6.586   5.264   7.489 -0.1036 -0.5535  0.1951
   66MOL   C22940659   5.979   4.694   6.755 -0.1428  0.3421  0.5480
   66MOL   H23040660   6.186   4.718   6.823  0.8171  3.0740  0.7090
   66MOL   H23140661   5.989   4.964   6.833  0.1686 -1.8567 -1.2271
   66MOL   H23240662   6.156   4.939   6.825 -1.3111 -0.6441 -1.2063
   66MOL   H23340663   5.985   5.060   7.062 -0.4509  0.9604 -1.0624
   66MOL   H23440664   6.093   5.163   6.971  0.2588 -0.4019 -0.6643
   66MOL   H23540665   6.189   4.944   7.143 -0.0964  0.2759 -0.3626
   66MOL   H23640666   6.290   5.047   7.044  0.3091 -1.2493  0.9009
   66MOL   H23740667   6.217   5.246   7.175  3.1308  1.4770  2.9528
   66MOL   H23840668   6.109   5.147   7.267 -0.3056 -2.9487  0.0101
   66MOL   H23940669   6.332   5.006   7.314  0.0399 -0.2064 -1.2356
   66MOL   H24040670   6.425   5.140   7.245  1.7265 -0.7890  1.8945
   66MOL   H24140671   6.261   5.174   7.490  0.2479 -2.7406 -0.1308
   66MOL   H24240672   6.329   5.301   7.408 -0.6779 -0.4537 -2.8642
   66MOL   H24340673   6.453   5.165   7.615  0.2836 -2.1767  0.2411
   66MOL   H24440674   6.501   5.065   7.483  0.1648 -0.0463 -1.8105
   66MOL   H24540675   6.556   5.365   7.516  1.6613  0.0402 -0.0586
   66MOL   H24640676   6.623   5.257   7.387 -0.6483  0.6672 -0.0954
   66MOL   H24740677   6.666   5.228   7.553 -0.9584 -2.7809  0.0707
   66MOL   H24840678   5.887   4.653   6.799 -0.2991  0.8252  0.6704
   66MOL   H24940679   5.951   4.789   6.710  0.3772 -0.0013 -0.5125
   66MOL   C25040680   6.001   4.596   6.628  0.2415  0.0918  0.2760
   66MOL   O25140681   6.118   4.631   6.566  0.0939 -0.5102 -0.6226
   66MOL   C25240682   6.227   4.551   6.606  0.2403  0.5512  0.5943
   66MOL   C25340683   6.359   4.601   6.558  0.3201  0.2057 -0.1557
   66MOL   C25440684   6.470   4.499   6.586  0.6324  0.0097  0.3327
   66MOL   C25540685   6.601   4.543   6.521  0.3013 -0.0267  0.3762
   66MOL   C25640686   6.697   4.430   6.499 -0.4220  0.2198  0.2395
   66MOL   C25740687   6.835   4.479   6.452 -0.1583  0.5869  0.7368
   66MOL   C25840688   6.925   4.362   6.459 -0.8627 -0.0233  0.1687
   66MOL   C25940689   6.952   4.310   6.599 -0.4514  1.2679  0.0478
   66MOL   C26040690   5.872   4.605   6.542 -0.2431 -0.3387 -0.2785
   66MOL   H26140691   6.011   4.498   6.675  0.9901 -0.1677 -0.4130
   66MOL   H26240692   6.211   4.450   6.566 -0.6617  1.1441 -0.5675
   66MOL   H26340693   6.230   4.523   6.711  1.2052  0.2618  0.4931
   66MOL   H26440694   6.383   4.697   6.603 -0.2022 -0.6606  2.0553
   66MOL   H26540695   6.350   4.620   6.451  0.8953  1.8129  0.0659
   66MOL   H26640696   6.487   4.494   6.694  1.0885 -3.9171  0.1573
   66MOL   H26740697   6.444   4.400   6.549  1.5715 -0.4486  0.8736
   66MOL   H26840698   6.578   4.596   6.429  1.2065  1.6636  1.1067
   66MOL   H26940699   6.649   4.621   6.580  3.1904 -0.4093 -1.3445
   66MOL   H27040700   6.709   4.381   6.596  2.4195  0.3074 -0.0212
   66MOL   H27140701   6.655   4.356   6.431  2.2013 -0.5919 -0.5695
   66MOL   H27240702   6.866   4.558   6.520 -0.9638 -1.1735  3.2029
   66MOL   H27340703   6.837   4.525   6.353 -0.7775 -0.6322  0.1541
   66MOL   H27440704   6.892   4.277   6.399 -0.0486  0.3407 -0.8099
   66MOL   H27540705   7.017   4.394   6.409 -1.3055  0.7616 -0.1549
   66MOL   H27640706   7.035   4.239   6.590 -0.9604  0.4860  1.3414
   66MOL   H27740707   6.870   4.260   6.650 -1.3301  1.1623 -1.4612
   66MOL   H27840708   6.968   4.387   6.675  0.6134  0.2208  0.9226
   66MOL   H27940709   5.794   4.593   6.618  0.5312  0.0508  0.5850
   66MOL   H28040710   5.855   4.704   6.501 -1.0281  0.1506  1.1780
   66MOL   C28140711   5.849   4.485   6.440  0.0254  0.1975  0.6495
   66MOL   O28240712   5.935   4.505   6.330  0.5027 -0.1912 -0.5294
   66MOL   C28340713   5.983   4.388   6.272 -0.4223  0.4631 -0.7991
   66MOL   C28440714   6.077   4.435   6.159  0.0966  0.0522 -0.0177
   66MOL   C28540715   6.203   4.502   6.226  0.0663 -0.0190 -0.0162
   66MOL   C28640716   6.290   4.568   6.118 -0.3735 -0.5861 -0.4173
   66MOL   C28740717   6.236   4.701   6.070  0.0473  0.3705  0.8285
   66MOL   C28840718   6.346   4.784   5.996  0.3019 -0.1853  0.1890
   66MOL   C28940719   6.283   4.929   5.968  0.1997 -0.4060  0.3132
   66MOL   C29040720   6.366   5.026   5.898  0.3638  0.5919 -0.7293
   66MOL   C29140721   5.704   4.469   6.387  0.5348  0.1525 -0.7061
   66MOL   H29240722   5.884   4.396   6.492  0.3686 -0.9636 -1.5062
   66MOL   H29340723   5.909   4.323   6.224 -0.4298  0.7675 -1.2058
   66MOL   H29440724   6.035   4.341   6.355  0.6683 -0.6516 -2.0948
   66MOL   H29540725   6.034   4.499   6.081 -0.8364 -0.6265 -0.0654
   66MOL   H29640726   6.114   4.344   6.113 -0.8332 -0.3934  0.1111
   66MOL   H29740727   6.189   4.578   6.303 -0.6645  0.1173 -0.2859
   66MOL   H29840728   6.259   4.429   6.286  0.2923  2.0486  2.3865
   66MOL   H29940729   6.383   4.580   6.173 -2.3681 -1.1159  3.2937
   66MOL   H30040730   6.317   4.512   6.029  1.5044 -0.7736  0.2521
   66MOL   H30140731   6.155   4.680   5.999  1.7369 -1.2870 -0.6621
   66MOL   H30240732   6.192   4.762   6.149 -1.0296  1.5579 -0.6509
   66MOL   H30340733   6.362   4.729   5.904 -1.6343 -1.3664  0.5241
   66MOL   H30440734   6.431   4.790   6.063 -0.1102  0.5039  0.6593
   66MOL   H30540735   6.188   4.912   5.918  0.6168  2.5413 -1.5892
   66MOL   H30640736   6.260   4.971   6.066 -0.7182 -1.8804  0.7569
   66MOL   H30740737   6.465   5.037   5.942  1.2040 -0.5983 -2.3045
   66MOL   H30840738   6.335   5.131   5.893  2.6514  1.2094 -3.5561
   66MOL   H30940739   6.385   4.990   5.797 -0.6354 -1.4283 -0.2128
   66MOL   H31040740   5.672   4.565   6.349 -0.0385  0.9323  1.6499
   66MOL   H31140741   5.708   4.401   6.302 -0.3747 -2.7311  1.4439
   66MOL   C31240742   5.605   4.424   6.496  0.6872 -0.3113 -0.8675
   66MOL   O31340743   5.517   4.324   6.432 -0.3641 -0.4816 -0.0182
   66MOL   C31440744   5.476   4.221   6.510  0.1763  0.0582 -0.0922
   66MOL   C31540745   5.335   4.183   6.460  0.0562  0.2681 -0.5324
   66MOL   C31640746   5.277   4.050   6.514 -0.4028  0.3376  0.1425
   66MOL   C31740747   5.156   4.012   6.439  0.4414  0.1444 -0.4854
   66MOL   C31840748   5.093   3.881   6.491  0.6129  0.1648  0.5344
   66MOL   C31940749   4.972   3.836   6.410 -0.2358 -0.4379  0.0941
   66MOL   C32040750   4.891   3.716   6.470  0.7130  0.3199  0.3057
   66MOL   C32140751   4.796   3.637   6.376 -0.4578  0.4957  0.1521
   66MOL   C32240752   5.510   4.528   6.567  0.5460  0.2264  0.1244
   66MOL   H32340753   5.658   4.364   6.570  1.4129  0.1690 -0.9947
   66MOL   H32440754   5.467   4.247   6.615  1.3801  1.8041 -0.4068
   66MOL   H32540755   5.542   4.135   6.496 -0.5156 -0.1441 -2.4890
   66MOL   H32640756   5.343   4.173   6.352 -3.2238 -1.5017 -0.6672
   66MOL   H32740757   5.262   4.262   6.481  0.7548  0.4642  1.2271
   66MOL   H32840758   5.350   3.970   6.499  0.3006  1.5004 -3.0254
   66MOL   H32940759   5.261   4.057   6.622 -0.2219 -0.0214  0.1922
   66MOL   H33040760   5.094   4.098   6.465  1.7275  0.1390  2.8914
   66MOL   H33140761   5.168   4.015   6.330 -0.0437  0.2519 -0.5362
   66MOL   H33240762   5.158   3.793   6.492 -1.1103 -1.1383  2.6524
   66MOL   H33340763   5.065   3.897   6.595  0.3577 -1.3211  0.7106
   66MOL   H33440764   5.003   3.812   6.308  1.8763  1.0623  0.3386
   66MOL   H33540765   4.903   3.918   6.391  2.9374  2.6605  1.3948
   66MOL   H33640766   4.950   3.634   6.511  0.0645  0.3659  1.3405
   66MOL   H33740767   4.833   3.762   6.550  1.9859 -1.0885  2.0957
   66MOL   H33840768   4.848   3.555   6.327  0.3857  0.7019  0.7042
   66MOL   H33940769   4.761   3.716   6.310 -1.5551  0.7883  1.0568
   66MOL   H34040770   4.706   3.591   6.418  1.1352 -1.4034  1.5315
   66MOL   H34140771   5.476   4.497   6.666 -0.5058  2.4026  0.4602
   66MOL   H34240772   5.574   4.613   6.592  0.9260  0.9732 -3.1814
   66MOL   C34340773   5.386   4.574   6.487  0.5082  0.6181 -0.1649
   66MOL   O34440774   5.425   4.668   6.389  0.5069  0.3135 -0.1808
   66MOL   C34540775   5.333   4.689   6.278  0.0774 -0.4126  0.0973
   66MOL   C34640776   5.402   4.732   6.143  0.5053 -0.0530 -0.0384
   66MOL   C34740777   5.318   4.680   6.019 -0.1494 -0.7673  0.4393
   66MOL   C34840778   5.380   4.711   5.879 -0.1287  0.0882  0.2772
   66MOL   C34940779   5.293   4.645   5.767  0.2613  0.1146  0.3897
   66MOL   C35040780   5.330   4.681   5.622 -0.0789  0.8815 -0.0614
   66MOL   C35140781   5.460   4.618   5.585 -1.1292 -0.5250 -0.2984
   66MOL   C35240782   5.468   4.595   5.434 -0.3096  0.6264 -0.2378
   66MOL   C35340783   5.292   4.655   6.587  0.1886 -0.6016  0.6761
   66MOL   H35440784   5.332   4.490   6.442 -1.4182  1.2369  0.9272
   66MOL   H35540785   5.266   4.768   6.312  1.7661 -0.5544  4.1607
   66MOL   H35640786   5.279   4.598   6.254 -1.5720  1.1193 -2.1497
   66MOL   H35740787   5.502   4.690   6.144  1.1849  1.5151 -0.3848
   66MOL   H35840788   5.407   4.840   6.127  0.1682  0.2617  1.8496
   66MOL   H35940789   5.298   4.573   6.030 -0.2580 -0.9661 -1.4377
   66MOL   H36040790   5.223   4.733   6.015  0.7736  0.8479 -0.6412
   66MOL   H36140791   5.387   4.819   5.867 -1.9277 -0.0719 -2.5434
   66MOL   H36240792   5.478   4.667   5.865 -0.6973 -1.0253 -0.2184
   66MOL   H36340793   5.297   4.538   5.783 -1.1394  0.0882  0.6487
   66MOL   H36440794   5.190   4.678   5.779  1.4523  3.3344  2.2261
   66MOL   H36540795   5.328   4.790   5.612  1.3308  1.0503  1.4336
   66MOL   H36640796   5.249   4.645   5.558 -0.1143  2.0028 -0.6629
   66MOL   H36740797   5.547   4.670   5.625  0.1286 -2.2901 -0.6811
   66MOL   H36840798   5.465   4.517   5.625  0.8449 -1.1317 -1.9967
   66MOL   H36940799   5.375   4.543   5.410 -1.9929  2.7542  1.4860
   66MOL   H37040800   5.553   4.530   5.415 -0.9798 -0.1791 -0.5320
   66MOL   H37140801   5.474   4.686   5.374 -0.8576 -0.5475 -2.0850
   66MOL   H37240802   5.365   4.723   6.630 -0.5580 -0.1484  1.2458
   66MOL   H37340803   5.228   4.712   6.519 -0.9903 -1.5058  1.0060
   66MOL   C37440804   5.189   4.572   6.682 -0.4068 -0.6527 -0.3446
   66MOL   O37540805   5.070   4.577   6.610  0.4373  0.1985 -0.7772
   66MOL   C37640806   4.970   4.493   6.663 -0.2663 -0.6171  0.5412
   66MOL   C37740807   4.852   4.495   6.567 -0.3218  0.1569  0.1240
   66MOL   C37840808   4.732   4.436   6.631  0.4869  0.5610  0.0990
   66MOL   C37940809   4.718   4.281   6.646  0.4749  0.1205 -0.3697
   66MOL   C38040810   4.703   4.216   6.508 -0.1302 -0.2500 -0.1777
   66MOL   C38140811   4.617   4.096   6.491  0.3383  0.2285  0.4773
   66MOL   C38240812   4.556   4.082   6.343  0.5582 -0.1389 -0.2839
   66MOL   C38340813   4.507   3.941   6.329 -0.8592 -0.2662 -0.0011
   66MOL   C38440814   5.167   4.658   6.816 -0.1825 -0.3282 -0.7424
   66MOL   H38540815   5.222   4.471   6.703 -0.3009 -0.1932  1.8223
   66MOL   H38640816   4.937   4.506   6.766  1.0726  0.7392  0.8082
   66MOL   H38740817   5.007   4.391   6.674  1.9584  0.1899  0.8456
   66MOL   H38840818   4.890   4.446   6.478  1.0643  1.2888  0.0769
   66MOL   H38940819   4.835   4.601   6.550  1.5460  0.3461 -0.6804
   66MOL   H39040820   4.722   4.486   6.728  0.8723 -0.2408  0.5550
   66MOL   H39140821   4.651   4.472   6.568 -0.4468 -0.9586  0.4176
   66MOL   H39240822   4.806   4.254   6.706  1.2364  2.0704 -0.5719
   66MOL   H39340823   4.630   4.265   6.708 -1.1513  2.0273 -2.1002
   66MOL   H39440824   4.653   4.288   6.442 -1.2579  0.8620  1.8421
   66MOL   H39540825   4.800   4.207   6.460 -1.6893 -1.0221 -3.3155
   66MOL   H39640826   4.535   4.108   6.562  1.1712  0.9362  1.3239
   66MOL   H39740827   4.677   4.014   6.531 -1.8711 -1.6926 -0.0000
   66MOL   H39840828   4.472   4.149   6.326  1.9513  1.2357 -2.0434
   66MOL   H39940829   4.628   4.109   6.266 -0.2758  2.7520 -0.1112
   66MOL   H40040830   4.592   3.873   6.326 -1.8792 -1.5659  0.1988
   66MOL   H40140831   4.447   3.930   6.238  0.1350 -0.2748 -0.6604
   66MOL   H40240832   4.438   3.908   6.406  0.1199  1.3321  1.5909
   66MOL   H40340833   5.179   4.763   6.791  0.1876 -0.1330  0.2130
   66MOL   H40440834   5.064   4.661   6.849 -0.1722  1.1010 -0.8090
   66MOL   C40540835   5.261   4.607   6.935 -0.2570 -0.2669  0.3991
   66MOL   O40640836   5.195   4.488   6.990 -0.0881  0.0759 -0.6756
   66MOL   C40740837   5.289   4.385   7.021  0.4005 -0.1477  0.3633
   66MOL   C40840838   5.204   4.263   7.060  0.2048 -0.2792  0.0479
   66MOL   C40940839   5.100   4.215   6.951  0.1423 -0.1003  0.2249
   66MOL   C41040840   5.010   4.105   6.996 -0.7749 -0.0404  0.8471
   66MOL   C41140841   4.905   4.064   6.893 -0.2566 -0.0493  0.2761
   66MOL   C41240842   4.827   3.941   6.940  0.0950  0.4670  0.0928
   66MOL   C41340843   4.719   3.898   6.844  0.0676  0.7213 -0.2874
   66MOL   C41440844   4.583   3.981   6.852  0.3593 -0.6717  0.1403
   66MOL   C41540845   5.299   4.714   7.051 -0.4167 -1.0369  1.0750
   66MOL   H41640846   5.359   4.578   6.897 -0.2424  1.2190 -0.7326
   66MOL   H41740847   5.337   4.425   7.110 -1.2545  0.8333  0.8461
   66MOL   H41840848   5.353   4.371   6.934  0.6934 -0.4045  0.6211
   66MOL   H41940849   5.154   4.285   7.154  0.7803  1.4734 -0.0315
   66MOL   H42040850   5.265   4.179   7.092  3.6433  1.0695 -2.5273
   66MOL   H42140851   5.045   4.306   6.924 -0.7268 -0.3424  1.1640
   66MOL   H42240852   5.158   4.180   6.866  0.6727 -1.1063  1.0000
   66MOL   H42340853   5.074   4.017   7.008 -1.7120 -0.4781  2.8797
   66MOL   H42440854   4.962   4.128   7.091 -0.3562 -0.1188  1.0798
   66MOL   H42540855   4.838   4.150   6.885 -3.0447 -2.3260 -2.0794
   66MOL   H42640856   4.950   4.042   6.796 -0.7104 -1.1267  0.2958
   66MOL   H42740857   4.785   3.950   7.041  1.1425 -1.2728  0.6944
   66MOL   H42840858   4.903   3.865   6.955 -1.0511 -0.6713  0.2371
   66MOL   H42940859   4.763   3.899   6.745 -1.0304  0.1941 -0.7889
   66MOL   H43040860   4.700   3.791   6.851 -1.6547  0.8980 -1.8926
   66MOL   H43140861   4.596   4.090   6.856  0.7377 -0.6622 -1.0801
   66MOL   H43240862   4.538   3.958   6.949 -0.2901  0.1444  0.0459
   66MOL   H43340863   4.500   3.960   6.786 -2.1714  0.5863  2.7959
   66MOL   H43440864   5.200   4.749   7.080 -0.2399  0.4043  0.0369
   66MOL   H43540865   5.349   4.668   7.135  2.1960 -1.3548 -0.5892
   66MOL   C43640866   5.392   4.834   7.007  0.0507  0.5242 -0.4344
   66MOL   O43740867   5.306   4.924   6.933 -0.0013 -0.1323  0.2185
   66MOL   C43840868   5.232   5.015   7.022 -0.3013 -0.2615  0.2777
   66MOL   C43940869   5.129   5.101   6.946 -0.6345  0.1240  0.3663
   66MOL   C44040870   5.205   5.204   6.863  0.4123  0.2971  0.4331
   66MOL   C44140871   5.113   5.287   6.775 -0.6052  0.3844 -0.0368
   66MOL   C44240872   5.027   5.393   6.850 -0.3827  0.3624  0.3146
   66MOL   C44340873   4.974   5.511   6.757 -0.1322  0.5893  0.4137
   66MOL   C44440874   4.858   5.467   6.661 -0.4010  0.7959  0.0628
   66MOL   C44540875   4.719   5.520   6.710 -0.3431  0.3936 -0.1638
   66MOL   C44640876   5.519   4.801   6.928  0.5273 -0.7867  0.6800
   66MOL   H44740877   5.417   4.882   7.101  0.2387 -1.0160  0.3215
   66MOL   H44840878   5.184   4.977   7.113  1.0775  1.1678  1.6289
   66MOL   H44940879   5.307   5.084   7.059 -0.2557  0.2680 -0.8057
   66MOL   H45040880   5.077   5.150   7.028  1.1486  0.0831  1.5637
   66MOL   H45140881   5.058   5.046   6.885 -1.2925  0.4239  0.8639
   66MOL   H45240882   5.265   5.273   6.923  0.5730 -0.9805  1.7618
   66MOL   H45340883   5.283   5.156   6.805 -0.1672 -0.3741  0.2147
   66MOL   H45440884   5.178   5.338   6.703  2.4347 -3.0906  0.0416
   66MOL   H45540885   5.046   5.217   6.726 -2.5150  0.3732  2.5073
   66MOL   H45640886   4.949   5.352   6.914  0.1359 -0.1534  0.6289
   66MOL   H45740887   5.084   5.441   6.930  0.3164 -0.6198  0.4279
   66MOL   H45840888   5.059   5.545   6.698  0.6612 -2.6806 -0.4238
   66MOL   H45940889   4.951   5.598   6.818  0.9874  0.2479  1.3440
   66MOL   H46040890   4.888   5.515   6.568 -0.6930 -0.8045 -0.8760
   66MOL   H46140891   4.857   5.359   6.645  3.9221  0.8678 -1.5123
   66MOL   H46240892   4.685   5.471   6.801  0.3105  1.0965  0.4594
   66MOL   H46340893   4.645   5.497   6.632  1.3560 -0.1004 -1.6652
   66MOL   H46440894   4.721   5.625   6.740  0.7179 -0.1155  1.5805
   66MOL   H46540895   5.567   4.715   6.974  1.5858  0.2064  1.4736
   66MOL   H46640896   5.490   4.766   6.829  0.4580 -0.3894  0.5569
   66MOL   C46740897   5.621   4.921   6.940 -0.2641 -0.4223 -0.8304
   66MOL   O46840898   5.679   4.943   6.814  0.5345  0.1069 -0.5277
   66MOL   C46940899   5.586   5.027   6.733 -0.2252  0.1329  0.2672
   66MOL   C47040900   5.563   4.959   6.599 -0.0875 -0.4761  0.6255
   66MOL   C47140901   5.689   4.963   6.513  0.5808  0.0821 -0.0334
   66MOL   C47240902   5.663   4.892   6.380  0.6378  0.0207  0.6288
   66MOL   C47340903   5.766   4.934   6.270  0.4378  0.1655 -0.5633
   66MOL   C47440904   5.751   4.868   6.130  0.1324  0.4885 -0.7313
   66MOL   C47540905   5.864   4.921   6.046  0.7234  0.5350  0.7210
   66MOL   C47640906   5.868   4.840   5.905 -0.4847 -0.0113  0.1377
   66MOL   C47740907   5.740   4.875   7.027 -0.2209 -0.0878  0.3116
   66MOL   H47840908   5.574   5.011   6.980  0.1699 -1.1905  1.4894
   66MOL   H47940909   5.633   5.125   6.722  0.4792 -0.0656  1.4118
   66MOL   H48040910   5.483   5.041   6.766  0.2072  0.8977  1.3501
   66MOL   H48140911   5.478   5.005   6.549 -1.8388 -2.2670  1.8890
   66MOL   H48240912   5.542   4.854   6.619  3.3138 -1.5077 -0.7983
   66MOL   H48340913   5.711   5.064   6.480  2.2426 -0.3438 -0.2857
   66MOL   H48440914   5.772   4.924   6.572  0.1251 -0.5896  0.1647
   66MOL   H48540915   5.672   4.784   6.393  1.6262  0.0785  0.4383
   66MOL   H48640916   5.566   4.910   6.333  0.1864  2.6953  2.4708
   66MOL   H48740917   5.768   5.043   6.256 -0.4041  0.5637  2.1789
   66MOL   H48840918   5.865   4.897   6.298  0.4047 -0.7082 -1.5911
   66MOL   H48940919   5.652   4.874   6.085 -0.7432  0.0822  1.0627
   66MOL   H49040920   5.778   4.766   6.157  0.3255  0.7081 -0.0880
   66MOL   H49140921   5.842   5.024   6.015 -2.0557  0.2789  1.7271
   66MOL   H49240922   5.960   4.918   6.096  0.5541  0.5752  1.0487
   66MOL   H49340923   5.953   4.868   5.844  0.6308  1.2923  2.2259
   66MOL   H49440924   5.771   4.860   5.860 -0.1009  1.6514  0.0382
   66MOL   H49540925   5.880   4.734   5.926 -2.8770 -0.1819  0.8644
   66MOL   H49640926   5.796   4.788   6.990 -0.7111 -1.1908  2.1072
   66MOL   H49740927   5.810   4.957   7.015 -1.2489  0.8300  0.5403
   66MOL   C49840928   5.728   4.858   7.178  0.0298 -0.0530  0.0392
   66MOL   O49940929   5.654   4.965   7.237 -0.4011 -0.2305  0.0062
   66MOL   C50040930   5.709   5.101   7.216  0.1920 -0.3774 -0.1068
   66MOL   C50140931   5.610   5.196   7.297 -0.5092 -0.0414  0.1067
   66MOL   C50240932   5.462   5.208   7.246 -0.2990 -0.3742 -0.2000
   66MOL   C50340933   5.381   5.304   7.339 -0.0920  0.3367  0.7618
   66MOL   C50440934   5.238   5.308   7.272  0.4375  0.5089 -0.2127
   66MOL   C50540935   5.142   5.417   7.324 -0.3433 -0.2304  0.4773
   66MOL   C50640936   5.083   5.391   7.462 -0.2456  0.1320  0.5119
   66MOL   C50740937   5.003   5.502   7.525 -0.5760  1.2010  0.3017
   66MOL   C50840938   5.861   4.821   7.243  0.1838 -0.2174  0.2255
   66MOL   H50940939   5.662   4.773   7.196  0.1340  0.0599  0.9979
   66MOL   H51040940   5.710   5.131   7.112 -0.0036  0.4183  0.1212
   66MOL   H51140941   5.815   5.098   7.242 -0.5004  1.2664  3.1939
   66MOL   H51240942   5.652   5.296   7.291 -1.1154  0.0583 -3.5630
   66MOL   H51340943   5.589   5.172   7.401  0.7808  2.6278  1.0289
   66MOL   H51440944   5.466   5.244   7.144  1.2222  1.4029  0.4560
   66MOL   H51540945   5.421   5.108   7.262 -0.0487 -0.3912  0.3542
   66MOL   H51640946   5.378   5.267   7.441  0.8254 -0.3001  0.5629
   66MOL   H51740947   5.440   5.395   7.331  0.3534 -0.2220 -4.1213
   66MOL   H51840948   5.253   5.321   7.165  0.8487  1.1529 -0.0800
   66MOL   H51940949   5.192   5.213   7.299  1.8074 -0.1130 -0.0453
   66MOL   H52040950   5.052   5.423   7.263 -0.4278  0.3846  0.6589
   66MOL   H52140951   5.193   5.511   7.343  0.4637 -0.5575 -0.0519
   66MOL   H52240952   5.028   5.297   7.463  0.9700 -0.5858  2.3961
   66MOL   H52340953   5.171   5.393   7.526  1.2548  1.5383 -1.5275
   66MOL   H52440954   4.935   5.543   7.450 -3.2030  0.7923  2.3659
   66MOL   H52540955   5.062   5.587   7.556  1.2716  0.9549 -2.3490
   66MOL   H52640956   4.947   5.462   7.610 -1.7183  0.7780 -0.6318
   66MOL   H52740957   5.892   4.734   7.185 -2.1237  0.0085 -1.3911
   66MOL   H52840958   5.923   4.909   7.228 -0.0284  0.0172  0.6932
   66MOL   C52940959   5.854   4.792   7.393 -0.2098 -0.5336  0.2199
   66MOL   O53040960   5.993   4.777   7.431  0.4128  0.2540  0.2133
   66MOL   C53140961   6.017   4.767   7.570  0.7907  0.0425 -0.4732
   66MOL   C53240962   6.156   4.819   7.585  0.4516  0.2791  1.1128
   66MOL   C53340963   6.223   4.740   7.705  0.4046  0.2230  0.1121
   66MOL   C53440964   6.375   4.778   7.719 -0.5670  0.2198  0.2977
   66MOL   C53540965   6.409   4.923   7.760  0.0780  0.8583 -0.7036
   66MOL   C53640966   6.357   4.948   0.128  0.7703 -0.1924  0.3190
   66MOL   C53740967   6.403   5.094   0.171 -0.3761  0.2114  0.2095
   66MOL   C53840968   6.405   5.107   0.325  0.0800  0.4834  0.2372
   66MOL   C53940969   5.781   4.662   7.425  0.2149  0.2134  0.0269
   66MOL   H54040970   5.807   4.875   7.448 -3.5574 -1.0094 -1.8046
   66MOL   H54140971   5.944   4.816   7.636 -1.0254 -0.3586 -2.1316
   66MOL   H54240972   5.998   4.662   7.591 -0.4669  0.4031  0.3140
   66MOL   H54340973   6.160   4.927   7.600  0.5156  0.4639 -0.2243
   66MOL   H54440974   6.213   4.795   7.496 -1.1261  0.8595 -0.0748
   66MOL   H54540975   6.164   4.756   0.021  1.6790  0.0045  1.0070
   66MOL   H54640976   6.222   4.632   7.691 -0.0011  0.1572  0.6294
   66MOL   H54740977   6.427   4.707   0.009  0.5750  1.3498  0.6275
   66MOL   H54840978   6.425   4.763   7.623 -2.4960  0.7973 -0.8411
   66MOL   H54940979   6.517   4.917   7.745  0.0411  1.7285 -1.3045
   66MOL   H55040980   6.372   4.995   7.688 -1.6243 -1.3519 -2.1094
   66MOL   H55140981   6.396   4.884   0.207  0.6356  0.5767  1.0145
   66MOL   H55240982   6.249   4.944   0.121  0.8464  0.4642 -1.6169
   66MOL   H55340983   6.499   5.123   0.128 -1.6893  0.8696 -2.4037
   66MOL   H55440984   6.335   5.175   0.145 -0.7772  0.1755  1.1466
   66MOL   H55540985   6.303   5.089   0.360 -1.1726  0.5855 -3.1745
   66MOL   H55640986   6.432   5.210   0.344 -0.5241  0.3432  1.8919
   66MOL   H55740987   6.485   5.052   0.374 -0.6577 -0.0487  0.8604
   66MOL   H55840988   5.727   4.627   7.337  0.7613 -0.6966  0.0420
   66MOL   H55940989   5.856   4.585   7.442 -0.7650 -0.9107 -0.6115
   66MOL   C56040990   5.682   4.672   7.544  0.0523  0.0655 -0.5682
   66MOL   O56140991   5.752   4.630   7.666  0.2891 -0.2950  0.2021
   66MOL   C56240992   5.699   4.710   0.002 -0.5961  0.1323  0.0220
   66MOL   C56340993   5.765   4.681   0.139  0.2291 -0.2021 -0.1003
   66MOL   C56440994   5.918   4.668   0.147  0.0844  0.4324 -0.0236
   66MOL   C56540995   5.973   4.631   0.286 -0.5348  0.0598  0.4838
   66MOL   C56640996   6.122   4.662   0.298 -0.0886  0.3812 -0.6833
   66MOL   C56740997   6.175   4.676   0.447  0.5897 -0.7093  0.3695
   66MOL   C56840998   6.322   4.654   0.478 -0.1250 -0.4516 -0.7689
   66MOL   C56940999   6.358   4.595   0.618  0.4503 -0.6359  0.5534
   66MOL   C57041000   5.558   4.582   7.527 -0.4721  0.6317 -0.6650
   66MOL   H57141001   5.643   4.773   7.557 -2.2171 -0.9024  0.2799
   66MOL   H57241002   5.591   4.718   0.014 -0.6220 -0.2958  0.0691
   66MOL   H57341003   5.731   4.809   7.745 -0.4984  0.7098  1.8672
   66MOL   H57441004   5.724   4.590   0.182  0.0109 -0.5583 -1.0635
   66MOL   H57541005   5.742   4.770   0.198  2.9383 -0.9105  2.1664
   66MOL   H57641006   5.949   4.589   0.078  1.8060  1.1705 -0.1112
   66MOL   H57741007   5.951   4.768   0.118  3.3288 -1.1797 -2.1826
   66MOL   H57841008   5.925   4.689   0.365 -0.4798 -2.1579  2.1827
   66MOL   H57941009   5.959   4.525   0.307  0.9879 -0.3182 -0.3537
   66MOL   H58041010   6.176   4.577   0.256 -0.6392 -0.5144  0.3842
   66MOL   H58141011   6.146   4.756   0.250  1.4307  0.0543 -0.6058
   66MOL   H58241012   6.115   4.604   0.502  2.9735 -0.9092  2.8169
   66MOL   H58341013   6.140   4.770   0.489 -2.4588 -1.3432 -0.6515
   66MOL   H58441014   6.350   4.583   0.401 -0.0252  0.8026 -1.9109
   66MOL   H58541015   6.360   4.755   0.461  0.1432 -0.1863  1.2917
   66MOL   H58641016   6.323   4.666   0.693 -0.1281 -0.8871  0.5265
   66MOL   H58741017   6.465   4.589   0.639  1.3219  2.9954 -2.4080
   66MOL   H58841018   6.324   4.491   0.628  2.8128 -1.4259  0.6183
   66MOL   H58941019   5.590   4.478   7.514  0.9712  0.7941  1.2958
   66MOL   H59041020   5.511   4.585   7.625  0.2532  2.6439 -0.3539
   66MOL   C59141021   5.453   4.638   7.432  0.2719  0.6957  0.0781
   66MOL   O59241022   5.386   4.742   7.496 -0.3431  0.2682  0.2297
   66MOL   C59341023   5.344   4.844   7.403  0.1124  0.6484 -0.5221
   66MOL   C59441024   5.253   4.940   7.476  0.0060  0.2018 -0.3312
   66MOL   C59541025   5.323   5.003   7.600 -0.5554  0.3584  0.2181
   66MOL   C59641026   5.233   5.094   7.678  0.3476  0.5791  0.0995
   66MOL   C59741027   5.293   5.210   7.761 -0.0042  0.5392 -0.0857
   66MOL   C59841028   5.197   5.317   0.038 -0.6595 -0.1572 -0.5298
   66MOL   C59941029   5.266   5.403   0.148  0.0530  0.0041  0.1332
   66MOL   C60041030   5.186   5.531   0.176 -0.4464  0.7226 -0.1413
   66MOL   C60141031   5.348   4.529   7.410  0.1186  0.1172  0.0039
   66MOL   H60241032   5.500   4.669   7.339  0.4319  2.1468  0.6209
   66MOL   H60341033   5.277   4.798   7.331 -0.7035  4.5840 -2.3951
   66MOL   H60441034   5.424   4.891   7.346 -0.7298  1.6394 -0.8919
   66MOL   H60541035   5.164   4.885   7.508  1.5975 -2.0838  0.3367
   66MOL   H60641036   5.229   5.019   7.405 -1.2527 -0.2309 -0.4034
   66MOL   H60741037   5.368   4.926   7.662  0.3437  1.1747  0.5864
   66MOL   H60841038   5.412   5.057   7.569  1.5310 -2.9448  0.1769
   66MOL   H60941039   5.181   5.157   7.605 -0.1297 -0.3217 -0.3504
   66MOL   H61041040   5.164   5.032   7.735  2.1798 -1.5318  0.0891
   66MOL   H61141041   5.328   5.157   0.075 -4.1672  1.8141  2.4900
   66MOL   H61241042   5.369   5.267   7.708 -1.0648  1.5898 -0.4931
   66MOL   H61341043   5.107   5.267   0.071  0.2048  1.1670  4.1364
   66MOL   H61441044   5.182   5.377   7.722 -2.2456  2.5964  1.4851
   66MOL   H61541045   5.290   5.340   0.234  1.7408 -0.5176 -0.7012
   66MOL   H61641046   5.361   5.439   0.107  1.5065 -2.3861  1.2715
   66MOL   H61741047   5.200   5.601   0.093  1.5433 -1.2606 -1.5445
   66MOL   H61841048   5.209   5.596   0.261  1.6227  0.9063 -0.8087
   66MOL   H61941049   5.081   5.505   0.187  0.0910 -0.5043  2.2450
   66MOL   H62041050   5.389   4.432   7.382  2.0914  1.5209 -2.2338
   66MOL   H62141051   5.284   4.518   7.497  0.9296  0.3328  0.6281
   66MOL   H62241052   5.276   4.561   7.334 -1.6328  2.5169  2.6056
   67MOL     C141053   3.456   4.324   2.622  0.1540  0.2371 -0.2724
   67MOL     O241054   3.409   4.358   2.495 -0.1204  0.6382 -0.1210
   67MOL     C341055   3.372   4.248   2.414  0.6296  0.7436  0.0892
   67MOL     C441056   3.333   4.293   2.275 -0.0701  0.3363  0.2919
   67MOL     C541057   3.194   4.352   2.265 -0.8234  0.6020  0.0513
   67MOL     C641058   3.161   4.409   2.126 -0.3930  0.0154  0.3735
   67MOL     C741059   3.023   4.476   2.133 -0.0851 -0.3867 -0.3395
   67MOL     C841060   2.902   4.379   2.135 -0.3472  0.3619 -0.5812
   67MOL     C941061   2.782   4.467   2.098 -0.3331  0.7090 -0.4697
   67MOL    C1041062   2.660   4.392   2.051  0.7056  0.5324  0.3515
   67MOL    C1141063   3.611   4.344   2.624  0.1474 -0.2692 -0.4175
   67MOL    H1241064   3.395   4.380   2.693 -2.0966 -3.4944  0.8867
   67MOL    H1341065   3.295   4.182   2.455 -0.2890  1.3370 -0.6522
   67MOL    H1441066   3.458   4.181   2.411  0.4649  0.5254  0.2104
   67MOL    H1541067   3.344   4.201   2.217  0.2861 -0.1671  1.1451
   67MOL    H1641068   3.398   4.371   2.235  3.4200 -2.4574  0.2914
   67MOL    H1741069   3.132   4.269   2.298  0.2524 -0.9154 -1.6590
   67MOL    H1841070   3.183   4.432   2.338  0.1084  0.4144  0.3895
   67MOL    H1941071   3.227   4.494   2.107 -1.5865  1.1589  1.2292
   67MOL    H2041072   3.159   4.334   2.047 -0.1787 -1.1545  1.4788
   67MOL    H2141073   3.035   4.553   2.209  2.4834  1.6062 -2.6362
   67MOL    H2241074   3.012   4.543   2.047 -1.7004  0.3173  0.4099
   67MOL    H2341075   2.886   4.318   2.224 -3.8790 -0.9616 -2.0202
   67MOL    H2441076   2.910   4.309   2.052 -2.9229  2.2159 -2.5051
   67MOL    H2541077   2.751   4.517   2.190 -1.0169 -1.4046  0.4885
   67MOL    H2641078   2.798   4.543   2.022 -1.6356 -0.1207 -1.5905
   67MOL    H2741079   2.603   4.345   2.130  2.0212  1.5180  1.9085
   67MOL    H2841080   2.694   4.306   1.994  1.2562  1.4447 -0.7263
   67MOL    H2941081   2.593   4.456   1.993  1.0189  3.0885  2.7342
   67MOL    H3041082   3.659   4.279   2.550 -0.0567  1.5382 -2.1832
   67MOL    H3141083   3.645   4.440   2.586 -1.1237 -0.8885 -3.2800
   67MOL    H3241084   3.438   4.221   2.653  2.2109  0.3699  1.4687
   67MOL    C3341085   3.688   4.324   2.756 -0.6510  0.8458 -0.0928
   67MOL    O3441086   3.674   4.188   2.803  0.0826  0.0125 -0.0469
   67MOL    C3541087   3.729   4.076   2.723 -0.2413 -0.7051  0.1919
   67MOL    C3641088   3.728   3.940   2.790  0.2310 -0.5545 -0.2208
   67MOL    C3741089   3.590   3.885   2.809 -0.9870 -0.5254  0.2090
   67MOL    C3841090   3.581   3.732   2.822 -0.0482 -0.2307  0.2104
   67MOL    C3941091   3.666   3.683   2.940 -0.2258  0.4916  0.2689
   67MOL    C4041092   3.670   3.531   2.945 -0.3544 -0.2273 -0.7137
   67MOL    C4141093   3.780   3.476   3.032  0.1114  0.3552  0.0999
   67MOL    C4241094   3.785   3.324   3.022  0.2276  0.1512  0.5103
   67MOL    C4341095   3.635   4.422   2.862 -0.4320  0.1007 -0.0417
   67MOL    H4441096   3.793   4.337   2.732 -0.3397 -1.0167  0.2402
   67MOL    H4541097   3.833   4.103   2.702 -0.2349  2.6997  3.9177
   67MOL    H4641098   3.688   4.068   2.622  2.9783  2.3539 -1.5093
   67MOL    H4741099   3.775   3.953   2.888 -1.4990  0.4958  0.4892
   67MOL    H4841100   3.791   3.875   2.729  0.0006 -1.2561  0.2847
   67MOL    H4941101   3.543   3.948   2.885  0.0804 -0.3610  0.7364
   67MOL    H5041102   3.539   3.917   2.718  1.6017  1.7944 -0.4767
   67MOL    H5141103   3.478   3.702   2.840 -0.0031 -0.1566  0.5943
   67MOL    H5241104   3.619   3.685   2.731 -1.2608  0.1670 -0.5079
   67MOL    H5341105   3.766   3.721   2.920  0.3349 -0.3926  1.3880
   67MOL    H5441106   3.643   3.724   3.038  2.7514  2.4026  0.2181
   67MOL    H5541107   3.683   3.492   2.844  1.8772  0.9380 -0.9229
   67MOL    H5641108   3.575   3.496   2.985  0.2965  0.4040  1.4507
   67MOL    H5741109   3.876   3.511   2.993  1.4127 -1.4794  1.5866
   67MOL    H5841110   3.769   3.519   3.131  2.1266 -1.3163  1.0787
   67MOL    H5941111   3.687   3.281   3.046  1.0746 -1.4091  1.2921
   67MOL    H6041112   3.853   3.282   3.097  0.6390 -2.2710 -1.1571
   67MOL    H6141113   3.811   3.281   2.926  3.5670  0.2609  1.2988
   67MOL    H6241114   3.537   4.395   2.901  0.2239  0.4703  1.9166
   67MOL    H6341115   3.688   4.408   2.956  0.5240  2.5117 -0.2052
   67MOL    C6441116   3.651   4.570   2.840 -0.4462 -0.4562  0.5176
   67MOL    O6541117   3.787   4.580   2.848 -0.1035 -0.0986  0.5476
   67MOL    C6641118   3.845   4.709   2.813 -0.5934  0.2977  0.5014
   67MOL    C6741119   3.985   4.680   2.749 -0.3562  1.1126 -0.3902
   67MOL    C6841120   4.049   4.810   2.695  0.0281  0.0495 -0.2099
   67MOL    C6941121   4.199   4.785   2.646 -0.1517  0.2545  0.1831
   67MOL    C7041122   4.256   4.899   2.563 -0.2807  0.2263 -0.3930
   67MOL    C7141123   4.402   4.886   2.521 -0.0984 -0.2756  0.3488
   67MOL    C7241124   4.457   4.997   2.429  0.1050  0.6108 -0.2241
   67MOL    C7341125   4.609   4.983   2.416  0.4383 -0.7568  0.0916
   67MOL    C7441126   3.580   4.662   2.938 -0.2003  0.4220  0.1692
   67MOL    H7541127   3.627   4.598   2.737 -0.2958  0.5545  0.7536
   67MOL    H7641128   3.850   4.792   2.883 -1.3450 -0.1228  1.0611
   67MOL    H7741129   3.785   4.753   2.733  0.0006  1.9218  0.9243
   67MOL    H7841130   3.982   4.591   2.686 -2.8671  0.0908  1.1191
   67MOL    H7941131   4.040   4.638   2.833 -0.5537  0.4991 -0.5728
   67MOL    H8041132   3.992   4.853   2.613 -0.2562  2.4566  1.1868
   67MOL    H8141133   4.044   4.886   2.773  0.7529  1.0217 -1.1032
   67MOL    H8241134   4.260   4.762   2.734  0.5191  1.8968  0.1734
   67MOL    H8341135   4.184   4.698   2.582  0.2650 -1.2855  2.0991
   67MOL    H8441136   4.191   4.932   2.482 -0.5052  2.3236  0.6140
   67MOL    H8541137   4.247   4.991   2.619 -0.2857  1.0932 -1.7779
   67MOL    H8641138   4.415   4.799   2.456 -0.0728  1.2260 -1.7313
   67MOL    H8741139   4.467   4.881   2.608 -0.5682  1.1702  0.7946
   67MOL    H8841140   4.410   4.991   2.331  1.5304 -1.4635 -0.7948
   67MOL    H8941141   4.431   5.092   2.477  0.7290  0.5971  0.1375
   67MOL    H9041142   4.633   4.907   2.342  2.2273 -0.4720  0.3441
   67MOL    H9141143   4.659   4.952   2.508 -0.0249  0.4333  0.7520
   67MOL    H9241144   4.668   5.069   2.383 -0.9433  1.0218  2.1536
   67MOL    H9341145   3.579   4.609   3.033 -1.6340 -0.6835 -0.4476
   67MOL    H9441146   3.632   4.758   2.942 -2.0598  1.4897 -0.5737
   67MOL    C9541147   3.433   4.678   2.901 -0.0228  0.0503  0.3021
   67MOL    O9641148   3.432   4.758   2.778 -0.1286 -0.0351 -0.2631
   67MOL    C9741149   3.322   4.749   2.700 -0.4018  0.2034 -0.2455
   67MOL    C9841150   3.354   4.839   2.578  0.1100 -0.1616 -0.6642
   67MOL    C9941151   3.354   4.991   2.622  0.0301  0.3478 -0.0136
   67MOL   C10041152   3.403   5.092   2.516 -0.0347  0.2738  0.4236
   67MOL   C10141153   3.391   5.238   2.556  0.6495  0.0805 -0.0661
   67MOL   C10241154   3.498   5.282   2.664 -0.2098 -0.3165 -0.4725
   67MOL   C10341155   3.458   5.416   2.729  0.6393 -0.4065  0.5942
   67MOL   C10441156   3.572   5.471   2.814  0.0788  0.0976  0.4499
   67MOL   C10541157   3.349   4.744   3.017  0.5348 -0.3219  0.5180
   67MOL   H10641158   3.394   4.580   2.875 -0.6189  0.3161  0.1736
   67MOL   H10741159   3.223   4.778   2.736 -1.4783 -3.1214 -0.2810
   67MOL   H10841160   3.303   4.643   2.679 -2.3394  0.5388 -0.2752
   67MOL   H10941161   3.289   4.833   2.491 -0.0518 -1.3890 -0.4734
   67MOL   H11041162   3.450   4.812   2.536  1.5772  3.0952  0.4055
   67MOL   H11141163   3.250   5.007   2.652  0.2670 -0.3094  1.1825
   67MOL   H11241164   3.420   5.003   2.708  2.8033 -1.5205 -1.8180
   67MOL   H11341165   3.507   5.076   2.489 -0.6690  0.1179 -2.0227
   67MOL   H11441166   3.360   5.066   2.420 -0.8485  0.6027  0.6920
   67MOL   H11541167   3.408   5.304   2.471  2.7104 -1.0573 -0.5721
   67MOL   H11641168   3.292   5.254   2.598  1.0897 -0.3190  1.1532
   67MOL   H11741169   3.592   5.304   2.613 -1.1607  1.4944 -1.4676
   67MOL   H11841170   3.509   5.205   2.741 -1.3449  0.1532  0.1697
   67MOL   H11941171   3.441   5.497   2.658  0.0583  0.1505  1.3624
   67MOL   H12041172   3.366   5.398   2.785  0.4466  1.5427  0.9456
   67MOL   H12141173   3.551   5.574   2.842 -3.6510 -0.5244  0.2038
   67MOL   H12241174   3.673   5.455   2.776 -0.3207  2.0453 -1.5592
   67MOL   H12341175   3.575   5.423   2.912 -2.1669 -0.1814  0.4209
   67MOL   H12441176   3.424   4.762   3.094 -0.1429 -0.9191  1.3275
   67MOL   H12541177   3.309   4.836   2.975  1.8510 -0.3658 -0.9016
   67MOL   C12641178   3.249   4.647   3.070  0.3786 -0.5413  0.1748
   67MOL   O12741179   3.165   4.610   2.964  0.1803  0.2764  0.2702
   67MOL   C12841180   3.088   4.494   2.986 -0.4600 -0.1839  0.1463
   67MOL   C12941181   3.049   4.445   2.843  0.2217 -0.5957 -0.4611
   67MOL   C13041182   2.966   4.542   2.763 -0.0410  0.6802  0.4349
   67MOL   C13141183   2.976   4.515   2.609  0.4102 -0.4923 -0.3980
   67MOL   C13241184   2.884   4.615   2.526  0.4406 -0.4892  0.0853
   67MOL   C13341185   2.946   4.757   2.523  0.5096 -0.3852 -0.0281
   67MOL   C13441186   2.895   4.848   2.407  0.2252 -0.2213  0.1881
   67MOL   C13541187   2.929   4.998   2.422 -0.6392  0.1508 -0.0489
   67MOL   C13641188   3.159   4.713   3.181 -0.1548  0.3079  0.1402
   67MOL   H13741189   3.310   4.561   3.097  1.6723  0.1912 -0.3657
   67MOL   H13841190   2.992   4.527   3.027 -0.1691  0.4241  0.3397
   67MOL   H13941191   3.129   4.418   3.052  0.4503  0.2762  0.1075
   67MOL   H14041192   2.992   4.353   2.845  0.3147 -0.6874 -1.4790
   67MOL   H14141193   3.137   4.423   2.781  1.4320  0.5630  0.7991
   67MOL   H14241194   2.859   4.532   2.785 -0.0013  0.8089  0.6880
   67MOL   H14341195   3.000   4.643   2.787  1.2878  0.1343  0.8758
   67MOL   H14441196   3.080   4.526   2.580  0.8305  1.6090  1.7058
   67MOL   H14541197   2.942   4.414   2.585  0.9040 -0.4758 -1.1774
   67MOL   H14641198   2.867   4.579   2.424 -3.3475  1.8714 -0.1953
   67MOL   H14741199   2.787   4.616   2.575 -0.6115 -0.5795 -1.9449
   67MOL   H14841200   3.055   4.757   2.524  0.5085  0.2585 -0.1877
   67MOL   H14941201   2.915   4.814   2.610 -0.5435 -1.3981  0.2700
   67MOL   H15041202   2.916   4.803   2.311  0.8364  1.3579 -0.4410
   67MOL   H15141203   2.786   4.841   2.418  0.4696  0.6890  3.9327
   67MOL   H15241204   2.952   5.049   2.328 -1.0269  1.4176  0.5263
   67MOL   H15341205   3.009   5.013   2.494  0.6920 -2.2710 -0.9659
   67MOL   H15441206   2.846   5.062   2.451 -0.9588  0.6657 -1.9863
   67MOL   H15541207   3.125   4.810   3.144 -1.1204 -0.1177 -0.1160
   67MOL   H15641208   3.074   4.648   3.201 -0.2356  0.3604 -0.0323
   67MOL   C15741209   3.230   4.734   3.309  0.0034  0.9449 -0.0994
   67MOL   O15841210   3.270   4.609   3.356  0.1589  0.8408 -0.3002
   67MOL   C15941211   3.387   4.608   3.434  0.1530  1.0822  0.1971
   67MOL   C16041212   3.519   4.593   3.349  0.0622 -0.3117  0.4839
   67MOL   C16141213   3.528   4.454   3.289  0.5869  0.0380  0.0697
   67MOL   C16241214   3.584   4.344   3.380  0.4079  0.2900 -0.8562
   67MOL   C16341215   3.618   4.210   3.307  0.4521  0.2584  0.3038
   67MOL   C16441216   3.507   4.109   3.292 -1.1539  0.2429  0.2389
   67MOL   C16541217   3.547   3.980   3.215  0.1782 -0.2007  0.8924
   67MOL   C16641218   3.655   3.897   3.294 -0.2877 -0.1347  0.6777
   67MOL   C16741219   3.144   4.799   3.428 -0.1269 -0.6843  0.1586
   67MOL   H16841220   3.316   4.798   3.287 -0.3323  1.1878 -0.7401
   67MOL   H16941221   3.386   4.522   3.501  0.9099 -0.7524 -2.0840
   67MOL   H17041222   3.386   4.695   3.500  2.2832  1.4966 -0.2592
   67MOL   H17141223   3.603   4.633   3.407  1.7284 -2.7920 -0.1531
   67MOL   H17241224   3.510   4.661   3.264  2.0376  0.0510  0.5320
   67MOL   H17341225   3.433   4.420   3.248 -0.4133  1.0846  1.4523
   67MOL   H17441226   3.597   4.453   3.205  0.4008 -2.0014 -0.0808
   67MOL   H17541227   3.678   4.367   3.430  1.7514 -1.8381 -2.3142
   67MOL   H17641228   3.504   4.325   3.451  0.2651  2.2332 -0.4715
   67MOL   H17741229   3.682   4.227   3.221  0.0207  1.6730  0.2590
   67MOL   H17841230   3.681   4.159   3.381  1.0362 -0.1208 -0.4499
   67MOL   H17941231   3.427   4.151   3.230 -0.4357 -1.4910 -1.9400
   67MOL   H18041232   3.470   4.076   3.389 -1.6756  0.3736  0.0868
   67MOL   H18141233   3.466   3.918   3.177 -0.4069  1.4921 -0.6963
   67MOL   H18241234   3.597   4.016   3.125 -0.0884  0.8151  1.1509
   67MOL   H18341235   3.748   3.954   3.303 -0.3222  0.2241 -1.0662
   67MOL   H18441236   3.684   3.796   3.266  0.9198  0.5703 -0.6966
   67MOL   H18541237   3.622   3.876   3.396  2.3052 -1.5358  1.2755
   67MOL   H18641238   3.061   4.731   3.447 -0.7080  0.1945  0.7958
   67MOL   H18741239   3.191   4.801   3.526 -0.4389 -1.3955  0.3244
   67MOL   C18841240   3.096   4.943   3.400  0.1786 -1.1890 -0.5999
   67MOL   O18941241   3.212   5.033   3.383 -0.4388  0.5788 -0.1979
   67MOL   C19041242   3.312   5.035   3.486  0.1630  0.3133 -0.0267
   67MOL   C19141243   3.438   5.107   3.431  0.0282  0.1184 -0.0570
   67MOL   C19241244   3.515   5.041   3.316 -1.3191  0.1760  0.2838
   67MOL   C19341245   3.630   5.133   3.262 -0.1016  0.2598 -0.4994
   67MOL   C19441246   3.704   5.064   3.148  0.6646  0.5704  0.1571
   67MOL   C19541247   3.806   5.150   3.087  0.0427  0.8812 -0.3861
   67MOL   C19641248   3.884   5.090   2.962  0.2954  0.5979  0.0579
   67MOL   C19741249   3.789   5.082   2.848 -0.6003  0.1203  0.5210
   67MOL   C19841250   3.001   4.998   3.506  0.6006  0.0704 -0.0941
   67MOL   H19941251   3.042   4.939   3.306  2.1180  2.6422 -1.9797
   67MOL   H20041252   3.261   5.067   3.576 -0.8710 -2.6442  0.4998
   67MOL   H20141253   3.340   4.931   3.499  0.1867 -0.1614 -3.3342
   67MOL   H20241254   3.509   5.128   3.511  1.0256  2.5869 -1.5266
   67MOL   H20341255   3.405   5.207   3.400  1.3100  0.5424 -0.0764
   67MOL   H20441256   3.549   4.944   3.353 -1.6302  0.1948  0.6122
   67MOL   H20541257   3.455   5.018   3.227 -1.4894 -1.0194  0.6891
   67MOL   H20641258   3.594   5.228   3.222 -0.6612  0.0530 -0.4888
   67MOL   H20741259   3.698   5.154   3.344 -0.0214 -1.9546  0.0280
   67MOL   H20841260   3.751   4.970   3.176 -1.9115 -1.3825 -1.7567
   67MOL   H20941261   3.633   5.030   3.073 -1.0446  0.6780  1.6777
   67MOL   H21041262   3.886   5.148   3.160 -2.0461 -0.4937  1.9325
   67MOL   H21141263   3.767   5.250   3.069 -0.2816  0.8716  0.2644
   67MOL   H21241264   3.949   5.173   2.933 -0.5292  0.8793 -1.0311
   67MOL   H21341265   3.947   5.003   2.979  1.0604  0.9170 -1.0773
   67MOL   H21441266   3.716   5.003   2.866 -0.7198  0.3800  1.2177
   67MOL   H21541267   3.826   5.062   2.748 -0.7397 -2.7024  0.9874
   67MOL   H21641268   3.747   5.183   2.840 -0.3767  0.0219 -2.4549
   67MOL   H21741269   2.918   4.928   3.504  0.6525  0.0341 -2.4236
   67MOL   H21841270   3.046   4.997   3.606 -0.1245  2.5756  0.2827
   67MOL   C21941271   2.944   5.139   3.489  0.0645  0.1182 -0.1843
   67MOL   O22041272   3.009   5.224   3.590 -0.1023  0.1627  0.2743
   67MOL   C22141273   2.998   5.366   3.568  0.0729  0.5465 -0.5930
   67MOL   C22241274   3.090   5.414   3.454  0.5002  0.1804  0.5775
   67MOL   C22341275   3.131   5.558   3.467 -1.1081  0.3162 -0.2481
   67MOL   C22441276   3.223   5.607   3.348  0.3442  0.5840 -0.0609
   67MOL   C22541277   3.348   5.532   3.343 -0.5305  0.0587 -0.6546
   67MOL   C22641278   3.466   5.609   3.278 -0.3712  0.3687  0.0084
   67MOL   C22741279   3.451   5.627   3.128  0.6346 -0.8775  0.2863
   67MOL   C22841280   3.404   5.776   3.109 -0.0040 -0.4310 -0.2167
   67MOL   C22941281   2.792   5.144   3.470 -0.3751 -0.2561 -0.9408
   67MOL   H23041282   2.987   5.175   3.395  0.3044  2.1019  0.6504
   67MOL   H23141283   3.036   5.407   3.662 -2.0426  1.4173 -0.0623
   67MOL   H23241284   2.895   5.400   3.552 -0.0508 -0.8269 -2.9246
   67MOL   H23341285   3.047   5.391   3.356  1.0499 -0.6751  0.5324
   67MOL   H23441286   3.171   5.342   3.467  0.8988  0.5737  0.2773
   67MOL   H23541287   3.039   5.615   3.465  0.1558  2.3795 -0.6630
   67MOL   H23641288   3.172   5.567   3.568  0.2082 -0.2655 -0.7107
   67MOL   H23741289   3.168   5.606   3.254 -2.2534 -2.0039  1.4014
   67MOL   H23841290   3.245   5.712   3.372  0.5213  0.5853 -0.2371
   67MOL   H23941291   3.379   5.517   3.447 -3.4131 -0.3889  0.1968
   67MOL   H24041292   3.327   5.434   3.298 -1.8681 -0.4422  0.9873
   67MOL   H24141293   3.556   5.552   3.300  1.8373  2.7239 -2.5949
   67MOL   H24241294   3.484   5.704   3.328 -1.7076  1.1114 -0.9010
   67MOL   H24341295   3.550   5.618   3.082 -0.1295 -1.3386 -1.3376
   67MOL   H24441296   3.386   5.553   3.080  0.7045 -0.3227 -0.6750
   67MOL   H24541297   3.338   5.814   3.187  1.8940  0.8249  0.8319
   67MOL   H24641298   3.368   5.793   3.008  0.4979 -2.4236 -0.7511
   67MOL   H24741299   3.488   5.846   3.116 -0.9810  0.7231  0.2814
   67MOL   H24841300   2.778   5.238   3.418 -0.5895  0.6303  0.6971
   67MOL   H24941301   2.754   5.075   3.395 -1.6592 -1.3263  0.6727
   67MOL   C25041302   2.702   5.138   3.596  0.1437 -0.1549  0.1518
   67MOL   O25141303   2.714   5.010   3.653 -0.4259  0.2220 -0.9019
   67MOL   C25241304   2.782   4.999   3.772 -0.2593  0.8684 -0.8986
   67MOL   C25341305   2.804   4.853   3.814 -0.4107 -0.5427  0.9113
   67MOL   C25441306   2.912   4.850   3.923  0.3039  0.7845  0.5080
   67MOL   C25541307   2.921   4.702   3.959  0.6538  0.0708 -0.6924
   67MOL   C25641308   3.031   4.678   4.064  0.3368 -0.1165  0.0549
   67MOL   C25741309   3.065   4.527   4.085 -0.1169 -0.2954  0.0600
   67MOL   C25841310   3.200   4.490   4.024 -0.4291  0.1497  0.1439
   67MOL   C25941311   3.248   4.347   4.043 -0.0517 -0.4268 -0.4131
   67MOL   C26041312   2.554   5.143   3.570  0.5753  0.0045 -0.2525
   67MOL   H26141313   2.730   5.215   3.668  0.7452  1.2845 -1.6102
   67MOL   H26241314   2.719   5.045   3.848  2.2712 -0.3497  2.0173
   67MOL   H26341315   2.881   5.043   3.767 -0.9830  2.4031 -2.3574
   67MOL   H26441316   2.846   4.796   3.731 -0.1791  1.4733 -0.3887
   67MOL   H26541317   2.707   4.810   3.839  0.1183 -2.8644 -0.8368
   67MOL   H26641318   3.008   4.899   3.902  0.9496 -1.1293 -1.1298
   67MOL   H26741319   2.876   4.906   4.009 -0.9250  2.4988 -1.0820
   67MOL   H26841320   2.824   4.658   3.979  0.7889  0.4070  0.7726
   67MOL   H26941321   2.962   4.659   3.867  2.1887 -1.3451  0.6286
   67MOL   H27041322   3.119   4.739   4.042 -0.5642  1.1435 -0.1014
   67MOL   H27141323   2.985   4.715   4.155  0.7022  1.1634 -0.2700
   67MOL   H27241324   2.982   4.463   4.058 -0.1380 -1.0446  1.8074
   67MOL   H27341325   3.079   4.508   4.192  0.0423  1.2315  0.3239
   67MOL   H27441326   3.204   4.516   3.919 -2.3319 -0.5389 -0.1169
   67MOL   H27541327   3.277   4.562   4.052 -1.8361  2.0381 -0.7632
   67MOL   H27641328   3.178   4.273   4.005 -2.3908  1.5786 -0.1558
   67MOL   H27741329   3.268   4.337   4.150 -0.5732  1.3430 -0.1373
   67MOL   H27841330   3.336   4.335   3.980 -1.0111 -1.2126 -1.6269
   67MOL   H27941331   2.507   5.053   3.529 -2.1209  1.3025 -0.1598
   67MOL   H28041332   2.506   5.134   3.668 -1.5051 -1.4732 -1.3629
   67MOL   C28141333   2.502   5.273   3.502  0.2010  0.2498 -0.7910
   67MOL   O28241334   2.531   5.273   3.362 -0.2809 -0.0833 -0.1731
   67MOL   C28341335   2.460   5.178   3.287  0.3216  0.5990  0.8528
   67MOL   C28441336   2.470   5.203   3.143  0.7452  0.0131  0.3729
   67MOL   C28541337   2.384   5.315   3.090  0.1861 -0.6308  0.3855
   67MOL   C28641338   2.242   5.266   3.043 -0.1774  0.2902  0.4870
   67MOL   C28741339   2.254   5.214   2.902 -0.6517  0.0132  0.4622
   67MOL   C28841340   2.130   5.141   2.867  0.0060  0.1714 -0.0147
   67MOL   C28941341   2.130   5.079   2.734 -0.0383 -0.1404 -0.4156
   67MOL   C29041342   1.993   4.999   2.722  0.7759  1.0376  0.1490
   67MOL   C29141343   2.558   5.411   3.560 -0.0285  0.1285 -0.2207
   67MOL   H29241344   2.393   5.274   3.499  0.0151 -0.0839  3.2836
   67MOL   H29341345   2.353   5.169   3.304 -0.5161 -2.1744 -4.6172
   67MOL   H29441346   2.507   5.080   3.300  0.3834  0.2057 -1.8644
   67MOL   H29541347   2.442   5.111   3.091 -0.9816  0.4721  0.4784
   67MOL   H29641348   2.573   5.219   3.108  0.1920  4.1261  0.3327
   67MOL   H29741349   2.368   5.389   3.169 -1.2956 -0.7636  0.2261
   67MOL   H29841350   2.433   5.373   3.012 -0.9684 -1.0404 -0.6364
   67MOL   H29941351   2.202   5.186   3.105 -0.8799  1.4799  1.6032
   67MOL   H30041352   2.168   5.346   3.039 -1.7275 -1.2356 -3.2946
   67MOL   H30141353   2.269   5.296   2.831  0.1552 -0.3689  0.1814
   67MOL   H30241354   2.336   5.142   2.900  0.6831  1.5246 -0.0840
   67MOL   H30341355   2.056   5.220   2.857 -1.5156 -1.3494 -0.9855
   67MOL   H30441356   2.103   5.076   2.950  1.5596  0.6064  0.8580
   67MOL   H30541357   2.128   5.159   2.659 -2.7976  1.5940  1.3918
   67MOL   H30641358   2.218   5.019   2.715  0.9042  0.5541  1.6961
   67MOL   H30741359   1.917   5.071   2.692 -2.9629 -2.2356  1.3292
   67MOL   H30841360   1.953   4.964   2.817 -1.5659  2.9779 -0.0483
   67MOL   H30941361   1.985   4.931   2.637  1.8919  2.5597 -1.2120
   67MOL   H31041362   2.615   5.397   3.652 -0.3400  0.6451  0.0554
   67MOL   H31141363   2.635   5.438   3.487 -0.8750 -0.9103 -1.5165
   67MOL   C31241364   2.459   5.530   3.574 -0.0580  0.2838 -0.0010
   67MOL   O31341365   2.338   5.501   3.642  0.0950 -0.3943 -0.1835
   67MOL   C31441366   2.344   5.476   3.781  0.2703 -0.2097 -0.3383
   67MOL   C31541367   2.208   5.412   3.824 -0.4926  0.2563 -0.0641
   67MOL   C31641368   2.086   5.506   3.801 -0.2962 -0.4461  0.1847
   67MOL   C31741369   1.959   5.456   3.868  1.1443  0.2204 -0.4672
   67MOL   C31841370   1.953   5.495   4.012 -0.4737 -0.3254 -0.6446
   67MOL   C31941371   1.811   5.491   4.081 -0.1509  0.0839 -0.0451
   67MOL   C32041372   1.809   5.504   4.232 -0.4312 -0.4644 -0.6581
   67MOL   C32141373   1.680   5.483   4.313  0.1278  0.7913 -0.1449
   67MOL   C32241374   2.411   5.571   3.429 -0.0680  0.5130 -0.8149
   67MOL   H32341375   2.518   5.610   3.619 -0.0342  2.3328 -3.4997
   67MOL   H32441376   2.365   5.571   3.830 -1.5656 -0.0857  0.2580
   67MOL   H32541377   2.426   5.406   3.796  1.0009  0.1797 -2.3709
   67MOL   H32641378   2.218   5.390   3.930 -1.1374 -0.5458 -0.1630
   67MOL   H32741379   2.196   5.315   3.776  0.9355 -0.2853  0.6695
   67MOL   H32841380   2.088   5.611   3.828 -0.3128  0.6078 -3.7210
   67MOL   H32941381   2.065   5.504   3.695 -2.2841  0.2756  0.5540
   67MOL   H33041382   1.874   5.511   3.828  0.2213 -1.2862 -0.5998
   67MOL   H33141383   1.945   5.349   3.854  3.1441 -0.3171  1.3284
   67MOL   H33241384   2.017   5.424   4.065 -0.2301  0.5726  0.2737
   67MOL   H33341385   2.011   5.585   4.035  0.0139 -0.5553 -0.9533
   67MOL   H33441386   1.758   5.398   4.058  1.0579 -0.1439 -2.0651
   67MOL   H33541387   1.758   5.568   4.026 -0.5670  1.6116  2.4430
   67MOL   H33641388   1.883   5.442   4.281 -0.4691  0.0077 -0.0053
   67MOL   H33741389   1.844   5.604   4.258 -0.7476 -0.8210  1.1966
   67MOL   H33841390   1.696   5.507   4.418 -0.7858 -0.6951  0.3571
   67MOL   H33941391   1.650   5.378   4.302  0.4727  0.7118 -0.3308
   67MOL   H34041392   1.600   5.546   4.274 -0.1739  0.2142 -0.4605
   67MOL   H34141393   2.500   5.601   3.373  0.4710 -0.6104 -0.5754
   67MOL   H34241394   2.367   5.481   3.386 -1.3351  0.0574  1.3354
   67MOL   C34341395   2.306   5.682   3.427  0.2939 -0.1930 -0.2366
   67MOL   O34441396   2.269   5.718   3.295  0.1003 -0.2394  0.0580
   67MOL   C34541397   2.179   5.635   3.241  0.0693  0.4452  0.8854
   67MOL   C34641398   2.160   5.684   3.103  0.2409  0.4856 -0.3148
   67MOL   C34741399   2.032   5.638   3.042 -0.4168  0.3445  1.2212
   67MOL   C34841400   2.014   5.708   2.905 -0.2916  0.4991  0.2353
   67MOL   C34941401   1.891   5.667   2.822 -0.1182 -0.4393  0.0040
   67MOL   C35041402   1.898   5.513   2.784  0.0305 -0.0599  0.0354
   67MOL   C35141403   1.800   5.466   2.671  0.1174 -0.7624 -0.6020
   67MOL   C35241404   1.817   5.309   2.651 -0.2905  0.2827  0.6604
   67MOL   C35341405   2.355   5.821   3.492  1.0351 -0.5928  0.3309
   67MOL   H35441406   2.225   5.637   3.485 -0.6900  0.9835 -0.6781
   67MOL   H35541407   2.088   5.619   3.299 -0.3642 -2.2596 -0.4353
   67MOL   H35641408   2.216   5.533   3.227 -1.6759 -0.3459  1.7623
   67MOL   H35741409   2.245   5.656   3.041  0.9628  1.1996  0.3272
   67MOL   H35841410   2.160   5.793   3.109  2.1002  0.6082 -1.9520
   67MOL   H35941411   2.034   5.532   3.020  0.4799  1.1536 -2.9828
   67MOL   H36041412   1.941   5.661   3.099 -0.8321 -0.1551  0.7581
   67MOL   H36141413   2.024   5.815   2.922 -0.9746  0.6157 -0.0710
   67MOL   H36241414   2.095   5.671   2.843  0.8722  1.5612  1.1049
   67MOL   H36341415   1.795   5.690   2.867 -0.3752 -1.8659  0.2184
   67MOL   H36441416   1.895   5.729   2.733 -1.0219  1.4307  1.2220
   67MOL   H36541417   1.890   5.450   2.873 -1.0648 -1.6152 -1.1434
   67MOL   H36641418   1.997   5.480   2.750 -0.4233 -1.7199  0.2849
   67MOL   H36741419   1.700   5.489   2.708  1.0094  1.1065  0.7719
   67MOL   H36841420   1.813   5.526   2.581  0.9108 -0.0281 -0.0061
   67MOL   H36941421   1.720   5.272   2.619 -0.9154  2.6079 -0.2658
   67MOL   H37041422   1.826   5.270   2.752 -2.7795 -1.6124  0.2104
   67MOL   H37141423   1.899   5.279   2.586 -0.2025  1.9766 -0.0399
   67MOL   H37241424   2.412   5.812   3.584 -0.2620  1.3440  1.3473
   67MOL   H37341425   2.424   5.856   3.415 -1.3730  0.6834 -1.3303
   67MOL   C37441426   2.255   5.936   3.513 -0.2095  0.0316 -0.3893
   67MOL   O37541427   2.324   6.060   3.526  0.2948  0.2115 -0.3351
   67MOL   C37641428   2.315   6.135   3.406 -0.0654 -0.6035 -0.5137
   67MOL   C37741429   2.401   6.077   3.289  0.4349  0.0318  0.9821
   67MOL   C37841430   2.380   6.142   3.157  0.6396  0.1994  0.1196
   67MOL   C37941431   2.462   6.088   3.043 -0.1091  0.1040  0.7077
   67MOL   C38041432   2.451   5.942   3.016 -0.3810 -1.1449  0.0680
   67MOL   C38141433   2.544   5.868   2.919  0.1601 -0.4838 -0.0193
   67MOL   C38241434   2.504   5.720   2.920  0.6905  0.0347 -0.1106
   67MOL   C38341435   2.597   5.641   2.833  0.1215  0.3430 -0.4889
   67MOL   C38441436   2.173   5.917   3.637 -0.7383  0.2105  0.1038
   67MOL   H38541437   2.181   5.939   3.432 -1.2438 -1.8774  0.4557
   67MOL   H38641438   2.339   6.239   3.425  0.5201 -1.0306  1.0873
   67MOL   H38741439   2.210   6.147   3.382 -0.3795 -2.6769 -0.2443
   67MOL   H38841440   2.363   5.977   3.269 -1.5422  0.5070  2.2541
   67MOL   H38941441   2.504   6.064   3.323  1.6025  4.4042 -0.5542
   67MOL   H39041442   2.276   6.131   3.126  0.4631  1.0958  0.3671
   67MOL   H39141443   2.392   6.249   3.176 -0.1781  0.2438  0.3900
   67MOL   H39241444   2.451   6.151   2.954  2.9989 -2.5738 -1.6987
   67MOL   H39341445   2.566   6.112   3.064 -0.3230  2.0163 -0.2798
   67MOL   H39441446   2.467   5.890   3.110  1.9453  0.6070  0.6881
   67MOL   H39541447   2.347   5.919   2.992 -1.3244  1.0915  1.8612
   67MOL   H39641448   2.647   5.880   2.952  0.5985 -1.3404 -1.0793
   67MOL   H39741449   2.541   5.907   2.817  1.3683 -0.9544 -0.2350
   67MOL   H39841450   2.499   5.679   3.021 -0.3866 -1.1530 -0.6256
   67MOL   H39941451   2.404   5.721   2.877  0.7652  0.6401 -0.2664
   67MOL   H40041452   2.567   5.536   2.835  1.1067  0.0713  0.1330
   67MOL   H40141453   2.703   5.653   2.857  0.0917  1.2738 -0.8250
   67MOL   H40241454   2.582   5.677   2.731 -1.5546  0.4106 -0.2226
   67MOL   H40341455   2.207   5.832   3.698  0.1209  0.9726  0.7006
   67MOL   H40441456   2.203   5.993   3.710 -0.7950  0.2556  0.0799
   67MOL   C40541457   2.016   5.923   3.621  0.3984  0.3149 -0.2922
   67MOL   O40641458   1.959   5.912   3.752 -0.2132  0.2592 -0.3007
   67MOL   C40741459   1.922   6.038   3.813  0.6243 -0.9151  0.5986
   67MOL   C40841460   1.881   6.016   3.957 -0.2775  0.3590 -0.5760
   67MOL   C40941461   1.992   5.974   4.049  0.2062 -0.0200 -0.2475
   67MOL   C41041462   1.963   5.974   4.195  0.5085 -0.1307  0.6400
   67MOL   C41141463   1.829   5.904   4.237 -0.1404 -0.0033 -0.0204
   67MOL   C41241464   1.805   5.884   4.389 -0.0718 -0.0844 -0.4404
   67MOL   C41341465   1.669   5.844   4.444 -0.2305  1.2802  0.3596
   67MOL   C41441466   1.685   5.797   4.581  0.0206 -0.3397 -0.1777
   67MOL   C41541467   1.957   5.801   3.553  0.8629  0.4416  0.3210
   67MOL   H41641468   1.975   6.012   3.573 -1.1034 -0.4931 -0.5237
   67MOL   H41741469   1.836   6.073   3.757  0.7840 -0.4610  0.6326
   67MOL   H41841470   1.999   6.115   3.802 -1.3164  0.7712 -1.9000
   67MOL   H41941471   1.804   5.938   3.955  0.2678 -0.1416 -2.5130
   67MOL   H42041472   1.851   6.114   3.995  3.4307  1.1678  0.4850
   67MOL   H42141473   2.029   5.876   4.018 -2.8041 -1.9708  2.0987
   67MOL   H42241474   2.078   6.039   4.030 -0.1270  0.6206  0.4542
   67MOL   H42341475   2.041   5.933   4.259  0.9573  0.4650  0.4810
   67MOL   H42441476   1.964   6.077   4.231 -0.0813  0.6305 -1.4785
   67MOL   H42541477   1.752   5.967   4.193 -0.7119 -0.8014 -0.1782
   67MOL   H42641478   1.818   5.807   4.187 -0.3917  0.9013 -1.7768
   67MOL   H42741479   1.854   5.968   4.440 -0.0989 -0.1824 -0.2510
   67MOL   H42841480   1.868   5.800   4.416  0.5814  1.1648  2.0994
   67MOL   H42941481   1.605   5.932   4.451 -0.4292  1.0808  1.0528
   67MOL   H43041482   1.621   5.778   4.372 -0.6874 -0.6739  2.3910
   67MOL   H43141483   1.719   5.868   4.656 -0.5693  0.5384 -0.7450
   67MOL   H43241484   1.741   5.703   4.588 -0.4679 -0.5073  2.0388
   67MOL   H43341485   1.588   5.774   4.625 -0.9643  0.8170 -1.7337
   67MOL   H43441486   2.028   5.774   3.475  1.2550  1.2066  0.4056
   67MOL   H43541487   1.962   5.724   3.630 -0.5362  0.5448  0.5257
   67MOL   C43641488   1.817   5.816   3.489  0.2520 -0.4068  0.2002
   67MOL   O43741489   1.761   5.687   3.472  0.2954 -0.4155  0.4045
   67MOL   C43841490   1.679   5.633   3.573  0.0055  0.3249  0.7931
   67MOL   C43941491   1.582   5.536   3.498  1.2313  0.0810  0.2093
   67MOL   C44041492   1.582   5.395   3.564  0.2244  0.0195  0.0107
   67MOL   C44141493   1.485   5.290   3.504  0.1104 -0.0760  0.0023
   67MOL   C44241494   1.500   5.142   3.546 -0.1325 -0.4285 -0.0500
   67MOL   C44341495   1.633   5.073   3.536  0.3338 -1.1012 -0.5473
   67MOL   C44441496   1.626   4.925   3.555 -0.1088  0.0618  0.6055
   67MOL   C44541497   1.762   4.853   3.548 -0.0251  0.5745  0.5270
   67MOL   C44641498   1.836   5.873   3.350 -0.4904  0.8391 -0.2371
   67MOL   H44741499   1.754   5.872   3.558 -0.4324  0.0359 -0.7816
   67MOL   H44841500   1.747   5.570   3.630  0.1752 -0.7683 -0.5943
   67MOL   H44941501   1.613   5.699   3.628 -3.6678 -2.1981 -0.3990
   67MOL   H45041502   1.616   5.528   3.394 -1.4316  2.3946 -0.9163
   67MOL   H45141503   1.486   5.588   3.491  0.7132 -0.9208 -0.1990
   67MOL   H45241504   1.684   5.358   3.550  0.4445  0.3344  0.7260
   67MOL   H45341505   1.564   5.399   3.672  0.4439  2.0955  0.0026
   67MOL   H45441506   1.386   5.327   3.531 -0.2392 -1.7557  1.1065
   67MOL   H45541507   1.485   5.299   3.395  0.0816  0.1480  0.0194
   67MOL   H45641508   1.451   5.130   3.643  0.1185  1.4744  0.3272
   67MOL   H45741509   1.434   5.083   3.482 -0.1810 -1.7583  1.2182
   67MOL   H45841510   1.707   5.110   3.607  0.2543  1.0515 -1.5406
   67MOL   H45941511   1.669   5.085   3.434 -1.4367 -2.3094 -1.3348
   67MOL   H46041512   1.572   4.896   3.645  1.2304 -2.0146  0.7757
   67MOL   H46141513   1.565   4.887   3.472 -0.2902  0.1539  0.6985
   67MOL   H46241514   1.818   4.899   3.467 -0.6832 -0.2883 -0.4256
   67MOL   H46341515   1.764   4.747   3.525 -1.7583  0.9941 -1.7083
   67MOL   H46441516   1.815   4.870   3.642 -0.8155  0.3736  1.0092
   67MOL   H46541517   1.869   5.973   3.379  0.8969  0.9679 -2.1472
   67MOL   H46641518   1.914   5.817   3.298 -0.6682  1.4970 -1.2072
   67MOL   C46741519   1.706   5.896   3.273 -0.2917 -0.8489 -0.3451
   67MOL   O46841520   1.743   5.996   3.180  0.2695 -0.6811  0.2821
   67MOL   C46941521   1.761   5.938   3.046 -0.3651  0.1815 -0.0292
   67MOL   C47041522   1.792   6.053   2.943 -0.2563 -0.5374 -0.3533
   67MOL   C47141523   1.681   6.153   2.937 -0.2066 -0.9127 -0.1248
   67MOL   C47241524   1.718   6.275   2.856  0.4316  0.7448 -0.2897
   67MOL   C47341525   1.611   6.381   2.850 -0.0163  0.8043  0.0981
   67MOL   C47441526   1.677   6.501   2.777 -0.8403 -0.3221  0.0868
   67MOL   C47541527   1.578   6.613   2.746 -0.0530 -0.8339  0.2342
   67MOL   C47641528   1.638   6.710   2.635  0.0702  0.3683 -0.0819
   67MOL   C47741529   1.580   5.946   3.341  0.1286 -0.5495 -0.3327
   67MOL   H47841530   1.689   5.797   3.229 -0.3627 -0.3571 -1.4348
   67MOL   H47941531   1.669   5.894   3.007 -0.5299  1.1865 -0.7912
   67MOL   H48041532   1.843   5.866   3.050  0.2315  0.8339 -0.5046
   67MOL   H48141533   1.818   6.008   2.847  3.2158  0.5557  0.0058
   67MOL   H48241534   1.886   6.105   2.963 -0.0209 -1.2583  0.4641
   67MOL   H48341535   1.597   6.108   2.884 -1.8810  0.3077  1.4290
   67MOL   H48441536   1.652   6.176   3.040  1.4373 -1.8678  0.5591
   67MOL   H48541537   1.808   6.317   2.902  0.4428 -1.0941  1.4340
   67MOL   H48641538   1.739   6.253   2.751 -1.2379  0.5168 -0.5879
   67MOL   H48741539   1.528   6.344   2.790  0.3690  0.0780  0.0173
   67MOL   H48841540   1.570   6.416   2.944  1.4357 -0.4537  1.2129
   67MOL   H48941541   1.715   6.465   2.681  2.9639  1.5624  0.7632
   67MOL   H49041542   1.767   6.538   2.826  0.2045 -1.4834 -0.9223
   67MOL   H49141543   1.489   6.562   2.708 -0.3623  0.1369 -0.3549
   67MOL   H49241544   1.554   6.653   2.844 -1.9974  0.2218 -0.6384
   67MOL   H49341545   1.649   6.667   2.535 -1.2462  3.7973 -1.7554
   67MOL   H49441546   1.731   6.760   2.662  0.4586  0.5934 -1.7516
   67MOL   H49541547   1.565   6.789   2.622 -0.1771  0.0754 -0.4817
   67MOL   H49641548   1.565   5.881   3.428  1.4844 -0.9232 -0.3603
   67MOL   H49741549   1.598   6.045   3.383  1.7863 -1.1540  0.4345
   67MOL   C49841550   1.461   5.946   3.247 -0.0819 -0.2817  0.8736
   67MOL   O49941551   1.359   6.034   3.289 -0.1221 -0.6413 -0.1259
   67MOL   C50041552   1.389   6.174   3.289  0.1573 -0.2039  0.2418
   67MOL   C50141553   1.355   6.235   3.154  0.6740 -0.0475 -0.1225
   67MOL   C50241554   1.211   6.207   3.122 -0.9676 -0.5962  0.0896
   67MOL   C50341555   1.196   6.234   2.974  0.2198 -0.0953 -0.2916
   67MOL   C50441556   1.057   6.192   2.919  0.1840 -0.2773 -0.0619
   67MOL   C50541557   1.035   6.047   2.876  0.2122 -0.8736 -0.3900
   67MOL   C50641558   0.895   6.030   2.816 -0.4203  0.2051  0.7434
   67MOL   C50741559   0.881   5.883   2.775  0.2870  0.4597  0.0409
   67MOL   C50841560   1.393   5.802   3.232  0.3002  0.1736 -0.2485
   67MOL   H50941561   1.498   5.973   3.148 -0.0918  1.6147  1.3665
   67MOL   H51041562   1.486   6.207   3.325  0.5948 -0.3276 -0.8246
   67MOL   H51141563   1.315   6.222   3.353  0.0492  1.5277 -1.1595
   67MOL   H51241564   1.423   6.206   3.074 -1.0768 -1.9421 -0.9452
   67MOL   H51341565   1.369   6.343   3.166 -2.4897  0.2964  0.8860
   67MOL   H51441566   1.194   6.101   3.141  1.5051 -1.3296 -1.5817
   67MOL   H51541567   1.148   6.275   3.179  3.3508  0.7575  3.6087
   67MOL   H51641568   1.219   6.337   2.950  0.4087  0.1907  1.0751
   67MOL   H51741569   1.276   6.180   2.923  0.1955  0.0709 -0.5045
   67MOL   H51841570   0.987   6.209   3.000 -0.0968  2.2937 -0.7793
   67MOL   H51941571   1.027   6.255   2.835 -0.7248  0.2206  0.6329
   67MOL   H52041572   1.038   5.981   2.963  1.3940  0.5055  0.6446
   67MOL   H52141573   1.114   6.014   2.810  1.2562  1.4962 -0.3771
   67MOL   H52241574   0.809   6.049   2.881 -0.5840  0.5328  0.4327
   67MOL   H52341575   0.897   6.096   2.730 -1.3959 -0.3448  0.2761
   67MOL   H52441576   0.793   5.865   2.713 -0.1066  1.3634  0.3358
   67MOL   H52541577   0.875   5.825   2.867 -0.8719  2.9282  1.5783
   67MOL   H52641578   0.966   5.845   2.718  0.3296  1.3301 -0.4793
   67MOL   H52741579   1.472   5.727   3.239  1.1770  1.0712 -0.2750
   67MOL   H52841580   1.338   5.785   3.324  0.7937  1.2466  0.2683
   67MOL   C52941581   1.287   5.798   3.115  0.0735  0.7834  0.1921
   67MOL   O53041582   1.225   5.674   3.130 -0.0089 -0.2059  0.2099
   67MOL   C53141583   1.095   5.680   3.081  0.4673  0.1099 -0.6694
   67MOL   C53241584   1.023   5.546   3.111  0.7709 -0.2678 -0.0264
   67MOL   C53341585   0.901   5.526   3.021  0.1054  0.1897  0.2420
   67MOL   C53441586   0.807   5.407   3.066  0.3786  0.0729  0.1083
   67MOL   C53541587   0.675   5.383   2.991  0.0252  0.2037 -0.2755
   67MOL   C53641588   0.564   5.301   3.064 -0.3297  0.5891  0.3333
   67MOL   C53741589   0.582   5.146   3.042 -0.1687  0.4198 -0.3505
   67MOL   C53841590   0.480   5.047   3.097 -0.3844  0.0240 -0.0866
   67MOL   C53941591   1.342   5.816   2.966  0.0288  0.5581 -0.0697
   67MOL   H54041592   1.219   5.880   3.137 -1.2359 -0.2536  0.0676
   67MOL   H54141593   1.049   5.770   3.120  1.5810  0.3340  0.1694
   67MOL   H54241594   1.101   5.695   2.973 -1.7524 -0.8308 -0.9459
   67MOL   H54341595   0.988   5.544   3.214 -0.7999  2.6562 -0.4536
   67MOL   H54441596   1.086   5.458   3.105 -1.1402 -1.6899  0.4055
   67MOL   H54541597   0.843   5.618   3.024  0.1098  0.2042 -0.1085
   67MOL   H54641598   0.923   5.511   2.915 -0.4039 -3.1630  0.5615
   67MOL   H54741599   0.859   5.311   3.065 -2.7955 -1.7221 -0.3762
   67MOL   H54841600   0.785   5.423   3.171  2.1001  0.2134  0.4570
   67MOL   H54941601   0.636   5.483   2.970  0.5438  0.5229  0.2486
   67MOL   H55041602   0.702   5.342   2.894 -2.9229 -1.8304 -0.2901
   67MOL   H55141603   0.474   5.338   3.017 -2.1489 -2.8155  0.9732
   67MOL   H55241604   0.563   5.329   3.170  0.3385  0.3063  0.4159
   67MOL   H55341605   0.601   5.138   2.935  0.4912  1.4121 -0.3146
   67MOL   H55441606   0.674   5.114   3.090 -1.5627 -2.6998  0.3636
   67MOL   H55541607   0.382   5.094   3.090 -1.2377 -1.9557 -2.0362
   67MOL   H55641608   0.470   5.032   3.204  0.1394 -1.2917 -0.2191
   67MOL   H55741609   0.474   4.953   3.044  3.7368 -1.5077  1.9086
   67MOL   H55841610   1.253   5.832   2.906  0.2775 -1.1696 -0.9436
   67MOL   H55941611   1.401   5.907   2.967  2.9227 -1.2381  0.0548
   67MOL   C56041612   1.426   5.696   2.908 -0.2412  0.2402 -0.5064
   67MOL   O56141613   1.530   5.674   3.000  0.1766  0.4348 -0.2310
   67MOL   C56241614   1.538   5.533   3.011  0.5548 -0.0982  0.4600
   67MOL   C56341615   1.659   5.486   3.091  0.1817  0.0267  0.3708
   67MOL   C56441616   1.678   5.335   3.117  1.2123  0.7047  0.4671
   67MOL   C56541617   1.813   5.302   3.170 -0.0330  0.4121  0.1919
   67MOL   C56641618   1.867   5.390   3.276  0.4307 -0.1741 -0.0400
   67MOL   C56741619   2.000   5.353   3.341 -0.2831 -0.9255  0.3438
   67MOL   C56841620   1.978   5.241   3.439 -0.2256  0.2106 -0.1570
   67MOL   C56941621   2.101   5.209   3.530  0.3700 -0.2866 -0.4495
   67MOL   C57041622   1.491   5.720   2.767  0.1397  0.4658  0.1637
   67MOL   H57141623   1.352   5.617   2.898  0.6999 -0.7390  0.0854
   67MOL   H57241624   1.556   5.488   2.913  0.3860  1.5876 -0.3698
   67MOL   H57341625   1.452   5.485   3.058  0.6869 -1.1167 -0.3138
   67MOL   H57441626   1.662   5.534   3.189 -0.4185  0.6744  0.0799
   67MOL   H57541627   1.738   5.534   3.033  0.7224 -1.5394 -0.1973
   67MOL   H57641628   1.613   5.312   3.202 -0.2192 -1.8692 -1.2669
   67MOL   H57741629   1.641   5.269   3.039  1.7639  1.3641 -0.3605
   67MOL   H57841630   1.814   5.195   3.190  0.0915  0.6645  1.5491
   67MOL   H57941631   1.877   5.309   3.082  0.9826  2.6323  1.0785
   67MOL   H58041632   1.869   5.495   3.248  0.1855 -0.8632 -2.8064
   67MOL   H58141633   1.784   5.393   3.347 -0.2372  0.0198 -0.8193
   67MOL   H58241634   2.048   5.433   3.396 -0.8852  1.1134 -1.9744
   67MOL   H58341635   2.082   5.327   3.274  0.7973 -0.0334  1.2936
   67MOL   H58441636   1.888   5.251   3.500  0.4202  2.3589  0.5006
   67MOL   H58541637   1.951   5.154   3.379  0.6962  0.2464 -0.6242
   67MOL   H58641638   2.071   5.153   3.618 -2.0502  0.3246 -0.8419
   67MOL   H58741639   2.138   5.300   3.576 -0.2533 -0.8307  1.1521
   67MOL   H58841640   2.186   5.164   3.478  0.9377 -1.3824  1.3935
   67MOL   H58941641   1.570   5.795   2.767  2.2375 -1.6789 -0.6185
   67MOL   H59041642   1.542   5.629   2.735 -0.3864 -0.2007  1.2017
   67MOL   C59141643   1.398   5.748   2.653 -0.3876  0.6469 -0.0666
   67MOL   O59241644   1.316   5.636   2.639 -0.0092 -0.0698 -0.1014
   67MOL   C59341645   1.195   5.663   2.576  0.7910 -0.0291  0.2517
   67MOL   C59441646   1.101   5.551   2.571  0.6450  0.2913 -0.4594
   67MOL   C59541647   1.139   5.435   2.479 -0.2546  0.1820 -0.0117
   67MOL   C59641648   1.021   5.344   2.430  0.0954 -0.1411 -0.0184
   67MOL   C59741649   0.940   5.416   2.319  0.3886  0.2494  0.3904
   67MOL   C59841650   0.837   5.322   2.246 -0.3395  0.2922  0.1256
   67MOL   C59941651   0.770   5.395   2.125  0.0710  0.8024  0.0559
   67MOL   C60041652   0.690   5.294   2.036  0.8284  0.0996  1.0066
   67MOL   C60141653   1.490   5.768   2.530  0.3874  0.0812  0.7568
   67MOL   H60241654   1.342   5.840   2.667 -0.1048  0.6335  1.1680
   67MOL   H60341655   1.218   5.693   2.474  3.6620 -1.4452  0.4551
   67MOL   H60441656   1.143   5.747   2.620  0.9539  0.3226 -0.2209
   67MOL   H60541657   1.000   5.586   2.551  1.0427  2.0823  0.5577
   67MOL   H60641658   1.093   5.505   2.670 -2.2676  2.2993  0.2922
   67MOL   H60741659   1.181   5.479   2.389  0.4018  0.7843  0.5897
   67MOL   H60841660   1.223   5.377   2.518  1.6141  2.3399 -0.7165
   67MOL   H60941661   1.067   5.255   2.388 -0.1497  0.4292 -1.5348
   67MOL   H61041662   0.948   5.325   2.508  1.9858  0.4312  1.9296
   67MOL   H61141663   0.891   5.503   2.362 -1.2391 -1.0884  1.3050
   67MOL   H61241664   1.006   5.450   2.238 -1.0385  0.1796 -0.8242
   67MOL   H61341665   0.764   5.291   2.321 -0.5805 -1.0118 -0.6269
   67MOL   H61441666   0.889   5.234   2.207  0.1514  0.3188  0.7171
   67MOL   H61541667   0.720   5.486   2.159  2.6360  1.8852  1.0326
   67MOL   H61641668   0.846   5.424   2.052 -0.5222  1.4526 -0.3096
   67MOL   H61741669   0.644   5.332   1.945  0.3433 -3.7234 -0.4261
   67MOL   H61841670   0.609   5.251   2.094 -0.0899 -0.8744 -0.9523
   67MOL   H61941671   0.752   5.210   2.002 -1.0708 -0.4471 -1.2028
   67MOL   H62041672   1.445   5.792   2.434 -1.1840  2.1448  1.9696
   67MOL   H62141673   1.574   5.836   2.540 -0.1594  0.9598 -0.4400
   67MOL   H62241674   1.531   5.667   2.520 -1.5536 -0.8976  2.3854
   68MOL     C141675   4.879   3.102   6.884  0.1708  0.2457 -0.0062
   68MOL     O241676   4.919   3.237   6.917  0.2122 -0.0617  0.2814
   68MOL     C341677   4.831   3.336   6.877  0.2836  0.3057  0.0345
   68MOL     C441678   4.902   3.472   6.909 -0.0513  0.4255  0.6589
   68MOL     C541679   5.036   3.483   6.844  0.1351 -0.1459 -0.3654
   68MOL     C641680   5.115   3.617   6.857 -0.3103  0.3707 -0.0744
   68MOL     C741681   5.242   3.640   6.763 -0.1082 -0.0914 -0.1673
   68MOL     C841682   5.302   3.778   6.784  0.7790 -0.0022 -0.5649
   68MOL     C941683   5.326   3.808   6.936 -0.4070  0.8522 -0.1182
   68MOL    C1041684   5.423   3.931   6.965  0.0163  0.0819  0.4270
   68MOL    C1141685   5.014   3.038   6.877 -0.0986 -0.2891  0.0238
   68MOL    H1241686   4.810   3.072   6.963  1.3222  2.2862  1.8334
   68MOL    H1341687   4.741   3.324   6.937 -0.0963 -1.3015 -0.8195
   68MOL    H1441688   4.799   3.336   6.773 -0.0594 -2.5082  0.0970
   68MOL    H1541689   4.916   3.480   7.017 -1.0986 -1.7341  0.9802
   68MOL    H1641690   4.833   3.555   6.890 -0.7268 -0.3254 -0.2087
   68MOL    H1741691   5.099   3.404   6.886 -1.0510 -0.1086  1.5583
   68MOL    H1841692   5.021   3.460   6.739 -3.5672 -0.2502  0.1490
   68MOL    H1941693   5.042   3.696   6.838 -0.8095  0.5985  2.5903
   68MOL    H2041694   5.142   3.627   6.962 -0.6119  0.1627  0.0251
   68MOL    H2141695   5.316   3.559   6.763  0.5853  0.5331 -1.9493
   68MOL    H2241696   5.208   3.638   6.660 -0.5283 -3.1066 -0.0231
   68MOL    H2341697   5.232   3.855   6.750  0.5312  0.3689  0.7834
   68MOL    H2441698   5.394   3.793   6.727  0.4151 -1.8348 -1.6842
   68MOL    H2541699   5.228   3.826   6.980 -0.6045 -0.3800 -0.0529
   68MOL    H2641700   5.348   3.720   6.997 -2.6680  0.2994 -0.0288
   68MOL    H2741701   5.396   3.981   7.057  0.4182 -0.1340  0.6656
   68MOL    H2841702   5.413   4.002   6.883  0.1021 -0.0729  0.2824
   68MOL    H2941703   5.530   3.912   6.970  0.4707  2.9026  2.4890
   68MOL    H3041704   5.080   3.099   6.814  0.2773 -0.7226 -0.0040
   68MOL    H3141705   5.054   3.022   6.977 -0.5287 -0.6407  0.1409
   68MOL    H3241706   4.829   3.084   6.789 -0.1343  2.0548 -0.2015
   68MOL    C3341707   5.017   2.904   6.796 -0.0271  0.7047 -0.0574
   68MOL    O3441708   5.150   2.866   6.800  0.1421 -0.2846 -0.7230
   68MOL    C3541709   5.192   2.787   6.913  0.2976 -0.5302  0.2815
   68MOL    C3641710   5.172   2.636   6.883  0.4365 -1.1437  0.1491
   68MOL    C3741711   5.276   2.584   6.792 -0.3335 -0.5795  0.2906
   68MOL    C3841712   5.256   2.440   6.754 -0.2158 -0.3819  0.0458
   68MOL    C3941713   5.352   2.397   6.645  1.1716  0.2881  0.9262
   68MOL    C4041714   5.395   2.245   6.632  0.1180 -0.2074 -0.8501
   68MOL    C4141715   5.464   2.208   6.503 -0.1177  0.2671  0.1545
   68MOL    C4241716   5.610   2.268   6.487 -0.5020 -0.1345 -0.3069
   68MOL    C4341717   4.982   2.922   6.650  0.1227  0.2124  0.1279
   68MOL    H4441718   4.966   2.820   6.845  0.4577 -0.1756 -1.0423
   68MOL    H4541719   5.134   2.809   7.002 -2.3478 -0.7501 -1.3238
   68MOL    H4641720   5.295   2.807   6.942 -0.1077  2.6236 -0.2785
   68MOL    H4741721   5.071   2.611   6.849 -0.0192 -0.6768  1.1435
   68MOL    H4841722   5.175   2.582   6.978 -3.1691  1.7747  2.0482
   68MOL    H4941723   5.273   2.637   6.697  3.5697 -0.1378  0.3416
   68MOL    H5041724   5.372   2.606   6.839  0.4198  1.0151 -1.9221
   68MOL    H5141725   5.279   2.381   6.842  0.4609 -1.5311 -0.8858
   68MOL    H5241726   5.153   2.424   6.722 -0.1919  1.0360 -0.7794
   68MOL    H5341727   5.306   2.416   6.548  0.0287 -0.2324  1.3502
   68MOL    H5441728   5.441   2.459   6.645  1.4798 -0.1547  0.4375
   68MOL    H5541729   5.300   2.191   6.637  0.2317 -0.3229  0.0893
   68MOL    H5641730   5.454   2.217   6.719 -0.4020  2.8165  0.5429
   68MOL    H5741731   5.490   2.102   6.510  3.4290  1.1095  0.5752
   68MOL    H5841732   5.393   2.213   6.420 -0.4205 -1.7564  0.2592
   68MOL    H5941733   5.659   2.266   6.390 -1.6121  1.8546 -0.9392
   68MOL    H6041734   5.680   2.232   6.563 -1.1386 -1.1789 -0.2063
   68MOL    H6141735   5.606   2.376   6.501  1.6578  0.0142 -0.7257
   68MOL    H6241736   4.891   2.981   6.638 -0.3087 -0.3831  0.4042
   68MOL    H6341737   5.060   2.993   6.624 -1.6419  1.8495 -0.8582
   68MOL    C6441738   4.975   2.794   6.568  0.2215 -0.2733  0.7313
   68MOL    O6541739   4.973   2.827   6.432 -0.0132  0.1334  0.3455
   68MOL    C6641740   5.071   2.759   6.358  0.3530  0.2115  0.6456
   68MOL    C6741741   5.043   2.784   6.211 -1.0837 -0.8600  0.3765
   68MOL    C6841742   4.914   2.730   6.160 -0.0538  0.5067 -0.4874
   68MOL    C6941743   4.891   2.776   6.016 -0.3407  0.9268 -0.0629
   68MOL    C7041744   4.765   2.726   5.947  0.1070 -0.4989  0.3862
   68MOL    C7141745   4.734   2.777   5.809 -0.6344 -0.6704 -0.4344
   68MOL    C7241746   4.653   2.680   5.724 -0.0081 -0.4888 -0.4186
   68MOL    C7341747   4.502   2.721   5.734  0.5430  0.0706 -0.2632
   68MOL    C7441748   4.849   2.704   6.607  0.3924 -0.5349 -0.2104
   68MOL    H7541749   5.062   2.731   6.585  0.0990 -1.0229 -1.2556
   68MOL    H7641750   5.074   2.651   6.376 -2.5906  0.1463  0.9642
   68MOL    H7741751   5.161   2.804   6.400 -0.2931  2.2076 -0.0533
   68MOL    H7841752   5.122   2.738   6.152  0.4681  1.4979  0.5822
   68MOL    H7941753   5.045   2.892   6.200 -2.0193 -0.7837  0.8391
   68MOL    H8041754   4.910   2.621   6.162  1.9684  0.4308  1.1556
   68MOL    H8141755   4.831   2.764   6.224  0.2277 -0.7864  0.5899
   68MOL    H8241756   4.887   2.885   6.019 -1.8803  0.8143  3.2700
   68MOL    H8341757   4.978   2.758   5.952 -0.4818 -1.0607  0.2779
   68MOL    H8441758   4.783   2.619   5.942 -1.8777 -0.8012 -0.6103
   68MOL    H8541759   4.677   2.729   6.011 -1.2889  0.7595 -1.5549
   68MOL    H8641760   4.824   2.799   5.751 -0.9329  1.7777 -0.0379
   68MOL    H8741761   4.688   2.876   5.817 -0.9682 -0.9098  0.7148
   68MOL    H8841762   4.693   2.685   5.623  2.1898 -0.5639  0.4327
   68MOL    H8941763   4.651   2.576   5.756 -0.5429  0.0046  1.1726
   68MOL    H9041764   4.476   2.739   5.838  0.1511  0.4638 -0.4269
   68MOL    H9141765   4.442   2.640   5.693  1.4142 -0.3249 -0.7845
   68MOL    H9241766   4.494   2.811   5.673 -0.2839 -0.1361 -0.4725
   68MOL    H9341767   4.855   2.682   6.714  0.0993 -0.9975 -0.2930
   68MOL    H9441768   4.762   2.770   6.610  0.6776 -0.2152  2.1613
   68MOL    C9541769   4.826   2.579   6.525  0.7155  0.5478 -0.5115
   68MOL    O9641770   4.694   2.524   6.544 -0.3940  0.5537  0.1668
   68MOL    C9741771   4.578   2.579   6.482 -0.1388 -0.4337 -0.5445
   68MOL    C9841772   4.452   2.509   6.539 -0.1280  0.0173  0.0149
   68MOL    C9941773   4.454   2.542   6.686  0.1690  0.0663  0.3820
   68MOL   C10041774   4.344   2.480   6.777  0.3604  0.2157  0.3652
   68MOL   C10141775   4.317   2.324   6.760  0.5302  0.4786 -0.3705
   68MOL   C10241776   4.449   2.245   6.782 -0.4245 -0.3627  0.3293
   68MOL   C10341777   4.417   2.097   6.774  0.5477  0.4731 -0.5850
   68MOL   C10441778   4.437   2.041   6.630 -0.2778 -0.1426 -0.3036
   68MOL   C10541779   4.911   2.463   6.575 -0.6559 -0.0896 -0.1394
   68MOL   H10641780   4.843   2.603   6.420  3.1385  2.6736  0.3128
   68MOL   H10741781   4.582   2.563   6.374  3.0723  2.4085 -0.9312
   68MOL   H10841782   4.577   2.683   6.514  1.1860 -0.0432 -1.6925
   68MOL   H10941783   4.454   2.402   6.517  0.4982 -0.2111  1.1232
   68MOL   H11041784   4.365   2.548   6.487  0.6935  1.5994 -0.2205
   68MOL   H11141785   4.547   2.524   6.741  0.2960 -1.8698 -0.4212
   68MOL   H11241786   4.446   2.649   6.703 -0.4794  0.0451  0.2045
   68MOL   H11341787   4.382   2.492   6.878  3.1556 -1.2271 -0.4696
   68MOL   H11441788   4.250   2.535   6.765 -0.0222 -0.6116 -0.5799
   68MOL   H11541789   4.245   2.297   6.837  2.7937  0.5002  1.8213
   68MOL   H11641790   4.274   2.308   6.662  2.1002 -1.2546 -0.8117
   68MOL   H11741791   4.479   2.267   6.885 -0.9370 -2.0550  0.8642
   68MOL   H11841792   4.522   2.275   6.707  0.4163 -0.4319  1.1047
   68MOL   H11941793   4.475   2.042   6.848 -2.5025  1.8548  2.9745
   68MOL   H12041794   4.315   2.081   6.809  0.4788  0.8181 -0.6292
   68MOL   H12141795   4.375   2.096   6.559 -0.6099 -0.9539 -0.6494
   68MOL   H12241796   4.431   1.933   6.622 -0.2834 -0.1114 -0.7288
   68MOL   H12341797   4.540   2.059   6.599  0.8173 -1.9442  2.1095
   68MOL   H12441798   5.013   2.502   6.580 -1.7302  2.9488 -0.8719
   68MOL   H12541799   4.877   2.453   6.678  1.4651 -0.9035  0.5036
   68MOL   C12641800   4.902   2.332   6.491 -0.1237  0.0393  0.4583
   68MOL   O12741801   4.935   2.218   6.570 -0.3956  0.3607  0.8007
   68MOL   C12841802   4.843   2.176   6.663  0.6603 -0.3214 -0.1980
   68MOL   C12941803   4.899   2.060   6.731 -0.4225  0.0108  0.6488
   68MOL   C13041804   5.019   2.093   6.819  0.0108 -0.1779 -0.1626
   68MOL   C13141805   5.057   1.992   6.929  1.0647 -0.2834  0.0082
   68MOL   C13241806   5.198   2.022   6.991 -0.0511 -0.1096  0.0653
   68MOL   C13341807   5.241   1.905   7.089 -0.1301 -0.0869  0.3611
   68MOL   C13441808   5.148   1.863   7.205  0.4159  0.4059 -0.0085
   68MOL   C13541809   5.213   1.739   7.275 -0.4389  0.1771  0.2941
   68MOL   C13641810   5.004   2.328   6.376  0.0731 -0.3338 -0.4357
   68MOL   H13741811   4.803   2.321   6.446  0.6887 -1.3487 -1.0442
   68MOL   H13841812   4.745   2.142   6.629 -0.2509  1.2484  0.8021
   68MOL   H13941813   4.822   2.249   6.741 -2.2607 -0.3795 -0.8655
   68MOL   H14041814   4.936   2.002   6.647  3.1341  1.6798  0.9958
   68MOL   H14141815   4.827   1.987   6.769  0.5025  0.6526  3.8195
   68MOL   H14241816   5.105   2.118   6.757  0.9141  1.3117  1.6789
   68MOL   H14341817   5.007   2.186   6.874 -2.0815 -0.5108 -0.0005
   68MOL   H14441818   4.979   1.994   7.005  0.8360 -0.5843 -0.2118
   68MOL   H14541819   5.063   1.889   6.891 -0.0302  0.9596 -3.7698
   68MOL   H14641820   5.263   2.019   6.904 -0.7287  0.5814 -0.4768
   68MOL   H14741821   5.197   2.117   7.045  1.6717 -0.2598  0.3803
   68MOL   H14841822   5.339   1.931   7.129 -0.6232  2.2964  0.1115
   68MOL   H14941823   5.261   1.824   7.020  0.4173  0.8708 -0.6255
   68MOL   H15041824   5.153   1.954   7.266 -0.0857  0.4908 -0.0959
   68MOL   H15141825   5.043   1.839   7.189 -0.3883  2.3526  1.9732
   68MOL   H15241826   5.311   1.770   7.311 -1.1008  0.7186  1.6547
   68MOL   H15341827   5.222   1.653   7.209  1.2889  1.1772 -0.8191
   68MOL   H15441828   5.166   1.703   7.366  2.3204 -2.0517  0.8989
   68MOL   H15541829   4.986   2.414   6.310  1.9362  0.6038  0.2302
   68MOL   H15641830   5.101   2.357   6.417  0.7763  0.2394 -2.4157
   68MOL   C15741831   5.012   2.201   6.291 -0.1516  0.4285 -0.0844
   68MOL   O15841832   5.149   2.153   6.289 -0.2517 -0.0066  0.0353
   68MOL   C15941833   5.174   2.020   6.317 -0.3159  0.0427 -0.7962
   68MOL   C16041834   5.158   1.932   6.197  0.8724  0.4533 -0.2573
   68MOL   C16141835   5.287   1.924   6.104  0.0555  0.2539  0.4105
   68MOL   C16241836   5.339   2.053   6.038 -0.5939 -0.4287  0.3667
   68MOL   C16341837   5.446   2.020   5.938 -0.0665  0.2651 -0.0587
   68MOL   C16441838   5.503   2.144   5.863  0.3416  0.3732  0.1978
   68MOL   C16541839   5.585   2.236   5.953  0.4102 -0.1040 -0.2783
   68MOL   C16641840   5.645   2.351   5.866 -0.4454  0.2340  0.1544
   68MOL   C16741841   4.957   2.239   6.149 -0.1609  0.5669 -0.0890
   68MOL   H16841842   4.947   2.121   6.326  3.2693 -2.4638 -0.0437
   68MOL   H16941843   5.097   1.985   6.385  0.1263  1.4147  0.4498
   68MOL   H17041844   5.276   2.020   6.356 -0.3824  2.5927 -0.5159
   68MOL   H17141845   5.061   1.935   6.148  0.9816 -0.5594 -0.5559
   68MOL   H17241846   5.141   1.834   6.242 -0.3559  0.7480 -0.0665
   68MOL   H17341847   5.362   1.879   6.169  0.8416  1.0815  0.0891
   68MOL   H17441848   5.272   1.843   6.032 -1.7586 -1.0140  2.1559
   68MOL   H17541849   5.259   2.102   5.982 -0.3038 -0.2280  0.1287
   68MOL   H17641850   5.378   2.121   6.114 -1.5125  0.1016  0.3724
   68MOL   H17741851   5.532   1.965   5.978  1.5922  1.7983 -1.3973
   68MOL   H17841852   5.404   1.952   5.866  0.7705 -0.9814  0.6106
   68MOL   H17941853   5.431   2.201   5.804  0.6553  0.9768  0.3936
   68MOL   H18041854   5.572   2.099   5.791  0.1794  0.6186 -0.1131
   68MOL   H18141855   5.512   2.275   6.024 -0.6534 -0.8993 -0.9278
   68MOL   H18241856   5.656   2.189   6.021 -0.4362 -1.4878 -0.3371
   68MOL   H18341857   5.702   2.417   5.931 -0.8265  0.8938 -0.1645
   68MOL   H18441858   5.573   2.416   5.815 -1.5438 -0.2324  1.0957
   68MOL   H18541859   5.711   2.309   5.790  0.6503  2.6440 -0.2837
   68MOL   H18641860   4.995   2.334   6.112 -1.0377  1.3512  1.0136
   68MOL   H18741861   4.988   2.171   6.070 -1.4084  0.0187 -0.1218
   68MOL   C18841862   4.799   2.244   6.147 -0.4219  0.1050 -0.2466
   68MOL   O18941863   4.742   2.117   6.153 -0.7762 -0.2452  0.0715
   68MOL   C19041864   4.661   2.093   6.265 -0.3408 -0.5834  0.6740
   68MOL   C19141865   4.642   1.937   6.286 -0.4947 -0.5153  0.8669
   68MOL   C19241866   4.775   1.884   6.351  0.1561  0.9380 -0.1996
   68MOL   C19341867   4.770   1.734   6.365 -0.3780 -0.5619 -0.3077
   68MOL   C19441868   4.891   1.681   6.452  0.1756  0.0028 -0.8143
   68MOL   C19541869   4.855   1.681   6.599 -0.8222 -0.2837  0.7924
   68MOL   C19641870   4.970   1.655   6.691  0.3514 -0.0331 -0.1144
   68MOL   C19741871   5.055   1.530   6.662  0.8845 -0.6654 -0.0450
   68MOL   C19841872   4.741   2.298   6.017 -0.1702  0.0767 -0.5584
   68MOL   H19941873   4.772   2.309   6.230  0.5213 -0.4289  0.4928
   68MOL   H20041874   4.715   2.135   6.350 -0.7925 -0.2046  0.7774
   68MOL   H20141875   4.568   2.148   6.255  0.6621  1.1467  0.7499
   68MOL   H20241876   4.627   1.895   6.186 -0.0519  1.3920 -0.0233
   68MOL   H20341877   4.560   1.908   6.351 -0.8969 -1.9044 -0.2303
   68MOL   H20441878   4.862   1.912   6.292 -0.5351  0.6639 -1.3671
   68MOL   H20541879   4.784   1.935   6.447 -0.9768  0.5625  0.1125
   68MOL   H20641880   4.673   1.695   6.397  0.5150 -2.4573  0.1539
   68MOL   H20741881   4.787   1.707   6.261 -0.4756  1.1662 -0.7834
   68MOL   H20841882   4.915   1.578   6.424 -0.1531 -0.5767  0.9357
   68MOL   H20941883   4.989   1.727   6.438  0.7866 -0.8308  0.5305
   68MOL   H21041884   4.791   1.594   6.611  0.5814 -1.5303 -0.4700
   68MOL   H21141885   4.802   1.772   6.628 -0.9179  0.5711 -1.9177
   68MOL   H21241886   5.032   1.744   6.683  0.8849 -0.3952 -0.0339
   68MOL   H21341887   4.923   1.659   6.790  0.5660 -0.6691  0.0131
   68MOL   H21441888   5.125   1.513   6.744  0.2347 -0.9577  0.4559
   68MOL   H21541889   5.117   1.555   6.575  0.9420 -0.5138  0.0387
   68MOL   H21641890   4.999   1.438   6.647 -0.4460  0.3622 -1.6158
   68MOL   H21741891   4.769   2.402   6.002  0.0967  0.2963  1.3159
   68MOL   H21841892   4.784   2.251   5.929  0.0464 -0.8122  0.0116
   68MOL   C21941893   4.587   2.288   5.998 -0.7486  0.0118 -0.1849
   68MOL   O22041894   4.566   2.342   5.874  0.3517  0.4427 -0.6640
   68MOL   C22141895   4.577   2.252   5.764  0.3706  0.9201 -0.3853
   68MOL   C22241896   4.549   2.339   5.637  0.2245  0.0270  0.2460
   68MOL   C22341897   4.532   2.258   5.510  0.6362 -0.5452  0.5031
   68MOL   C22441898   4.495   2.343   5.384 -0.5442 -0.1167 -0.3149
   68MOL   C22541899   4.490   2.252   5.254 -0.0848 -0.1813 -0.3368
   68MOL   C22641900   4.626   2.190   5.210  0.3657 -0.1671  0.3389
   68MOL   C22741901   4.738   2.278   5.157  0.7286 -0.3266  0.7755
   68MOL   C22841902   4.876   2.217   5.120 -0.9607 -0.6737  0.4821
   68MOL   C22941903   4.526   2.391   6.104 -0.4325 -0.0377 -0.4603
   68MOL   H23041904   4.555   2.184   5.992  0.6166 -0.3825 -0.8345
   68MOL   H23141905   4.513   2.164   5.769  0.4736  0.9765  2.9797
   68MOL   H23241906   4.677   2.210   5.762  0.3918  0.8406  1.6813
   68MOL   H23341907   4.639   2.399   5.619 -0.6428  1.0355 -0.8590
   68MOL   H23441908   4.457   2.396   5.650 -1.3831 -1.7885 -2.7439
   68MOL   H23541909   4.625   2.203   5.496  0.7973  0.3904 -2.4588
   68MOL   H23641910   4.447   2.194   5.535  0.4302 -0.1664  0.7788
   68MOL   H23741911   4.405   2.403   5.395 -1.4509 -1.2044 -1.5399
   68MOL   H23841912   4.576   2.415   5.375  1.7115 -2.5054  0.2672
   68MOL   H23941913   4.403   2.190   5.272  1.0623 -1.0112  2.8097
   68MOL   H24041914   4.467   2.335   5.187  2.5323  1.5618  0.8252
   68MOL   H24141915   4.603   2.108   5.142  1.7787 -3.5981  3.8146
   68MOL   H24241916   4.666   2.135   5.295  0.3808  1.5479  1.4744
   68MOL   H24341917   4.703   2.330   5.067  0.2351  1.0460  1.7471
   68MOL   H24441918   4.749   2.368   5.218 -0.3704  1.1778 -1.1753
   68MOL   H24541919   4.935   2.200   5.211  1.4912 -2.7382 -1.3841
   68MOL   H24641920   4.931   2.280   5.049 -3.1344 -0.1285 -0.7462
   68MOL   H24741921   4.877   2.116   5.078  1.1084 -0.1503 -0.8239
   68MOL   H24841922   4.563   2.384   6.206 -0.9524  0.3292 -0.2418
   68MOL   H24941923   4.545   2.494   6.073  0.0696  0.2156  0.6652
   68MOL   C25041924   4.371   2.390   6.118 -0.3031 -0.0364 -0.0394
   68MOL   O25141925   4.327   2.494   6.200 -0.9564  0.0112  0.3893
   68MOL   C25241926   4.310   2.625   6.143  0.0662  0.2036 -0.1987
   68MOL   C25341927   4.254   2.710   6.254  0.1765 -0.4283  0.1016
   68MOL   C25441928   4.189   2.836   6.196  0.1494  0.0219  0.2554
   68MOL   C25541929   4.122   2.932   6.294 -0.0747  0.1907 -0.1622
   68MOL   C25641930   4.227   2.996   6.386  0.5047  0.3838  0.2625
   68MOL   C25741931   4.168   3.104   6.485  0.3002  0.2231  0.1422
   68MOL   C25841932   4.101   3.230   6.417  0.5959 -0.3681  0.1781
   68MOL   C25941933   4.190   3.290   6.302 -0.0423  0.0199 -0.0821
   68MOL   C26041934   4.325   2.263   6.186 -0.3364 -0.4022  0.0379
   68MOL   H26141935   4.334   2.399   6.016  0.8340  0.5354 -0.4151
   68MOL   H26241936   4.234   2.616   6.066 -0.4785  0.4274  0.3179
   68MOL   H26341937   4.400   2.669   6.099  2.0746 -1.1728  2.4068
   68MOL   H26441938   4.331   2.728   6.329 -1.0870 -0.3774  1.4218
   68MOL   H26541939   4.180   2.651   6.308  1.0854 -1.8222 -0.1580
   68MOL   H26641940   4.261   2.886   6.131  1.0581  0.2272  1.4169
   68MOL   H26741941   4.108   2.806   6.129 -1.6465  2.2619  1.3702
   68MOL   H26841942   4.069   3.013   6.243 -0.3525  0.5182  0.6333
   68MOL   H26941943   4.036   2.889   6.346 -0.8393  0.8896 -0.8236
   68MOL   H27041944   4.272   2.919   6.448 -2.2691  0.7629  2.8732
   68MOL   H27141945   4.314   3.037   6.334 -0.1085  0.7869 -0.4516
   68MOL   H27241946   4.247   3.146   6.548 -0.4327  2.1608 -0.2045
   68MOL   H27341947   4.104   3.061   6.563 -0.3461 -0.2726 -0.6610
   68MOL   H27441948   4.009   3.202   6.365  1.0323 -0.0475 -0.7720
   68MOL   H27541949   4.075   3.311   6.484 -0.1680  0.6655 -1.3389
   68MOL   H27641950   4.138   3.383   6.277 -0.4651  0.3340  1.8534
   68MOL   H27741951   4.191   3.225   6.214 -2.4550 -1.0956  0.6520
   68MOL   H27841952   4.291   3.323   6.325 -0.5897  0.6674  1.4684
   68MOL   H27941953   4.381   2.177   6.149 -1.0328 -0.2299 -1.4623
   68MOL   H28041954   4.351   2.264   6.292  1.9983  0.9105 -0.4966
   68MOL   C28141955   4.176   2.244   6.171  0.8934  0.3617 -0.7254
   68MOL   O28241956   4.135   2.133   6.245  0.0213 -0.1271 -0.8829
   68MOL   C28341957   4.107   2.163   6.381  0.5241  0.2448 -0.2718
   68MOL   C28441958   4.094   2.035   6.460  0.1833 -0.0678  0.5683
   68MOL   C28541959   4.073   2.053   6.612  0.1459  0.1685  0.8454
   68MOL   C28641960   4.095   1.931   6.702  0.2465  0.1098 -0.0921
   68MOL   C28741961   4.045   1.957   6.843  0.3521  0.1748  0.3491
   68MOL   C28841962   4.095   1.865   6.945  0.5020  0.2598 -1.0431
   68MOL   C28941963   4.013   1.872   7.072 -0.1267 -0.9256 -0.1153
   68MOL   C29041964   4.062   1.791   7.189  0.1284  0.7916  0.1803
   68MOL   C29141965   4.118   2.226   6.027 -0.4292 -0.2690 -0.5444
   68MOL   H29241966   4.121   2.328   6.214 -1.6291 -1.6124  0.0423
   68MOL   H29341967   4.008   2.207   6.392  0.8831  0.7781  0.8946
   68MOL   H29441968   4.182   2.224   6.433 -0.3275  2.1200 -1.1852
   68MOL   H29541969   4.182   1.977   6.433  0.3329  1.0658 -1.4870
   68MOL   H29641970   4.018   1.964   6.428 -0.6671 -0.3938  3.1729
   68MOL   H29741971   4.131   2.134   6.655 -1.4344  1.5931  0.3696
   68MOL   H29841972   3.973   2.095   6.622  0.2681  1.2265 -1.8724
   68MOL   H29941973   4.038   1.847   6.662 -0.5123  0.7101 -0.3023
   68MOL   H30041974   4.201   1.905   6.702  0.2148 -0.0273  0.4011
   68MOL   H30141975   4.066   2.061   6.866  0.8465  0.8796 -3.0686
   68MOL   H30241976   3.936   1.963   6.839  0.1743 -1.2618  2.3816
   68MOL   H30341977   4.200   1.886   6.962  0.0847  1.3776  0.2323
   68MOL   H30441978   4.100   1.763   6.907 -3.5445 -0.6979  0.6926
   68MOL   H30541979   3.996   1.978   7.088  0.5024 -0.6400 -1.3312
   68MOL   H30641980   3.912   1.839   7.046 -1.4184  2.1901  0.6991
   68MOL   H30741981   4.044   1.684   7.179  0.2116  0.9502 -1.8694
   68MOL   H30841982   4.009   1.830   7.276  1.3815 -1.1395  1.8572
   68MOL   H30941983   4.169   1.806   7.208  0.1821  0.8695 -0.1856
   68MOL   H31041984   4.172   2.281   5.949 -0.2553  1.5448  0.8090
   68MOL   H31141985   4.136   2.124   5.995  0.2654 -0.2724 -0.1686
   68MOL   C31241986   3.970   2.276   6.018  0.5067 -0.6566  0.3426
   68MOL   O31341987   3.984   2.415   5.997  0.9390 -0.2536  0.3606
   68MOL   C31441988   3.877   2.485   5.941  0.4132  0.4226 -0.3326
   68MOL   C31541989   3.927   2.625   5.898 -0.2300  0.0215  0.0129
   68MOL   C31641990   4.004   2.638   5.766 -0.2049 -0.0042  0.0432
   68MOL   C31741991   4.012   2.785   5.724  0.7674  0.1477 -0.9415
   68MOL   C31841992   4.098   2.869   5.827 -0.3549 -0.7656  0.0446
   68MOL   C31941993   4.123   3.015   5.778  0.1610  0.4014 -1.1537
   68MOL   C32041994   4.205   3.101   5.877  0.4970 -0.0098  0.0169
   68MOL   C32141995   4.358   3.085   5.876 -1.1129  0.3536  0.3440
   68MOL   C32241996   3.870   2.246   6.130  0.1379 -0.5565  0.7022
   68MOL   H32341997   3.933   2.244   5.920  0.3614 -0.4344  0.3245
   68MOL   H32441998   3.808   2.500   6.024  0.4455 -1.8874  0.1277
   68MOL   H32541999   3.821   2.427   5.868 -0.4072 -1.1973  1.5342
   68MOL   H32642000   3.976   2.666   5.985 -0.0374 -0.4221  0.1166
   68MOL   H32742001   3.831   2.676   5.887 -1.6927 -2.5068  0.5728
   68MOL   H32842002   4.103   2.595   5.778 -0.0552  0.3122 -0.0580
   68MOL   H32942003   3.947   2.587   5.688 -0.2822 -1.4303  1.0135
   68MOL   H33042004   4.068   2.799   5.632 -1.6227  2.5595 -2.0767
   68MOL   H33142005   3.921   2.844   5.713  0.3921 -0.6928 -2.5170
   68MOL   H33242006   4.040   2.878   5.919 -0.4976 -0.5882 -0.0631
   68MOL   H33342007   4.197   2.827   5.843 -0.4510 -0.8284  0.4786
   68MOL   H33442008   4.028   3.064   5.757  0.1942  1.5632  1.1670
   68MOL   H33542009   4.175   3.016   5.682  0.7552 -1.0765 -0.8493
   68MOL   H33642010   4.198   3.207   5.855  1.1184 -0.1109 -0.6748
   68MOL   H33742011   4.173   3.085   5.980 -0.3348 -1.8906 -0.5007
   68MOL   H33842012   4.408   3.104   5.782 -0.9554  0.4437  0.4469
   68MOL   H33942013   4.382   2.984   5.911  0.8515  0.9266  0.6913
   68MOL   H34042014   4.394   3.154   5.952  1.2096  1.2579 -1.5156
   68MOL   H34142015   3.904   2.277   6.229 -0.9945 -0.4214  1.0611
   68MOL   H34242016   3.770   2.286   6.113  0.0475 -0.8719  0.4802
   68MOL   C34342017   3.856   2.095   6.117 -0.1367 -0.2498 -0.1598
   68MOL   O34442018   3.800   2.067   5.991  0.5794 -0.1667 -0.0399
   68MOL   C34542019   3.876   1.975   5.916  0.3126 -0.1190  0.1773
   68MOL   C34642020   3.805   1.975   5.783  0.5105  0.1182  0.1394
   68MOL   C34742021   3.869   1.876   5.675  0.6429 -0.3302  1.0294
   68MOL   C34842022   3.782   1.863   5.545 -0.7634  0.3253  0.4780
   68MOL   C34942023   3.776   1.986   5.443  0.3399 -0.5855 -0.2504
   68MOL   C35042024   3.694   1.938   5.329  1.1964  0.4314 -0.0229
   68MOL   C35142025   3.716   2.023   5.198  0.1721  0.8251 -0.1982
   68MOL   C35242026   3.850   1.989   5.130  0.3334 -0.0968  0.2122
   68MOL   C35342027   3.796   2.017   6.236  0.5968  0.0053 -0.4309
   68MOL   H35442028   3.957   2.054   6.120  0.9586  2.5054  2.0224
   68MOL   H35542029   3.881   1.878   5.965  0.3909 -0.2630 -0.1162
   68MOL   H35642030   3.973   2.024   5.906 -0.4251  1.0793 -1.3510
   68MOL   H35742031   3.807   2.078   5.748 -4.2216  0.5390  0.7854
   68MOL   H35842032   3.704   1.940   5.808  0.0609  1.8331  0.7727
   68MOL   H35942033   3.969   1.907   5.645 -0.1902  2.3416  0.8866
   68MOL   H36042034   3.881   1.776   5.717  0.4731 -0.7332  0.1407
   68MOL   H36142035   3.834   1.784   5.492 -1.1691 -0.7659  1.6731
   68MOL   H36242036   3.686   1.821   5.574 -0.3911  0.5942  2.1838
   68MOL   H36342037   3.728   2.068   5.497 -1.1684 -1.2525 -0.5544
   68MOL   H36442038   3.879   2.015   5.422 -0.1617  0.5325 -1.2428
   68MOL   H36542039   3.590   1.945   5.358  1.1960  1.4535 -0.2278
   68MOL   H36642040   3.720   1.838   5.295  2.3429  0.4857  0.6824
   68MOL   H36742041   3.625   2.002   5.141  0.9501 -0.7771 -0.8815
   68MOL   H36842042   3.714   2.129   5.221  0.8644  0.9624 -0.7404
   68MOL   H36942043   3.847   1.888   5.088 -1.5973  1.3494 -3.2922
   68MOL   H37042044   3.942   2.004   5.186 -0.5845  1.4657  1.3532
   68MOL   H37142045   3.869   2.046   5.040  0.8676  1.0986  1.0697
   68MOL   H37242046   3.829   1.915   6.222  0.4767  0.1859 -2.1646
   68MOL   H37342047   3.848   2.053   6.324  0.4607  2.1781 -1.2048
   68MOL   C37442048   3.641   2.027   6.259  0.4030  0.2998 -0.2564
   68MOL   O37542049   3.628   2.096   6.385 -0.6230  1.1591 -0.3144
   68MOL   C37642050   3.608   2.238   6.375  0.0670  0.7024  0.2756
   68MOL   C37742051   3.568   2.289   6.521 -0.1438 -0.1526 -0.0979
   68MOL   C37842052   3.484   2.421   6.522 -0.2131  0.2270 -0.0097
   68MOL   C37942053   3.423   2.459   6.653 -0.4277 -0.0905 -0.1536
   68MOL   C38042054   3.305   2.361   6.690  0.2159  0.0406  0.2448
   68MOL   C38142055   3.196   2.429   6.769  0.4566 -0.6841 -0.2881
   68MOL   C38242056   3.244   2.465   6.908  0.3707  0.2913  0.3255
   68MOL   C38342057   3.134   2.533   6.994 -0.7329 -0.1469 -0.1231
   68MOL   C38442058   3.572   1.888   6.286  0.1470 -0.4320 -0.3831
   68MOL   H38542059   3.579   2.082   6.188 -0.5106 -2.1437 -1.4157
   68MOL   H38642060   3.530   2.251   6.300 -1.2454  0.3995  1.5609
   68MOL   H38742061   3.695   2.294   6.341  0.7338 -0.9630 -0.8234
   68MOL   H38842062   3.657   2.314   6.578 -0.0655 -0.3099 -0.1504
   68MOL   H38942063   3.527   2.204   6.574 -0.3792  0.7962  1.2653
   68MOL   H39042064   3.548   2.505   6.493  0.9928 -0.0202  1.8307
   68MOL   H39142065   3.409   2.408   6.444 -0.9559 -0.0681  0.7494
   68MOL   H39242066   3.500   2.470   6.729 -0.7532 -0.0348  0.1693
   68MOL   H39342067   3.385   2.560   6.639 -0.7559  0.1803  2.4571
   68MOL   H39442068   3.263   2.327   6.596 -1.6851  3.6509 -0.2980
   68MOL   H39542069   3.330   2.267   6.739  0.1099 -0.1912 -0.1412
   68MOL   H39642070   3.109   2.365   6.784  0.1056 -0.0587  0.3765
   68MOL   H39742071   3.162   2.521   6.720 -0.2369 -0.8013 -0.0341
   68MOL   H39842072   3.265   2.373   6.962 -0.5255 -0.5491 -0.7455
   68MOL   H39942073   3.336   2.524   6.913 -0.1099  0.8362  3.4175
   68MOL   H40042074   3.038   2.481   6.984 -0.8449  0.2699 -1.3637
   68MOL   H40142075   3.110   2.632   6.955 -1.4923 -0.6744 -1.0450
   68MOL   H40242076   3.152   2.552   7.099 -0.4794  1.0936 -0.3811
   68MOL   H40342077   3.635   1.829   6.352 -2.1258 -2.7556 -0.2006
   68MOL   H40442078   3.477   1.906   6.337  1.0174 -2.7664  2.1422
   68MOL   C40542079   3.550   1.803   6.162 -1.0577  0.4853  0.1649
   68MOL   O40642080   3.419   1.827   6.126  0.1510  0.5208  0.0244
   68MOL   C40742081   3.408   1.877   5.997 -0.1494  0.2462  0.0012
   68MOL   C40842082   3.262   1.884   5.961 -0.2306  0.5900  0.3061
   68MOL   C40942083   3.245   1.941   5.816 -0.8439 -0.4112  0.1691
   68MOL   C41042084   3.101   1.943   5.767 -0.1815 -0.3109  0.3981
   68MOL   C41142085   3.088   1.982   5.614  0.3927  0.2814  0.7553
   68MOL   C41242086   3.116   2.132   5.583 -0.4982 -0.2312 -0.7658
   68MOL   C41342087   3.094   2.159   5.432  0.3863 -0.1071  0.3626
   68MOL   C41442088   3.160   2.284   5.375  0.4790 -0.6071  0.4245
   68MOL   C41542089   3.571   1.658   6.188 -0.3095 -0.0183 -0.2119
   68MOL   H41642090   3.621   1.823   6.082  1.8661 -2.1440  1.9999
   68MOL   H41742091   3.470   1.816   5.932  1.0277  2.4150 -0.9453
   68MOL   H41842092   3.430   1.983   6.007  0.5058 -0.0299  1.7177
   68MOL   H41942093   3.214   1.959   6.024  0.2493  1.8850 -0.8430
   68MOL   H42042094   3.205   1.792   5.972  0.0420  0.5597  1.5922
   68MOL   H42142095   3.279   2.044   5.820  0.6931 -0.9591  1.8018
   68MOL   H42242096   3.312   1.889   5.748  0.4813  2.2803 -0.6577
   68MOL   H42342097   3.044   1.859   5.805 -1.9952  1.0589  0.7871
   68MOL   H42442098   3.047   2.024   5.817  0.4957  0.2753  0.1927
   68MOL   H42542099   3.157   1.917   5.560 -0.7762 -0.4671  0.1367
   68MOL   H42642100   2.989   1.966   5.572  1.5687  0.5953 -2.2646
   68MOL   H42742101   3.216   2.169   5.605 -1.1611  1.1871 -0.0401
   68MOL   H42842102   3.057   2.203   5.641  1.2234  0.9166 -0.4000
   68MOL   H42942103   3.137   2.072   5.383 -0.9979  0.0622 -1.1961
   68MOL   H43042104   2.986   2.162   5.415  0.5289  1.2689 -0.3970
   68MOL   H43142105   3.144   2.293   5.268  0.0845  1.2170  0.6276
   68MOL   H43242106   3.268   2.288   5.394  0.4581  2.7765  0.0034
   68MOL   H43342107   3.116   2.371   5.423 -2.3180 -1.1321 -1.1033
   68MOL   H43442108   3.671   1.631   6.221 -0.6937 -0.0576  0.9538
   68MOL   H43542109   3.499   1.633   6.266  1.6492 -0.5036  1.4975
   68MOL   C43642110   3.551   1.564   6.067 -0.7136  0.3752 -0.2335
   68MOL   O43742111   3.580   1.426   6.113 -0.2825 -0.2256  0.7780
   68MOL   C43842112   3.478   1.347   6.158  0.4790 -0.2455  0.2931
   68MOL   C43942113   3.528   1.204   6.174  0.1080  0.1187 -0.4952
   68MOL   C44042114   3.418   1.099   6.150 -0.7161  0.6125 -0.5440
   68MOL   C44142115   3.339   1.090   6.020  0.2592  0.3046  0.5452
   68MOL   C44242116   3.261   0.952   6.015  0.4304 -0.3574 -0.4494
   68MOL   C44342117   3.192   0.928   5.880  0.3262  0.5246  0.0392
   68MOL   C44442118   3.086   1.031   5.844 -0.1975 -0.3799  0.5225
   68MOL   C44542119   2.987   0.978   5.746 -0.2519 -0.1242 -0.1656
   68MOL   C44642120   3.659   1.581   5.955 -0.1234 -0.1371 -0.4033
   68MOL   H44742121   3.456   1.559   6.013 -0.5278 -1.0439 -0.4695
   68MOL   H44842122   3.433   1.394   6.245  0.7174  1.0059 -0.2504
   68MOL   H44942123   3.391   1.351   6.093 -1.6440 -1.7350  2.9648
   68MOL   H45042124   3.554   1.187   6.279 -0.8952 -1.1988 -0.4433
   68MOL   H45142125   3.620   1.201   6.116  0.1232 -0.3148 -0.4474
   68MOL   H45242126   3.483   1.011   6.148 -1.3846  0.1132 -2.7441
   68MOL   H45342127   3.343   1.088   6.228  1.8733 -0.2485  1.8928
   68MOL   H45442128   3.251   1.154   6.009 -1.0119 -1.8799 -2.7953
   68MOL   H45542129   3.404   1.105   5.934 -1.4037  0.2274 -0.7535
   68MOL   H45642130   3.322   0.862   6.025 -0.1372 -0.6820  0.1408
   68MOL   H45742131   3.185   0.944   6.092 -0.6230  0.9418 -1.3187
   68MOL   H45842132   3.139   0.833   5.889 -0.0058  0.8403  1.5464
   68MOL   H45942133   3.272   0.924   5.806  0.6734 -0.5678  0.4585
   68MOL   H46042134   3.033   1.071   5.931  0.9610 -0.3937  1.2509
   68MOL   H46142135   3.141   1.115   5.800 -0.7073 -0.8610 -1.0696
   68MOL   H46242136   2.926   0.902   5.794  0.2235  0.2920  1.1427
   68MOL   H46342137   3.042   0.939   5.661 -0.2132  0.3871 -0.3778
   68MOL   H46442138   2.913   1.049   5.709 -0.8784 -0.7870 -0.1811
   68MOL   H46542139   3.666   1.684   5.918  1.9381  1.2210  3.4662
   68MOL   H46642140   3.754   1.562   6.004 -0.5989  2.6327  1.7312
   68MOL   C46742141   3.647   1.494   5.836 -0.1321  0.0120  1.0532
   68MOL   O46842142   3.756   1.495   5.738  0.0768 -0.0743 -0.1307
   68MOL   C46942143   3.872   1.410   5.769  0.0396 -0.0493  0.1637
   68MOL   C47042144   3.995   1.461   5.694  0.1668  0.5697  0.1016
   68MOL   C47142145   4.123   1.382   5.728  0.2940  0.4587 -0.6629
   68MOL   C47242146   4.251   1.461   5.673  0.5994  0.2931 -0.4858
   68MOL   C47342147   4.382   1.394   5.683 -0.7014  0.4276  0.6196
   68MOL   C47442148   4.427   1.355   5.827  0.0807  0.5768  0.7955
   68MOL   C47542149   4.550   1.270   5.829  0.2336  0.2683 -0.1487
   68MOL   C47642150   4.533   1.134   5.763  0.2184 -0.0003 -0.1124
   68MOL   C47742151   3.525   1.532   5.746 -0.0344 -0.2633 -0.3730
   68MOL   H47842152   3.629   1.395   5.877 -2.3403  0.1457  0.5097
   68MOL   H47942153   3.841   1.307   5.754 -0.8642  0.4603 -1.6112
   68MOL   H48042154   3.894   1.424   5.875 -0.2208 -0.0856  0.2223
   68MOL   H48142155   4.009   1.568   5.704 -1.2513  0.6233  1.5656
   68MOL   H48242156   3.986   1.453   5.585 -0.3343  1.8181  0.0517
   68MOL   H48342157   4.119   1.362   5.835  0.2923  0.9531 -0.5688
   68MOL   H48442158   4.106   1.293   5.668 -1.4991 -0.2488  0.8446
   68MOL   H48542159   4.222   1.494   5.573  1.5877  0.8256 -0.5989
   68MOL   H48642160   4.248   1.562   5.714  0.7185  0.0076  0.2384
   68MOL   H48742161   4.387   1.304   5.622  0.0482 -1.7016  3.7463
   68MOL   H48842162   4.461   1.457   5.640 -0.4105 -0.3423  0.0206
   68MOL   H48942163   4.339   1.306   5.868  0.5749  0.0645  1.2607
   68MOL   H49042164   4.437   1.449   5.881 -0.6452  0.4946  1.0784
   68MOL   H49142165   4.639   1.316   5.785  0.2323 -0.2011 -0.6474
   68MOL   H49242166   4.575   1.255   5.934  1.3733  0.8764 -0.3301
   68MOL   H49342167   4.595   1.051   5.799  0.8168  0.0574 -0.9934
   68MOL   H49442168   4.553   1.157   5.658 -2.1089 -0.4809 -0.7052
   68MOL   H49542169   4.432   1.092   5.766  0.9545 -1.9034 -1.0327
   68MOL   H49642170   3.430   1.527   5.800  1.3950 -0.3361  2.2311
   68MOL   H49742171   3.547   1.626   5.695  1.0174 -0.5097 -0.3846
   68MOL   C49842172   3.505   1.428   5.628 -0.4865  0.3784 -0.2083
   68MOL   O49942173   3.452   1.498   5.517  0.3508 -0.1788  0.1278
   68MOL   C50042174   3.551   1.540   5.425  0.3048 -0.3453 -0.0558
   68MOL   C50142175   3.493   1.621   5.307  0.3608 -0.0012 -0.3209
   68MOL   C50242176   3.372   1.563   5.228 -0.0720  0.2959  0.3951
   68MOL   C50342177   3.281   1.675   5.168 -0.7175  0.2988 -0.1529
   68MOL   C50442178   3.183   1.753   5.251  0.0446  0.0004 -0.5132
   68MOL   C50542179   3.048   1.681   5.274  0.4046 -0.5638 -0.4717
   68MOL   C50642180   2.965   1.740   5.384  0.5909 -0.0222  0.4657
   68MOL   C50742181   2.823   1.678   5.376  0.0871 -0.2379  0.9257
   68MOL   C50842182   3.415   1.311   5.669 -0.5843  0.1872  0.2608
   68MOL   H50942183   3.598   1.386   5.590 -1.1769 -0.5148 -0.9653
   68MOL   H51042184   3.595   1.450   5.382  0.8527 -1.0568  1.9655
   68MOL   H51142185   3.633   1.590   5.476  0.5371 -2.2916  1.5546
   68MOL   H51242186   3.567   1.636   5.229 -0.6361  2.6610 -0.7897
   68MOL   H51342187   3.472   1.725   5.331 -0.1800  0.1784 -1.5471
   68MOL   H51442188   3.413   1.505   5.146 -0.1851 -0.2745  0.7384
   68MOL   H51542189   3.319   1.494   5.295  0.4407 -1.1184 -0.6453
   68MOL   H51642190   3.349   1.749   5.126 -0.9793  2.0035  2.3272
   68MOL   H51742191   3.230   1.625   5.085 -1.2478  0.9870 -0.2438
   68MOL   H51842192   3.220   1.765   5.353  0.5094 -0.7391 -0.5834
   68MOL   H51942193   3.165   1.848   5.201 -1.8734 -0.8688 -1.5142
   68MOL   H52042194   3.065   1.574   5.286 -0.1720 -0.6623 -0.5246
   68MOL   H52142195   2.992   1.697   5.182 -2.0306  0.9675  1.2086
   68MOL   H52242196   3.010   1.742   5.483 -1.4338  1.4665  1.3936
   68MOL   H52342197   2.944   1.846   5.366  0.1174  0.3473  3.0533
   68MOL   H52442198   2.757   1.722   5.451 -1.1632 -0.6544  0.0902
   68MOL   H52542199   2.830   1.569   5.383  1.1052 -0.1697  1.0452
   68MOL   H52642200   2.779   1.700   5.278 -1.0419  0.3669  1.5493
   68MOL   H52742201   3.463   1.265   5.755  0.9311  1.8866  0.3478
   68MOL   H52842202   3.315   1.345   5.694 -0.1182  0.4259  1.8305
   68MOL   C52942203   3.404   1.197   5.561 -0.1295  0.5298 -0.0688
   68MOL   O53042204   3.276   1.148   5.545  0.0044 -0.3789  0.4009
   68MOL   C53142205   3.186   1.241   5.479 -0.3792  0.3387 -0.2170
   68MOL   C53242206   3.054   1.165   5.431 -0.3961 -0.1800 -0.0497
   68MOL   C53342207   2.944   1.269   5.370 -0.3546  0.0242  0.4611
   68MOL   C53442208   2.813   1.188   5.352  0.0909 -0.5706 -0.2334
   68MOL   C53542209   2.688   1.253   5.293 -0.2176 -0.6896 -1.3028
   68MOL   C53642210   2.723   1.327   5.163 -0.8239  1.0351  0.1251
   68MOL   C53742211   2.617   1.412   5.108 -0.0860  0.0766  0.4749
   68MOL   C53842212   2.669   1.498   4.990 -0.2251  0.4460 -0.6444
   68MOL   C53942213   3.477   1.069   5.597  0.6082  0.0465  0.3520
   68MOL   H54042214   3.437   1.227   5.462  1.4007 -0.6811  0.0462
   68MOL   H54142215   3.164   1.313   5.557  0.1266  1.1436 -0.8124
   68MOL   H54242216   3.231   1.297   5.397 -2.9480  0.9684 -1.2237
   68MOL   H54342217   3.007   1.116   5.516 -0.5283  0.8932  0.5109
   68MOL   H54442218   3.083   1.089   5.359  1.6264 -1.5651  2.1384
   68MOL   H54542219   2.912   1.356   5.428 -0.9946  0.2671 -0.2474
   68MOL   H54642220   2.980   1.305   5.273  0.4192 -2.7811 -0.3211
   68MOL   H54742221   2.838   1.097   5.296  2.3814 -1.6550  2.4414
   68MOL   H54842222   2.784   1.140   5.445  0.5925  0.2888  0.3659
   68MOL   H54942223   2.612   1.175   5.282 -0.7366 -0.3903  0.0896
   68MOL   H55042224   2.657   1.331   5.362 -1.1867 -2.5270  0.3876
   68MOL   H55142225   2.759   1.255   5.090  0.3227  0.6075  1.0946
   68MOL   H55242226   2.807   1.397   5.172  1.3541 -0.7837 -4.3492
   68MOL   H55342227   2.530   1.360   5.069 -0.4502  0.0948  1.2420
   68MOL   H55442228   2.587   1.478   5.189  1.5328  1.4357 -0.0105
   68MOL   H55542229   2.740   1.572   5.027 -3.0425  1.8702  2.0849
   68MOL   H55642230   2.600   1.551   4.924  0.3560  0.7748 -0.9977
   68MOL   H55742231   2.705   1.436   4.907  0.3702 -3.1870  2.2320
   68MOL   H55842232   3.431   1.035   5.690  1.2499 -0.5682  0.4548
   68MOL   H55942233   3.445   0.989   5.531 -3.0040  2.0501 -0.4311
   68MOL   C56042234   3.632   1.069   5.600  0.4055  0.0361 -0.2327
   68MOL   O56142235   3.684   1.133   5.718  0.0800  0.0660  0.2745
   68MOL   C56242236   3.694   1.054   5.836  0.4525  0.0640  0.0954
   68MOL   C56342237   3.817   0.959   5.841 -0.0302  0.3622  0.1166
   68MOL   C56442238   3.837   0.887   5.970 -0.6301  1.1049 -0.4179
   68MOL   C56542239   3.910   0.751   5.958 -0.0208 -0.6052  0.0501
   68MOL   C56642240   3.816   0.644   5.911  0.0223 -0.2584  0.1874
   68MOL   C56742241   3.883   0.511   5.896 -0.1504 -0.7239  0.4483
   68MOL   C56842242   3.782   0.404   5.847  0.4397 -0.6603 -0.0896
   68MOL   C56942243   3.844   0.266   5.862  0.5055 -0.6247 -0.5638
   68MOL   C57042244   3.697   1.110   5.469 -0.0735  0.2076 -0.7266
   68MOL   H57142245   3.665   0.965   5.609  2.0825  0.4798 -0.9437
   68MOL   H57242246   3.607   0.990   5.852  1.3531 -1.1233  0.2732
   68MOL   H57342247   3.695   1.127   5.917 -1.0327  0.6158 -0.3594
   68MOL   H57442248   3.902   1.023   5.816  0.2009  0.5496  1.3355
   68MOL   H57542249   3.806   0.890   5.758  0.8533  0.1177  0.2023
   68MOL   H57642250   3.906   0.953   6.022  2.5756 -1.6179 -1.0265
   68MOL   H57742251   3.740   0.890   6.018 -0.5056  1.3945 -0.1806
   68MOL   H57842252   4.004   0.757   5.903  0.5429  0.9180  1.1259
   68MOL   H57942253   3.934   0.716   6.059  0.2697 -2.1890 -0.5610
   68MOL   H58042254   3.734   0.656   5.981 -0.5987 -2.5568 -0.1132
   68MOL   H58142255   3.777   0.687   5.818 -0.5481 -2.3851 -0.5666
   68MOL   H58242256   3.932   0.485   5.989 -0.6384 -0.3789  0.8022
   68MOL   H58342257   3.965   0.514   5.825 -0.6567  1.3881 -0.0817
   68MOL   H58442258   3.688   0.406   5.902  1.0607  0.6019  0.9743
   68MOL   H58542259   3.759   0.435   5.745 -2.1239 -0.6865  0.4497
   68MOL   H58642260   3.904   0.236   5.776  0.3628 -0.4476 -0.7265
   68MOL   H58742261   3.764   0.192   5.874  0.6922 -0.7681 -0.2089
   68MOL   H58842262   3.907   0.254   5.950  0.1815  0.4517 -0.1813
   68MOL   H58942263   3.681   1.042   5.386 -2.2022  1.7733 -1.6448
   68MOL   H59042264   3.647   1.197   5.428 -1.0909 -0.5489 -1.1019
   68MOL   C59142265   3.846   1.141   5.463  0.1521 -0.2803 -0.6406
   68MOL   O59242266   3.860   1.221   5.345  0.3240  0.3785 -0.0982
   68MOL   C59342267   3.934   1.340   5.360  0.2505 -0.5248 -0.2127
   68MOL   C59442268   3.954   1.396   5.224  0.0811  0.4532  0.6760
   68MOL   C59542269   3.819   1.436   5.160  0.0397  0.0176 -0.1108
   68MOL   C59642270   3.829   1.478   5.015 -0.3785  0.1808  0.4869
   68MOL   C59742271   3.838   1.351   4.923 -0.2866 -0.4839  0.5220
   68MOL   C59842272   3.871   1.371   4.772 -0.2314  0.2684  0.0608
   68MOL   C59942273   4.012   1.428   4.735  0.1366 -0.3062 -0.2282
   68MOL   C60042274   4.000   1.493   4.600  0.7409 -0.4231  0.1430
   68MOL   C60142275   3.945   1.032   5.435 -0.2419  0.6968  0.1312
   68MOL   H60242276   3.877   1.201   5.549 -1.1505  0.0489 -0.3951
   68MOL   H60342277   4.028   1.321   5.413  0.3393  0.2442 -0.0825
   68MOL   H60442278   3.880   1.407   5.427  2.5363  0.6592  0.4896
   68MOL   H60542279   4.003   1.323   5.161  1.8246  1.4695  0.8327
   68MOL   H60642280   4.022   1.481   5.226  1.4856 -0.6416 -0.2294
   68MOL   H60742281   3.752   1.350   5.171  1.1617 -0.9063 -0.4024
   68MOL   H60842282   3.782   1.516   5.224 -1.2374 -0.5543 -0.1152
   68MOL   H60942283   3.743   1.539   4.986 -0.1699  0.5321  0.5961
   68MOL   H61042284   3.920   1.539   5.017 -1.5427  2.0472 -1.8869
   68MOL   H61142285   3.910   1.281   4.966  0.2260  0.2291  0.8327
   68MOL   H61242286   3.742   1.300   4.928  0.6035 -2.2111  0.3605
   68MOL   H61342287   3.792   1.439   4.740  0.1947 -0.8972 -3.7948
   68MOL   H61442288   3.858   1.279   4.715  2.4736 -0.8864  1.2001
   68MOL   H61542289   4.040   1.493   4.818  0.7990 -2.2041  1.0601
   68MOL   H61642290   4.082   1.344   4.727  0.4296 -0.0832 -0.0321
   68MOL   H61742291   4.086   1.561   4.593 -1.3826  2.2590 -1.0707
   68MOL   H61842292   3.913   1.558   4.594 -1.1312 -3.0644 -3.3850
   68MOL   H61942293   3.995   1.426   4.514  0.2242  1.1631 -1.1014
   68MOL   H62042294   4.051   1.056   5.445 -0.1127  0.6987 -1.1968
   68MOL   H62142295   3.927   0.949   5.503 -1.0928 -0.1174 -1.0565
   68MOL   H62242296   3.928   1.001   5.332 -0.1959 -0.2154  0.3949
   69MOL     C142297   1.948   0.735   3.766  0.8558 -0.0596  0.3783
   69MOL     O242298   2.053   0.747   3.866 -1.0190  0.0295  0.4012
   69MOL     C342299   2.154   0.650   3.854  0.3496 -0.1278  0.1548
   69MOL     C442300   2.271   0.708   3.935  0.5665  0.3017  0.3367
   69MOL     C542301   2.393   0.617   3.941 -0.1805 -0.8210 -0.1563
   69MOL     C642302   2.517   0.686   4.004  0.0032  0.0505  0.3387
   69MOL     C742303   2.588   0.798   3.926 -0.3571 -0.8553  0.9382
   69MOL     C842304   2.730   0.840   3.976  0.2505 -0.0888  0.3044
   69MOL     C942305   2.791   0.971   3.916 -0.8257  0.1421  0.8382
   69MOL    C1042306   2.928   1.010   3.985  0.7206 -0.0657  0.3529
   69MOL    C1142307   1.830   0.823   3.798 -0.3506 -0.3981  0.0264
   69MOL    H1242308   1.985   0.736   3.664 -2.4646 -1.6727 -0.9439
   69MOL    H1342309   2.179   0.629   3.750 -0.6494  1.4202 -0.4135
   69MOL    H1442310   2.124   0.557   3.904  1.2227 -1.5901 -2.0023
   69MOL    H1542311   2.250   0.752   4.033  1.7841 -1.5568  1.4551
   69MOL    H1642312   2.304   0.793   3.876 -1.0187  3.2554  3.4684
   69MOL    H1742313   2.360   0.533   4.003 -0.2412 -0.0050  0.9486
   69MOL    H1842314   2.420   0.597   3.838 -0.5854 -1.3443 -0.1613
   69MOL    H1942315   2.485   0.732   4.098 -0.7448  0.7384 -0.2414
   69MOL    H2042316   2.585   0.610   4.043  0.4228  1.0382  1.5774
   69MOL    H2142317   2.591   0.772   3.820  1.0861 -0.3184  0.8430
   69MOL    H2242318   2.519   0.882   3.933  0.2525 -0.3004  0.3742
   69MOL    H2342319   2.799   0.757   3.964 -0.3195 -0.4956 -0.1513
   69MOL    H2442320   2.730   0.847   4.085 -0.8895  0.0563  0.3016
   69MOL    H2542321   2.805   0.950   3.810 -0.9168 -1.0695  1.0698
   69MOL    H2642322   2.707   1.041   3.917 -1.3144 -0.3783 -1.4043
   69MOL    H2742323   2.997   0.940   3.937 -0.3685  0.8927 -2.6833
   69MOL    H2842324   2.920   1.002   4.094 -0.6870 -1.9912  0.1471
   69MOL    H2942325   2.961   1.110   3.960  3.1960 -0.4294  1.9513
   69MOL    H3042326   1.801   0.779   3.893 -2.3828  2.8257  0.9637
   69MOL    H3142327   1.856   0.929   3.801 -0.6259 -0.2949 -0.9604
   69MOL    H3242328   1.913   0.632   3.773 -2.5338  1.0585  0.9089
   69MOL    C3342329   1.712   0.825   3.706  0.1996  0.1230  0.4646
   69MOL    O3442330   1.741   0.898   3.581  0.4081  0.1126 -0.5072
   69MOL    C3542331   1.682   0.840   3.458  0.5510  0.4459 -0.0861
   69MOL    C3642332   1.752   0.899   3.337 -0.2687  0.2208  0.3671
   69MOL    C3742333   1.886   0.852   3.322 -0.2461  0.2052 -0.7981
   69MOL    C3842334   1.968   0.925   3.212 -0.8681  0.3148 -0.4083
   69MOL    C3942335   2.085   0.834   3.166 -0.0129  0.3359  0.3372
   69MOL    C4042336   2.039   0.722   3.069 -0.1154  0.3786  0.0823
   69MOL    C4142337   2.152   0.631   3.023  0.1635 -0.1365 -0.4265
   69MOL    C4242338   2.106   0.529   2.918 -0.4306  0.6369  0.1737
   69MOL    C4342339   1.593   0.893   3.777  0.1692  0.4616 -0.0382
   69MOL    H4442340   1.678   0.724   3.686  0.3872 -0.5088  3.1426
   69MOL    H4542341   1.575   0.858   3.448  0.8413  1.3358 -1.8558
   69MOL    H4642342   1.695   0.732   3.447  1.8081  0.6309 -0.4375
   69MOL    H4742343   1.760   1.007   3.347  1.2611  0.2790 -1.2039
   69MOL    H4842344   1.692   0.887   3.247 -0.3499  0.3309  0.4070
   69MOL    H4942345   1.939   0.847   3.418  0.8587  0.7002 -1.3673
   69MOL    H5042346   1.888   0.745   3.302  0.2430 -0.2912  1.6615
   69MOL    H5142347   1.902   0.948   3.128 -0.7380 -2.8530 -1.4280
   69MOL    H5242348   2.010   1.015   3.258  0.2576  0.5671 -1.8616
   69MOL    H5342349   2.155   0.901   3.117  1.0167 -0.8050  0.2261
   69MOL    H5442350   2.151   0.798   3.245  0.1050 -1.4187 -0.5414
   69MOL    H5542351   1.987   0.774   2.988 -0.1206  0.6120  0.2363
   69MOL    H5642352   1.967   0.660   3.122  0.7441  0.0499  0.8848
   69MOL    H5742353   2.232   0.686   2.972 -0.0113  0.4033 -0.1252
   69MOL    H5842354   2.189   0.573   3.108  0.4169 -0.9206 -1.0662
   69MOL    H5942355   2.007   0.488   2.941  0.2627 -1.4099 -0.3584
   69MOL    H6042356   2.173   0.443   2.925  1.0969  1.8423  0.4343
   69MOL    H6142357   2.110   0.563   2.815  0.4494 -0.2800 -0.1085
   69MOL    H6242358   1.616   0.994   3.811  0.7135  0.1082  0.6517
   69MOL    H6342359   1.515   0.891   3.701 -2.4799 -0.8238  2.5992
   69MOL    C6442360   1.535   0.802   3.893 -0.1956 -0.4358 -0.9745
   69MOL    O6542361   1.566   0.660   3.868 -0.9087 -0.6661 -0.1751
   69MOL    C6642362   1.570   0.573   3.982  0.2335  0.0852  0.5163
   69MOL    C6742363   1.597   0.434   3.925  0.3931 -0.0986 -0.0851
   69MOL    C6842364   1.615   0.321   4.032 -0.5738 -0.4263  0.4600
   69MOL    C6942365   1.748   0.308   4.095 -0.2986  0.2539 -0.2143
   69MOL    C7042366   1.749   0.204   4.203 -0.1436 -0.0273  0.4774
   69MOL    C7142367   1.678   0.243   4.330 -0.1330 -0.0449  0.6115
   69MOL    C7242368   1.727   0.149   4.453 -0.0349  0.4351 -0.2212
   69MOL    C7342369   1.673   0.175   4.592  0.0498  0.4461 -0.1731
   69MOL    C7442370   1.381   0.808   3.927 -0.3305 -0.2194 -0.2998
   69MOL    H7542371   1.584   0.822   3.989 -1.0789  0.3079 -0.6700
   69MOL    H7642372   1.468   0.573   4.020  0.2659  0.4363  0.6070
   69MOL    H7742373   1.646   0.608   4.051 -0.5017 -1.2063  1.9900
   69MOL    H7842374   1.685   0.434   3.861  0.0839  1.9411 -0.5232
   69MOL    H7942375   1.516   0.405   3.858 -1.4310  0.0961  1.9720
   69MOL    H8042376   1.531   0.331   4.100 -0.9646 -0.4832 -0.0139
   69MOL    H8142377   1.602   0.222   3.989  3.0049 -1.3717  1.3406
   69MOL    H8242378   1.823   0.288   4.018  0.8085  1.1827  0.6104
   69MOL    H8342379   1.775   0.409   4.124  1.8458 -0.1255 -0.7945
   69MOL    H8442380   1.711   0.108   4.168 -0.8660  1.3117 -2.5721
   69MOL    H8542381   1.852   0.190   4.236 -0.7067  0.1311  2.3246
   69MOL    H8642382   1.571   0.227   4.316 -0.4342  2.0886  0.2425
   69MOL    H8742383   1.679   0.350   4.351  1.0191  0.2599 -0.8887
   69MOL    H8842384   1.705   0.045   4.428 -4.6288  1.2702 -0.0010
   69MOL    H8942385   1.835   0.158   4.467 -0.4024  1.5184  2.0193
   69MOL    H9042386   1.584   0.116   4.613  1.8921 -0.7073  5.2897
   69MOL    H9142387   1.656   0.282   4.598  1.2737  0.6974 -0.9753
   69MOL    H9242388   1.747   0.157   4.671 -2.7710  0.7532  2.6473
   69MOL    H9342389   1.332   0.776   3.835 -1.1795 -0.4856  0.2337
   69MOL    H9442390   1.352   0.741   4.007 -0.1229 -0.3794 -0.3593
   69MOL    C9542391   1.334   0.952   3.966 -0.2803  0.3418 -0.2369
   69MOL    O9642392   1.412   0.991   4.084 -0.3974 -0.2055 -0.5325
   69MOL    C9742393   1.450   1.125   4.077 -0.0973  0.0556 -0.6746
   69MOL    C9842394   1.535   1.147   4.204 -0.1520 -0.1660 -0.2068
   69MOL    C9942395   1.655   1.239   4.180  0.0662 -0.1634  0.0980
   69MOL   C10042396   1.729   1.282   4.302  0.6290 -0.2824  0.7860
   69MOL   C10142397   1.844   1.373   4.273 -0.3486  0.0472  0.5539
   69MOL   C10242398   1.962   1.370   4.369  0.1048  0.4468 -0.9055
   69MOL   C10342399   2.066   1.478   4.335 -0.3455  0.6207 -0.1528
   69MOL   C10442400   2.189   1.484   4.422 -0.0630  0.5917  0.0235
   69MOL   C10542401   1.190   0.959   4.010 -0.2671 -0.1520  0.4074
   69MOL   H10642402   1.358   1.013   3.879  2.6937 -2.2502 -1.3367
   69MOL   H10742403   1.367   1.195   4.079 -0.0912  0.0449  0.9852
   69MOL   H10842404   1.495   1.146   3.980  0.7488  3.2883  0.3504
   69MOL   H10942405   1.569   1.057   4.254 -1.1758 -0.8615 -0.7509
   69MOL   H11042406   1.467   1.196   4.273  2.0922  0.5763  1.5501
   69MOL   H11142407   1.731   1.181   4.128 -2.0187 -1.5688 -1.4624
   69MOL   H11242408   1.637   1.329   4.122 -0.4347 -1.0445 -1.1476
   69MOL   H11342409   1.653   1.339   4.355 -0.8928 -0.4677 -1.1296
   69MOL   H11442410   1.758   1.190   4.353  1.0545 -1.5988 -1.7623
   69MOL   H11542411   1.879   1.352   4.172 -1.9724 -1.3878  0.2568
   69MOL   H11642412   1.806   1.473   4.254  0.3150 -0.4553 -4.0466
   69MOL   H11742413   2.000   1.271   4.394 -0.3450  0.5948  0.3875
   69MOL   H11842414   1.914   1.391   4.465 -0.0025 -2.7212 -0.1964
   69MOL   H11942415   2.104   1.478   4.233 -1.2662  1.2185 -0.4973
   69MOL   H12042416   2.004   1.567   4.343  1.5800  1.9193  0.8502
   69MOL   H12142417   2.265   1.413   4.389 -0.5503 -0.5790  1.3159
   69MOL   H12242418   2.169   1.453   4.525 -0.4563  0.0521 -0.2095
   69MOL   H12342419   2.228   1.585   4.435 -0.1407  0.7330 -0.8748
   69MOL   H12442420   1.181   0.882   4.086 -1.8144 -0.6373 -0.2501
   69MOL   H12542421   1.172   1.059   4.050 -0.2602  0.6871 -1.6061
   69MOL   C12642422   1.083   0.919   3.904  0.0308 -0.5238  0.2258
   69MOL   O12742423   1.066   1.023   3.818  0.1247  0.2340 -0.5971
   69MOL   C12842424   0.989   1.010   3.696  0.2792 -0.0076 -0.2632
   69MOL   C12942425   1.010   1.129   3.603  0.1733  0.0719  0.3134
   69MOL   C13042426   1.148   1.130   3.526  0.4621 -0.3977 -0.2189
   69MOL   C13142427   1.179   1.246   3.426  0.0444 -0.1169 -0.0655
   69MOL   C13242428   1.310   1.236   3.361  0.8497  0.0817 -0.6952
   69MOL   C13342429   1.332   1.119   3.275  0.2305 -0.2882  0.0265
   69MOL   C13442430   1.470   1.112   3.201 -0.4884  0.0329 -0.4648
   69MOL   C13542431   1.483   0.994   3.113  0.1090 -0.6916  0.0549
   69MOL   C13642432   0.947   0.902   3.967  0.5202 -0.1929  0.4775
   69MOL   H13742433   1.125   0.833   3.852  2.4444  0.4508  0.4815
   69MOL   H13842434   0.885   1.010   3.726  0.2706 -0.4148 -0.2868
   69MOL   H13942435   1.015   0.921   3.638  1.0218  0.0910 -0.0967
   69MOL   H14042436   0.998   1.213   3.672 -1.7410  0.4591 -0.4580
   69MOL   H14142437   0.933   1.122   3.526  0.7753 -2.8849 -0.0735
   69MOL   H14242438   1.225   1.133   3.604  0.4902 -2.3173 -0.1462
   69MOL   H14342439   1.156   1.030   3.484 -1.4581  0.2592 -2.2297
   69MOL   H14442440   1.106   1.240   3.345  1.0162  1.1260 -1.0521
   69MOL   H14542441   1.167   1.343   3.475 -1.4516 -1.7494  3.0122
   69MOL   H14642442   1.328   1.322   3.296  0.8362  0.3647 -0.3249
   69MOL   H14742443   1.388   1.231   3.437 -0.9257  0.7871  1.2239
   69MOL   H14842444   1.260   1.127   3.194  2.7286 -0.5480 -2.3154
   69MOL   H14942445   1.319   1.023   3.325  0.4044 -0.1055  0.4182
   69MOL   H15042446   1.486   1.204   3.144  1.3920 -0.2156 -0.3596
   69MOL   H15142447   1.549   1.116   3.276 -1.3996  0.0378  0.4960
   69MOL   H15242448   1.579   0.981   3.064 -0.3844  0.6288 -1.3117
   69MOL   H15342449   1.403   1.004   3.039 -1.0561  0.2472  1.4176
   69MOL   H15442450   1.464   0.899   3.163 -1.1607 -0.4678  0.0243
   69MOL   H15542451   0.952   0.899   4.075 -1.5451 -1.0162  0.5745
   69MOL   H15642452   0.884   0.987   3.938  0.7455 -0.2033 -0.0558
   69MOL   C15742453   0.875   0.773   3.914 -0.6117 -0.0116  0.3832
   69MOL   O15842454   0.735   0.785   3.929 -0.4199  0.7325  0.4147
   69MOL   C15942455   0.662   0.731   3.820  0.3801  0.0605 -0.2990
   69MOL   C16042456   0.515   0.749   3.858 -0.0628 -0.1032 -0.5188
   69MOL   C16142457   0.431   0.643   3.785 -0.1312 -0.4575  0.3167
   69MOL   C16242458   0.282   0.667   3.805  0.5112 -0.2668  0.1661
   69MOL   C16342459   0.194   0.554   3.756  0.4354 -0.0233 -0.8774
   69MOL   C16442460   0.046   0.580   3.771  0.5947  0.4130 -0.1801
   69MOL   C16542461   7.766   0.611   3.911 -0.0962 -0.2386 -0.0054
   69MOL   C16642462   7.610   0.613   3.920  0.4108 -0.5486  0.2552
   69MOL   C16742463   0.910   0.645   3.989  0.0812 -0.1492 -0.0992
   69MOL   H16842464   0.915   0.755   3.814 -0.1493  0.7658  0.4220
   69MOL   H16942465   0.684   0.625   3.802  1.1636  0.1054  0.4083
   69MOL   H17042466   0.687   0.787   3.730  0.4005  0.3620 -0.1032
   69MOL   H17142467   0.491   0.855   3.860  0.8697  0.1095  1.1671
   69MOL   H17242468   0.513   0.714   3.962  0.5784  0.4052 -0.3364
   69MOL   H17342469   0.456   0.656   3.680  0.6372  1.6501  0.7194
   69MOL   H17442470   0.461   0.543   3.816 -0.3333 -0.6296 -0.0381
   69MOL   H17542471   0.253   0.705   3.903 -1.3140  0.4575 -0.6207
   69MOL   H17642472   0.270   0.754   3.740  1.5152 -1.2269 -1.3253
   69MOL   H17742473   0.224   0.529   3.654  2.7471 -0.6569 -0.0700
   69MOL   H17842474   0.217   0.476   3.829 -0.7474 -0.3287 -0.8220
   69MOL   H17942475   7.759   0.502   3.726  0.3539  0.1916  0.5255
   69MOL   H18042476   0.024   0.668   3.709  0.0941  1.3813  1.3385
   69MOL   H18142477   0.020   0.528   3.977 -2.6375 -0.5163  0.7740
   69MOL   H18242478   0.037   0.700   3.955  2.1442 -0.6169 -1.4812
   69MOL   H18342479   7.560   0.700   3.877 -0.5033 -0.6025  1.1904
   69MOL   H18442480   7.581   0.607   4.025  0.7477 -1.2990  0.3101
   69MOL   H18542481   7.552   0.532   3.877  1.3858 -0.4134 -1.3531
   69MOL   H18642482   0.924   0.674   4.093  1.3817  0.3785 -0.4149
   69MOL   H18742483   0.826   0.575   3.977 -1.0666  1.0487  0.7994
   69MOL   C18842484   1.039   0.571   3.955  0.1723  0.1963 -0.2406
   69MOL   O18942485   1.036   0.540   3.815 -0.4981 -0.2917  0.9666
   69MOL   C19042486   1.168   0.516   3.761  0.0633 -0.0392  0.1652
   69MOL   C19142487   1.164   0.549   3.610 -0.6039 -0.3587  0.0860
   69MOL   C19242488   1.296   0.544   3.535 -0.7878  0.7204 -0.5170
   69MOL   C19342489   1.296   0.551   3.377 -0.1825  0.3274  0.0738
   69MOL   C19442490   1.435   0.577   3.322 -0.4493  0.0910 -0.0995
   69MOL   C19542491   1.474   0.517   3.184  1.0570 -0.0074  0.2673
   69MOL   C19642492   1.600   0.585   3.134 -0.3214 -0.8354  0.1534
   69MOL   C19742493   1.638   0.540   2.986 -0.4150 -0.1804 -0.1491
   69MOL   C19842494   1.062   0.439   4.043  0.9992  0.0804  0.2116
   69MOL   H19942495   1.127   0.635   3.967 -0.7021  1.4616 -0.5044
   69MOL   H20042496   1.236   0.593   3.799  0.0662  0.9855 -1.8519
   69MOL   H20142497   1.199   0.413   3.780 -0.6834 -0.2491  0.2719
   69MOL   H20242498   1.121   0.648   3.602  1.9363  0.5773 -3.0319
   69MOL   H20342499   1.089   0.479   3.574  1.4925 -2.3000 -0.6829
   69MOL   H20442500   1.357   0.627   3.570 -0.4592 -0.6363  2.2810
   69MOL   H20542501   1.342   0.450   3.566 -0.1238  0.8295 -1.1626
   69MOL   H20642502   1.271   0.460   3.322 -1.6239  0.1250  1.0578
   69MOL   H20742503   1.227   0.630   3.349 -1.3566 -0.4680  0.6823
   69MOL   H20842504   1.442   0.685   3.328 -1.0820  0.1193  0.2045
   69MOL   H20942505   1.514   0.542   3.389  1.0375 -1.1201 -2.4148
   69MOL   H21042506   1.394   0.540   3.113 -1.0093  0.1468  2.6027
   69MOL   H21142507   1.482   0.409   3.189 -0.2261 -0.0472  1.6880
   69MOL   H21242508   1.588   0.693   3.135 -0.6223 -0.8406 -1.4239
   69MOL   H21342509   1.687   0.560   3.195  0.0609 -0.2289 -0.1411
   69MOL   H21442510   1.674   0.625   2.930 -0.7447 -0.8769 -1.4426
   69MOL   H21542511   1.540   0.517   2.943 -1.4737  2.1096  0.9123
   69MOL   H21642512   1.716   0.464   2.981  0.5331  0.9381 -2.6886
   69MOL   H21742513   0.966   0.387   4.039  0.6167  0.8642 -1.0611
   69MOL   H21842514   1.136   0.380   3.989  0.5349  0.8111 -1.2465
   69MOL   C21942515   1.108   0.461   4.187  0.3996  0.0837 -0.2455
   69MOL   O22042516   1.244   0.495   4.168  0.5260  0.2989 -0.6520
   69MOL   C22142517   1.301   0.566   4.276  0.2989 -0.3141 -0.1096
   69MOL   C22242518   1.434   0.515   4.313 -0.7509 -0.1397  0.0305
   69MOL   C22342519   1.494   0.616   4.417 -0.1918  0.2261  0.3740
   69MOL   C22442520   1.415   0.626   4.546 -0.0413 -0.5014  0.4708
   69MOL   C22542521   1.501   0.685   4.661  0.3931  0.1606  0.5294
   69MOL   C22642522   1.416   0.691   4.792 -0.3781 -0.6385 -0.2982
   69MOL   C22742523   1.496   0.744   4.912  0.2056 -0.2294 -0.3129
   69MOL   C22842524   1.422   0.727   5.044 -0.1322 -0.0947  0.6641
   69MOL   C22942525   1.100   0.324   4.266 -0.7493 -0.3293 -0.3681
   69MOL   H23042526   1.047   0.541   4.229 -0.1677 -0.9783  0.9952
   69MOL   H23142527   1.237   0.568   4.364 -0.8689 -2.3592 -0.8854
   69MOL   H23242528   1.312   0.667   4.235 -1.8769 -0.0453 -0.1003
   69MOL   H23342529   1.499   0.512   4.225 -0.1672 -1.0863  0.4824
   69MOL   H23442530   1.437   0.411   4.345  1.3691  0.0721  0.5951
   69MOL   H23542531   1.597   0.585   4.437 -0.4093 -0.7990 -0.0680
   69MOL   H23642532   1.495   0.717   4.376  0.9982  0.0014 -0.1936
   69MOL   H23742533   1.321   0.681   4.540  1.6598  2.3907 -0.5187
   69MOL   H23842534   1.405   0.521   4.574  1.7946 -0.2265  2.2927
   69MOL   H23942535   1.596   0.634   4.680  0.2076 -1.2356 -2.0299
   69MOL   H24042536   1.518   0.791   4.642  1.0331 -0.1094 -0.4673
   69MOL   H24142537   1.398   0.587   4.821 -0.8430 -0.0835  1.4654
   69MOL   H24242538   1.324   0.746   4.773 -0.0118  1.1780  2.8100
   69MOL   H24342539   1.592   0.692   4.914  0.0047 -0.6853 -1.7980
   69MOL   H24442540   1.531   0.847   4.902  2.9507 -1.0618  0.1028
   69MOL   H24542541   1.410   0.625   5.078  0.9673 -2.1353 -4.6139
   69MOL   H24642542   1.322   0.771   5.046 -1.1177 -2.3165  1.1384
   69MOL   H24742543   1.472   0.770   5.131 -0.6487 -2.6758  2.2914
   69MOL   H24842544   1.135   0.241   4.204 -1.0685 -0.4343 -0.4085
   69MOL   H24942545   1.167   0.321   4.352 -0.3272  2.4659 -0.5366
   69MOL   C25042546   0.964   0.284   4.322  0.1885  0.0934 -0.0363
   69MOL   O25142547   0.883   0.233   4.220  0.2769  0.2391  0.5032
   69MOL   C25242548   0.885   0.094   4.200 -0.5545 -0.3167  0.8723
   69MOL   C25342549   0.799   0.019   4.296  0.4102 -0.0523 -0.1391
   69MOL   C25442550   0.645   0.053   4.279 -0.0826  0.3401  0.2443
   69MOL   C25542551   0.565   7.753   4.385 -0.3323 -0.0199  0.7970
   69MOL   C25642552   0.416   7.745   4.356  0.2211 -0.0267 -0.5236
   69MOL   C25742553   0.338   7.663   4.466  0.6876 -0.4059 -0.5410
   69MOL   C25842554   0.190   7.688   4.458 -0.5490 -0.1922 -0.0505
   69MOL   C25942555   0.116   7.593   4.553  0.6247 -0.7308  0.1213
   69MOL   C26042556   0.885   0.397   4.381  0.0801 -0.2933  0.1342
   69MOL   H26142557   0.980   0.209   4.399 -0.6422  1.8671  1.8999
   69MOL   H26242558   0.987   0.056   4.203  0.2834  1.8052  0.3427
   69MOL   H26342559   0.870   0.065   4.096 -0.0629  0.6898  0.5065
   69MOL   H26442560   0.831   0.044   4.397 -1.0272  0.6249  0.1514
   69MOL   H26542561   0.828   7.688   4.295  1.0494  0.1133  0.7706
   69MOL   H26642562   0.634   0.161   4.272  0.2395  0.3106 -0.8567
   69MOL   H26742563   0.618   0.006   4.185  1.8296 -1.8366  0.7435
   69MOL   H26842564   0.605   7.651   4.381  3.7746  1.5621 -0.9543
   69MOL   H26942565   0.590   0.016   4.485  0.4794 -0.6200  0.8233
   69MOL   H27042566   0.371   0.070   4.352 -2.8448 -1.4263 -2.9924
   69MOL   H27142567   0.403   7.702   4.257  1.8165 -0.2178 -0.6510
   69MOL   H27242568   0.366   7.705   4.563  3.2381 -1.5018 -0.7673
   69MOL   H27342569   0.370   7.560   4.482  1.0055  0.0556  2.1130
   69MOL   H27442570   0.174   0.021   4.466 -3.5556 -0.7864  2.9713
   69MOL   H27542571   0.141   7.672   4.361 -1.4218  0.0862  0.3397
   69MOL   H27642572   0.093   7.648   4.645  0.3093  0.7479 -0.8171
   69MOL   H27742573   0.176   7.503   4.566  0.9671 -0.7918 -1.8387
   69MOL   H27842574   0.020   7.555   4.519 -0.3359  0.1949  1.7082
   69MOL   H27942575   0.850   0.465   4.303  0.1933 -0.4913 -0.0902
   69MOL   H28042576   0.796   0.351   4.425 -1.3441  0.6780 -1.6517
   69MOL   C28142577   0.951   0.477   4.493 -0.2958  0.6865 -0.1290
   69MOL   O28242578   1.013   0.386   4.580 -0.1186 -0.0875  0.5439
   69MOL   C28342579   1.140   0.420   4.632  0.6327  0.1990  0.9979
   69MOL   C28442580   1.181   0.287   4.708  0.2448 -0.9065 -0.3532
   69MOL   C28542581   1.204   0.174   4.611  0.6655 -0.4371 -0.1170
   69MOL   C28642582   1.261   0.045   4.677  0.2279  0.1097  0.2391
   69MOL   C28742583   1.277   7.701   4.577 -0.5028  0.1803 -0.7975
   69MOL   C28842584   1.147   7.645   4.517 -0.7136 -0.3151 -0.1011
   69MOL   C28942585   1.070   7.552   4.613 -0.7021 -0.1256  0.3624
   69MOL   C29042586   0.958   7.483   4.532  0.5978 -0.0982  0.3758
   69MOL   C29142587   0.844   0.552   4.567  0.6249 -0.2562 -0.0397
   69MOL   H29242588   1.024   0.548   4.454  1.3625 -0.8894  0.0468
   69MOL   H29342589   1.133   0.500   4.706  0.7916  0.4857  0.6991
   69MOL   H29442590   1.218   0.427   4.557  0.0926 -1.0515  0.3113
   69MOL   H29542591   1.109   0.269   4.788  1.0961  0.0585  0.6361
   69MOL   H29642592   1.272   0.298   4.767 -0.8454  1.8408  0.9193
   69MOL   H29742593   1.114   0.147   4.554  1.0940 -0.6624 -0.6901
   69MOL   H29842594   1.272   0.207   4.533  1.9426  0.2374  1.2703
   69MOL   H29942595   1.352   0.069   4.731 -0.4390  3.3695  0.0132
   69MOL   H30042596   1.182   0.023   4.749  1.1949 -1.8872  0.7109
   69MOL   H30142597   1.337   7.749   4.499 -0.2753  2.8073  0.9425
   69MOL   H30242598   1.334   7.616   4.617 -0.7125  0.4196  0.0223
   69MOL   H30342599   1.163   7.585   4.428 -0.4378  0.1753 -0.3820
   69MOL   H30442600   1.084   7.723   4.473  0.6629  2.2270  2.3018
   69MOL   H30542601   1.150   7.483   4.641 -0.6392 -0.0883  0.2781
   69MOL   H30642602   1.034   7.601   4.703 -1.2474 -0.5285  0.3641
   69MOL   H30742603   0.892   7.447   4.610  0.5901  0.7473  0.7691
   69MOL   H30842604   0.989   7.401   4.468 -2.3490 -1.1091  0.1744
   69MOL   H30942605   0.899   7.546   4.465  0.2221 -0.0624  0.7427
   69MOL   H31042606   0.755   0.491   4.579 -2.3548  4.1262  0.9188
   69MOL   H31142607   0.887   0.577   4.664  0.3191 -0.4901  0.1565
   69MOL   C31242608   0.796   0.685   4.505 -0.4429  0.1978 -0.1148
   69MOL   O31342609   0.907   0.765   4.495 -0.3826  0.4139  0.3120
   69MOL   C31442610   0.904   0.877   4.409  0.2144 -0.4997  0.5285
   69MOL   C31542611   1.060   0.921   4.395  0.0031  0.4185  0.6126
   69MOL   C31642612   1.126   0.996   4.511 -0.7046  0.4908  0.7011
   69MOL   C31742613   1.272   1.033   4.476  0.3050 -0.9921 -0.3430
   69MOL   C31842614   1.356   1.065   4.609  0.1122  0.8629 -0.6117
   69MOL   C31942615   1.493   1.111   4.570 -0.3088  0.1125  0.1956
   69MOL   C32042616   1.591   1.140   4.691  0.1377  1.0434 -0.0306
   69MOL   C32142617   1.713   1.231   4.676 -0.0059  0.5262  0.0375
   69MOL   C32242618   0.687   0.763   4.589  0.5716  0.3416  0.2271
   69MOL   H32342619   0.754   0.660   4.408 -1.4231 -1.1166  0.6324
   69MOL   H32442620   0.851   0.964   4.449 -0.2061 -0.2166 -0.6260
   69MOL   H32542621   0.863   0.852   4.312  0.9366 -1.0504  0.3708
   69MOL   H32642622   1.072   0.988   4.310  4.5612  0.1186  0.9080
   69MOL   H32742623   1.130   0.842   4.366 -1.0603 -1.5625  3.1787
   69MOL   H32842624   1.067   1.079   4.550 -0.4406  0.8956  0.2391
   69MOL   H32942625   1.135   0.923   4.591  2.6258  2.1683  1.9535
   69MOL   H33042626   1.325   0.958   4.419  3.2519  1.1817 -0.5608
   69MOL   H33142627   1.272   1.129   4.424 -0.2324 -0.8137 -0.0281
   69MOL   H33242628   1.303   1.142   4.664  0.9440  0.4613  0.7714
   69MOL   H33342629   1.365   0.971   4.663  0.9170  1.2703 -0.0263
   69MOL   H33442630   1.492   1.201   4.509  2.3252 -0.4584 -0.7242
   69MOL   H33542631   1.541   1.037   4.506 -1.3172  1.3142 -2.0289
   69MOL   H33642632   1.537   1.185   4.773  2.6396  1.9605  1.1558
   69MOL   H33742633   1.630   1.044   4.725 -0.3269  0.4365 -1.1724
   69MOL   H33842634   1.765   1.229   4.772 -0.8461  0.3478  0.4964
   69MOL   H33942635   1.675   1.332   4.660 -0.1110  0.3223 -1.0654
   69MOL   H34042636   1.786   1.211   4.598 -0.8509  0.9518 -0.8726
   69MOL   H34142637   0.745   0.783   4.679  2.4927 -1.9576 -0.4328
   69MOL   H34242638   0.657   0.864   4.561 -1.9467  0.4544  3.0897
   69MOL   C34342639   0.559   0.678   4.616  0.2568 -0.0230 -0.4940
   69MOL   O34442640   0.492   0.645   4.496  0.4238  0.4865 -0.6590
   69MOL   C34542641   0.439   0.516   4.516 -0.2882  0.0037 -0.1566
   69MOL   C34642642   0.398   0.472   4.370 -0.0519  0.2676  0.1767
   69MOL   C34742643   0.504   0.501   4.260 -0.1826 -0.2982  0.2719
   69MOL   C34842644   0.500   0.397   4.151  0.0514 -0.2125  0.1435
   69MOL   C34942645   0.617   0.405   4.054 -0.3938  0.9045  0.4287
   69MOL   C35042646   0.621   0.294   3.946 -0.0934 -0.3824 -0.2680
   69MOL   C35142647   0.729   0.313   3.834 -0.5691 -0.3883 -0.3241
   69MOL   C35242648   0.730   0.190   3.742 -0.8561 -0.3758 -0.3675
   69MOL   C35342649   0.460   0.749   4.715 -0.2117  0.0658  0.1392
   69MOL   H35442650   0.592   0.593   4.677 -0.2004  1.5524  2.0582
   69MOL   H35542651   0.360   0.504   4.590  1.8583  0.5269  2.2858
   69MOL   H35642652   0.510   0.440   4.550 -0.9201  0.5742  2.5134
   69MOL   H35742653   0.311   0.528   4.335  1.5833  2.3591 -0.6619
   69MOL   H35842654   0.370   0.368   4.381  0.8940 -0.0047  0.0138
   69MOL   H35942655   0.488   0.601   4.222 -0.2914 -0.2264  0.5034
   69MOL   H36042656   0.604   0.491   4.303 -0.7552 -0.8023  1.5221
   69MOL   H36142657   0.482   0.296   4.187 -2.3784  0.0124 -0.3749
   69MOL   H36242658   0.413   0.418   4.088  0.7572  0.2559 -0.6835
   69MOL   H36342659   0.604   0.503   4.007 -0.4023  0.7750  0.1603
   69MOL   H36442660   0.716   0.406   4.099 -0.9207  1.7998  1.6068
   69MOL   H36542661   0.523   0.288   3.897  0.1998 -2.0584 -0.6578
   69MOL   H36642662   0.632   0.201   4.001  1.7970 -0.0518 -0.0616
   69MOL   H36742663   0.728   0.400   3.769  2.8214 -0.6616 -0.8324
   69MOL   H36842664   0.828   0.314   3.879 -1.1428 -1.4595  0.9792
   69MOL   H36942665   0.800   0.198   3.660  1.3941 -0.1004  1.5284
   69MOL   H37042666   0.637   0.171   3.688 -2.9047  0.2467  2.7569
   69MOL   H37142667   0.762   0.102   3.799 -0.2802 -0.9136 -1.5129
   69MOL   H37242668   0.474   0.853   4.686  2.1124 -0.7325 -1.7883
   69MOL   H37342669   0.355   0.724   4.697 -0.6459  0.4479  2.1091
   69MOL   C37442670   0.499   0.729   4.863  0.1018  0.1725 -0.3125
   69MOL   O37542671   0.481   0.592   4.885  0.0869  0.8188  0.2449
   69MOL   C37642672   0.565   0.537   4.986  0.4867  0.5509  1.0216
   69MOL   C37742673   0.534   0.392   5.036  0.5897 -0.3196 -0.1157
   69MOL   C37842674   0.606   0.353   5.167 -0.7007  0.6168  0.0915
   69MOL   C37942675   0.544   0.229   5.231 -0.1534  0.2371 -0.3010
   69MOL   C38042676   0.640   0.166   5.330  0.4730  0.0494  0.0765
   69MOL   C38142677   0.749   0.071   5.271 -0.3676 -0.5060  0.7678
   69MOL   C38242678   0.701   7.710   5.219  0.3360  0.2585  0.1055
   69MOL   C38342679   0.805   7.644   5.131  0.1776  0.1716 -0.2302
   69MOL   C38442680   0.393   0.806   4.943 -0.1394  0.3768  0.2544
   69MOL   H38542681   0.599   0.764   4.888 -0.6862  1.6571  0.8099
   69MOL   H38642682   0.569   0.599   5.075 -0.8147  1.0490  0.7375
   69MOL   H38742683   0.663   0.530   4.938 -1.2926  0.7060 -2.8516
   69MOL   H38842684   0.542   0.315   4.958 -1.7305 -0.0551 -0.6536
   69MOL   H38942685   0.428   0.386   5.059  1.0578  0.8846  2.4857
   69MOL   H39042686   0.708   0.322   5.144 -0.6509  1.2148 -0.4860
   69MOL   H39142687   0.606   0.440   5.233 -2.1028  1.1892 -0.6315
   69MOL   H39242688   0.455   0.255   5.289 -0.5851  0.0051 -0.8595
   69MOL   H39342689   0.510   0.150   5.164 -0.1805 -1.0760  1.2310
   69MOL   H39442690   0.693   0.237   5.393  0.0160 -1.0241  1.7006
   69MOL   H39542691   0.579   0.109   5.399 -0.0322 -1.2432 -1.4136
   69MOL   H39642692   0.831   0.070   5.342  0.7713  0.1595 -0.5257
   69MOL   H39742693   0.802   0.128   5.195 -2.5647  1.4750  0.6494
   69MOL   H39842694   0.678   7.641   5.300  0.5147  0.6762  0.5145
   69MOL   H39942695   0.607   7.708   5.165  1.0363  0.0977 -1.1374
   69MOL   H40042696   0.901   7.633   5.182  0.0870 -0.3836 -0.1705
   69MOL   H40142697   0.814   7.708   5.043  2.6711 -0.9139 -0.8408
   69MOL   H40242698   0.776   7.547   5.091 -1.1072 -0.3678  1.9597
   69MOL   H40342699   0.294   0.778   4.908  0.8838 -1.5413 -1.1908
   69MOL   H40442700   0.381   0.765   5.043  1.0568 -0.2350  0.1487
   69MOL   C40542701   0.405   0.963   4.954  0.4638 -0.1245 -0.1961
   69MOL   O40642702   0.530   1.019   4.963 -0.5048  0.5147  0.3703
   69MOL   C40742703   0.557   1.155   4.943 -0.0519  0.1239 -0.3698
   69MOL   C40842704   0.706   1.184   4.939 -0.6800  0.0148  0.5179
   69MOL   C40942705   0.776   1.105   4.832 -0.6910 -0.0130  0.3819
   69MOL   C41042706   0.914   1.056   4.875  0.0352 -0.2441  0.1247
   69MOL   C41142707   1.019   1.166   4.866  0.3453  0.6011 -0.5763
   69MOL   C41242708   1.146   1.122   4.943  0.7974  0.3975  0.1939
   69MOL   C41342709   1.228   1.245   4.981  0.3894 -0.5687  0.3519
   69MOL   C41442710   1.347   1.214   5.070  0.6865  0.3093  0.7650
   69MOL   C41542711   0.298   1.013   5.056 -0.6415  0.3513  0.2296
   69MOL   H41642712   0.359   0.997   4.861 -2.2255 -0.2021  1.0522
   69MOL   H41742713   0.496   1.210   5.015  1.0208  1.2087 -0.2807
   69MOL   H41842714   0.521   1.184   4.844 -0.2284  1.0472 -0.0360
   69MOL   H41942715   0.737   1.163   5.042 -2.1359 -1.4979  0.6631
   69MOL   H42042716   0.723   1.292   4.935  1.4404 -0.1096  3.9128
   69MOL   H42142717   0.724   1.017   4.793  0.6406 -0.7373  0.1921
   69MOL   H42242718   0.796   1.172   4.748 -4.6491 -0.1840 -0.7932
   69MOL   H42342719   0.906   1.009   4.973 -0.7045 -1.3850 -0.4665
   69MOL   H42442720   0.960   0.980   4.812 -1.3655  0.2395 -1.5069
   69MOL   H42542721   1.045   1.194   4.764  1.0100  2.6625  0.1271
   69MOL   H42642722   0.986   1.256   4.919  0.8677  0.7067 -0.4213
   69MOL   H42742723   1.204   1.049   4.887  0.3677  0.2740 -0.0990
   69MOL   H42842724   1.125   1.069   5.035  0.7972 -0.8914 -0.5419
   69MOL   H42942725   1.268   1.296   4.893  1.8944  1.1250  1.9733
   69MOL   H43042726   1.155   1.312   5.025  1.1855 -0.3994  1.4289
   69MOL   H43142727   1.406   1.131   5.032 -1.3896 -1.2182  0.7797
   69MOL   H43242728   1.317   1.209   5.174  0.7114  2.5323  0.8994
   69MOL   H43342729   1.422   1.293   5.072 -0.0804  1.0387  1.5591
   69MOL   H43442730   0.264   1.110   5.020  2.5139  0.7581 -1.8631
   69MOL   H43542731   0.210   0.949   5.049 -0.1319 -0.4214  0.7393
   69MOL   C43642732   0.349   1.022   5.203 -0.4614 -0.0771  0.1125
   69MOL   O43742733   0.438   0.916   5.236  0.1613 -0.0044 -0.0993
   69MOL   C43842734   0.558   0.955   5.295 -0.6306  0.8724  0.3653
   69MOL   C43942735   0.651   0.841   5.314 -0.5773  0.0488 -0.5839
   69MOL   C44042736   0.734   0.818   5.191 -0.1665 -0.3095  0.0996
   69MOL   C44142737   0.821   0.695   5.214  0.0332  0.2237  0.2439
   69MOL   C44242738   0.910   0.663   5.096  0.5344  0.6227  0.4226
   69MOL   C44342739   1.013   0.549   5.142  0.2036  0.0845  0.7746
   69MOL   C44442740   1.081   0.477   5.025  0.4175  0.9287  0.1510
   69MOL   C44542741   1.190   0.382   5.073  0.0290 -0.5817  0.0195
   69MOL   C44642742   0.251   1.009   5.314 -0.1681  0.4356  0.1831
   69MOL   H44742743   0.400   1.118   5.212  1.3598 -0.9605 -0.5987
   69MOL   H44842744   0.603   1.026   5.225  0.4268 -0.3521 -0.2095
   69MOL   H44942745   0.525   1.004   5.387  2.0871  0.3491  1.6717
   69MOL   H45042746   0.590   0.751   5.316 -0.1424 -0.3514 -3.1857
   69MOL   H45142747   0.710   0.869   5.401  0.8982 -0.7450 -1.3200
   69MOL   H45242748   0.673   0.794   5.104 -0.7931 -1.6989  0.9089
   69MOL   H45342749   0.788   0.906   5.156 -0.7026 -0.5893 -1.4753
   69MOL   H45442750   0.889   0.716   5.296 -1.6220  0.3792  1.5976
   69MOL   H45542751   0.755   0.610   5.234  0.0605  0.2336  0.3789
   69MOL   H45642752   0.845   0.631   5.014  0.4850  2.2869 -0.1978
   69MOL   H45742753   0.966   0.751   5.065  0.3154  0.4029 -0.6294
   69MOL   H45842754   0.954   0.476   5.198 -0.5803  1.9430  2.4607
   69MOL   H45942755   1.085   0.594   5.211 -0.7366  0.2722  1.6439
   69MOL   H46042756   1.002   0.429   4.967  0.8672  0.2168  0.1220
   69MOL   H46142757   1.121   0.549   4.954 -1.1829  0.4296 -1.3010
   69MOL   H46242758   1.216   0.312   4.994  0.0887  0.3353 -0.7805
   69MOL   H46342759   1.157   0.324   5.160  1.6210  0.0543  1.0629
   69MOL   H46442760   1.281   0.435   5.101  0.1147 -1.1922  0.9071
   69MOL   H46542761   0.202   0.911   5.304  0.3244 -0.1426  3.0066
   69MOL   H46642762   0.304   1.002   5.408 -0.1416  0.6117  0.1801
   69MOL   C46742763   0.144   1.120   5.307  0.2045 -0.6370 -0.2813
   69MOL   O46842764   0.107   1.138   5.440 -0.1883 -0.5591  0.0673
   69MOL   C46942765   0.158   1.262   5.504  0.1020  0.8207 -0.1445
   69MOL   C47042766   0.173   1.227   5.653 -0.2904 -0.3155 -0.2482
   69MOL   C47142767   0.214   1.347   5.746 -0.3036 -0.1213 -0.4130
   69MOL   C47242768   0.257   1.307   5.890  0.2986 -0.6352  0.1650
   69MOL   C47342769   0.157   1.226   5.975 -0.3604 -0.5476  0.1912
   69MOL   C47442770   0.216   1.196   6.108 -0.6299  0.0973 -0.6435
   69MOL   C47542771   0.125   1.108   6.201  0.3253  0.1615 -0.2913
   69MOL   C47642772   0.192   1.097   6.342  0.1277  0.7421  0.0712
   69MOL   C47742773   0.019   1.080   5.214 -0.7706 -0.2130  0.2394
   69MOL   H47842774   0.192   1.209   5.266 -0.0534 -0.2213  0.3141
   69MOL   H47942775   0.091   1.344   5.477 -1.3076 -0.2174  0.1211
   69MOL   H48042776   0.254   1.292   5.461  0.6616  1.8490  1.7576
   69MOL   H48142777   0.230   1.134   5.660  0.8267  0.2874 -1.1181
   69MOL   H48242778   0.073   1.195   5.683 -0.2134 -1.6491 -1.3673
   69MOL   H48342779   0.296   1.403   5.701  1.3681 -1.7100  0.5363
   69MOL   H48442780   0.141   1.428   5.745 -1.2207 -0.9578 -1.9252
   69MOL   H48542781   0.342   1.241   5.874 -1.1286 -1.8069 -2.8721
   69MOL   H48642782   0.291   1.384   5.960 -0.4997 -0.1643  0.0422
   69MOL   H48742783   0.070   1.291   5.981  0.5028  0.7054 -0.7076
   69MOL   H48842784   0.130   1.131   5.929  2.8246 -0.9738 -0.9046
   69MOL   H48942785   0.241   1.289   6.159  1.1650 -1.1703  0.8770
   69MOL   H49042786   0.310   1.144   6.092  0.9601  2.1807  1.5215
   69MOL   H49142787   0.023   1.136   6.224  0.1268 -2.5037  2.3252
   69MOL   H49242788   0.121   1.009   6.156  1.3804  0.3559 -0.8392
   69MOL   H49342789   0.199   1.192   6.395 -0.0073  1.2806 -0.8655
   69MOL   H49442790   0.293   1.057   6.332 -0.5308 -0.8167 -0.3394
   69MOL   H49542791   0.133   1.027   6.401 -1.3200  0.5435 -1.5768
   69MOL   H49642792   0.050   1.091   5.110  0.4055  0.7916  0.6862
   69MOL   H49742793   7.765   0.977   5.233 -0.1502 -0.7475 -1.5850
   69MOL   C49842794   7.673   1.180   5.238 -0.0401 -0.0764  0.3056
   69MOL   O49942795   7.542   1.127   5.202 -0.2519  0.4063  0.3595
   69MOL   C50042796   7.485   1.046   5.309  0.1893 -0.2396 -0.3668
   69MOL   C50142797   7.373   0.957   5.250 -0.6721 -0.5918 -0.3255
   69MOL   C50242798   7.428   0.854   5.150  0.1998 -0.3657 -0.3249
   69MOL   C50342799   7.320   0.758   5.091  0.1479 -0.3619  0.4474
   69MOL   C50442800   7.385   0.657   4.989  1.2447 -0.2032 -0.3139
   69MOL   C50542801   7.286   0.540   4.976 -0.3191  0.4329  0.1645
   69MOL   C50642802   7.300   0.459   4.849 -0.1853  0.3553 -0.4679
   69MOL   C50742803   7.441   0.450   4.791 -0.0878  0.2942  0.1740
   69MOL   C50842804   7.688   1.319   5.162  0.7380  0.7174  0.1401
   69MOL   H50942805   7.660   1.208   5.342  1.5977  0.5611  0.3569
   69MOL   H51042806   7.436   1.119   5.373  1.5845  0.8226 -0.4935
   69MOL   H51142807   7.556   0.985   5.365  0.8877  3.2145  2.7131
   69MOL   H51242808   7.293   1.020   5.210 -0.4256 -0.2746 -0.3229
   69MOL   H51342809   7.325   0.906   5.333  0.3195  0.7348  1.0838
   69MOL   H51442810   7.490   0.897   5.072 -0.3410  2.1033  0.5570
   69MOL   H51542811   7.500   0.787   5.196 -0.0025 -2.9987 -3.6543
   69MOL   H51642812   7.272   0.703   5.171 -2.9061 -0.5681 -1.4319
   69MOL   H51742813   7.239   0.816   5.046  0.5570 -0.7761 -0.8577
   69MOL   H51842814   7.388   0.720   4.900 -1.0606  3.4921  2.0666
   69MOL   H51942815   7.483   0.630   5.026  0.3056 -2.1656  0.8235
   69MOL   H52042816   7.183   0.573   4.987 -0.6701 -0.8140  0.7097
   69MOL   H52142817   7.291   0.472   5.061 -1.0335 -0.6843 -0.6782
   69MOL   H52242818   7.258   0.359   4.857  0.6641  0.0839  0.8307
   69MOL   H52342819   7.240   0.505   4.771 -0.5537  1.0429  0.2140
   69MOL   H52442820   7.423   0.405   4.694  0.3492 -0.0671  0.2596
   69MOL   H52542821   7.513   0.391   4.848 -0.8075 -2.0493 -1.2692
   69MOL   H52642822   7.488   0.547   4.777 -1.3572  0.7030 -1.4191
   69MOL   H52742823   7.630   1.390   5.222  0.7767 -0.5587  1.7421
   69MOL   H52842824   0.012   1.357   5.187  0.6971  3.6104 -3.7083
   69MOL   C52942825   7.670   1.319   5.009  0.0450 -0.4334  0.3547
   69MOL   O53042826   7.772   1.234   4.955  0.2152  0.4945  0.5941
   69MOL   C53142827   7.720   1.161   4.842 -0.3515 -0.2890  0.0700
   69MOL   C53242828   0.070   1.123   4.762  0.0003 -0.3198 -0.6518
   69MOL   C53342829   0.146   1.241   4.706 -0.4288 -0.5065  0.7280
   69MOL   C53442830   0.261   1.198   4.618 -0.3805 -0.0520  0.1537
   69MOL   C53542831   0.370   1.295   4.594 -0.1191 -0.0459  0.6658
   69MOL   C53642832   0.479   1.255   4.490 -0.1167 -0.0737 -1.0360
   69MOL   C53742833   0.584   1.360   4.468 -0.1392 -0.0954  0.1902
   69MOL   C53842834   0.690   1.322   4.359  0.4031  0.0983 -0.3934
   69MOL   C53942835   7.663   1.455   4.946  0.0397 -0.2031 -0.0738
   69MOL   H54042836   7.576   1.265   4.995 -0.1732 -0.1830  0.8328
   69MOL   H54142837   7.674   1.067   4.875  0.9181 -1.3357 -1.0653
   69MOL   H54242838   7.644   1.210   4.782  0.6379 -0.6460 -1.4916
   69MOL   H54342839   0.046   1.042   4.693 -1.1544  0.8198 -1.6052
   69MOL   H54442840   0.143   1.068   4.822  0.5489  0.0198 -0.9968
   69MOL   H54542841   0.077   1.307   4.655 -0.1931 -1.1661 -0.4577
   69MOL   H54642842   0.187   1.307   4.782 -1.1426  0.5062  0.2358
   69MOL   H54742843   0.301   1.108   4.664  2.6353  0.9568 -0.3610
   69MOL   H54842844   0.214   1.169   4.524  0.8247  1.2126 -0.8622
   69MOL   H54942845   0.326   1.389   4.562  0.7889  0.1211 -0.1285
   69MOL   H55042846   0.421   1.321   4.687  0.2685 -0.3522  0.5401
   69MOL   H55142847   0.425   1.240   4.396 -1.8283  0.5745 -0.1696
   69MOL   H55242848   0.516   1.155   4.512 -1.8264 -0.4625  0.1179
   69MOL   H55342849   0.538   1.455   4.443  0.4812  0.0541 -0.4082
   69MOL   H55442850   0.633   1.390   4.561 -0.9409 -0.2810  0.6741
   69MOL   H55542851   0.757   1.240   4.386 -0.0691 -0.2013 -0.1366
   69MOL   H55642852   0.750   1.405   4.320 -1.1105  1.8270  0.9005
   69MOL   H55742853   0.638   1.278   4.274  0.9356 -1.5639  0.1108
   69MOL   H55842854   7.760   1.499   4.968 -0.4494  1.1980 -0.6872
   69MOL   H55942855   7.675   1.437   4.839  0.1816 -0.0449 -0.0852
   69MOL   C56042856   7.541   1.539   4.969 -0.1017 -0.5351 -0.2457
   69MOL   O56142857   7.429   1.471   4.911  0.2721  0.0389  0.0094
   69MOL   C56242858   7.318   1.460   5.000 -0.7472  0.2807 -0.1739
   69MOL   C56342859   7.193   1.499   4.911 -0.0134  0.0156  0.2226
   69MOL   C56442860   7.060   1.447   4.963 -0.0654 -0.1783  0.0566
   69MOL   C56542861   7.001   1.527   5.082 -0.4472 -0.1602  1.0968
   69MOL   C56642862   6.940   1.442   5.187 -0.1044 -0.0249  0.3021
   69MOL   C56742863   7.025   1.336   5.257 -0.6250  0.8042 -0.7893
   69MOL   C56842864   6.948   1.244   5.355  0.0861  0.1875 -0.0170
   69MOL   C56942865   7.037   1.130   5.401  0.0684  0.3767 -0.1799
   69MOL   C57042866   7.560   1.679   4.903  0.5883 -0.3583 -0.1644
   69MOL   H57142867   7.536   1.550   5.078  0.7766  0.2722 -0.2816
   69MOL   H57242868   7.330   1.515   5.092  0.1447 -0.1320 -0.0411
   69MOL   H57342869   7.302   1.359   5.039 -1.1648  0.5568  0.3663
   69MOL   H57442870   7.202   1.475   4.805 -0.4268  0.8758 -0.0072
   69MOL   H57542871   7.195   1.607   4.900  0.1237  0.0320  0.3956
   69MOL   H57642872   6.979   1.441   4.891  0.9820 -3.1601 -0.9756
   69MOL   H57742873   7.071   1.341   4.990  2.3540 -0.3470 -1.4429
   69MOL   H57842874   7.080   1.586   5.128  0.9203 -0.9027 -0.2327
   69MOL   H57942875   6.931   1.599   5.039  0.5436 -0.3575 -0.9425
   69MOL   H58042876   6.896   1.501   5.268 -2.0891  2.1908 -2.2902
   69MOL   H58142877   6.855   1.387   5.149 -0.5585  0.6272  0.3535
   69MOL   H58242878   7.092   1.383   5.328  0.1970 -1.2420 -0.1872
   69MOL   H58342879   7.087   1.277   5.190  2.5282  2.8277  0.2491
   69MOL   H58442880   6.920   1.304   5.442  0.3852 -0.6427  0.6705
   69MOL   H58542881   6.859   1.211   5.300 -0.4768  2.8028 -0.7254
   69MOL   H58642882   7.073   1.067   5.320 -2.5976  1.1309 -2.0135
   69MOL   H58742883   6.999   1.053   5.469 -1.3757  1.4481  0.2357
   69MOL   H58842884   7.124   1.168   5.454  0.4492  0.9633 -1.2239
   69MOL   H58942885   7.656   1.721   4.933  0.4922  0.1941 -0.6223
   69MOL   H59042886   7.553   1.663   4.795  4.1893 -1.7339 -0.2359
   69MOL   C59142887   7.462   1.794   4.929  0.6574  0.4023 -0.5887
   69MOL   O59242888   7.500   1.897   4.838  0.4214  0.2458  0.3305
   69MOL   C59342889   7.390   1.980   4.797 -0.5033 -0.8331 -0.3014
   69MOL   C59442890   7.428   2.095   4.719 -0.6126 -0.6060  0.3822
   69MOL   C59542891   7.520   2.192   4.795  0.2988  0.0387  0.4272
   69MOL   C59642892   7.523   2.321   4.715  0.1729 -0.9335 -0.2452
   69MOL   C59742893   7.622   2.431   4.769  0.3102  0.1389  0.1175
   69MOL   C59842894   7.669   2.517   4.661  0.4033  0.6484 -0.5449
   69MOL   C59942895   7.741   2.652   4.707  0.2801 -0.8706 -0.0129
   69MOL   C60042896   0.095   2.619   4.777 -0.4182  0.5337 -0.2135
   69MOL   C60142897   7.477   1.854   5.068 -0.5063  0.2634 -0.6704
   69MOL   H60242898   7.362   1.752   4.916  1.0386 -0.6525 -0.1243
   69MOL   H60342899   7.342   2.003   4.892  2.3873 -3.3805  1.8886
   69MOL   H60442900   7.316   1.929   4.736 -1.2371 -1.7477  1.3094
   69MOL   H60542901   7.338   2.153   4.698 -0.3812 -0.1611  0.6154
   69MOL   H60642902   7.467   2.072   4.620 -0.7931  2.8795 -0.5898
   69MOL   H60742903   7.472   2.211   4.891 -0.5989 -1.4092  0.2781
   69MOL   H60842904   7.622   2.155   4.804  0.7593  1.0842 -0.4398
   69MOL   H60942905   7.541   2.303   4.609 -0.2904  1.5629 -0.7835
   69MOL   H61042906   7.427   2.372   4.720  1.5407  1.7573 -0.0916
   69MOL   H61142907   7.569   2.488   4.845 -0.0418 -1.6135  1.2083
   69MOL   H61242908   7.712   2.390   4.814  0.1497  0.3231  0.6163
   69MOL   H61342909   7.579   2.550   4.610 -0.7476  1.0077  1.6628
   69MOL   H61442910   7.722   2.463   4.583  0.8955 -0.3240  0.4466
   69MOL   H61542911   7.765   2.703   4.614 -1.0153  1.1073  0.7017
   69MOL   H61642912   7.664   2.699   4.768 -1.1113 -3.6476  0.4837
   69MOL   H61742913   0.128   2.709   4.830 -0.5226 -0.3185  1.3429
   69MOL   H61842914   0.164   2.586   4.700  1.1456  0.0029  1.3761
   69MOL   H61942915   0.105   2.540   4.852 -1.1264 -0.4032 -1.0931
   69MOL   H62042916   7.469   1.772   5.139  0.0996  1.1304  0.4248
   69MOL   H62142917   7.577   1.896   5.081 -1.2844  2.0494 -0.2344
   69MOL   H62242918   7.409   1.935   5.093 -2.2234 -1.4116  0.2127
   70MOL     C142919   6.537   1.782   1.349  0.0716  0.1852 -0.0068
   70MOL     O242920   6.647   1.694   1.340  0.5727 -0.0944 -0.4675
   70MOL     C342921   6.692   1.646   1.463  0.0590  0.6142 -0.5113
   70MOL     C442922   6.808   1.549   1.462  1.1377  0.3799  0.0266
   70MOL     C542923   6.837   1.500   1.612  0.6249 -0.6277  0.0481
   70MOL     C642924   6.984   1.449   1.619  0.0154 -1.2054  0.6677
   70MOL     C742925   7.024   1.383   1.753  1.0487  0.0452  0.5584
   70MOL     C842926   7.044   1.479   1.871 -0.2295 -0.1884  0.0844
   70MOL     C942927   7.059   1.409   2.005 -0.2791 -0.2280 -0.4704
   70MOL    C1042928   7.111   1.507   2.110 -0.2663  0.6496  1.1237
   70MOL    C1142929   6.498   1.826   1.211  0.7200 -0.4396 -0.0312
   70MOL    H1242930   6.451   1.733   1.396  0.0436 -1.1043 -1.3640
   70MOL    H1342931   6.609   1.587   1.502  1.1122 -0.6378 -0.0984
   70MOL    H1442932   6.701   1.733   1.528 -1.6770  0.3898  0.0465
   70MOL    H1542933   6.898   1.592   1.418  1.6158 -1.3015 -0.6712
   70MOL    H1642934   6.794   1.466   1.393  2.8815  1.0317 -1.1707
   70MOL    H1742935   6.820   1.583   1.680 -1.5333  0.6084 -1.9307
   70MOL    H1842936   6.756   1.434   1.642 -1.1406  1.0389 -0.9367
   70MOL    H1942937   7.010   1.374   1.545 -1.2139 -2.1737  1.2106
   70MOL    H2042938   7.041   1.541   1.604 -1.4608 -0.3526  0.2666
   70MOL    H2142939   6.952   1.310   1.791  0.9022  1.1975  2.5409
   70MOL    H2242940   7.115   1.325   1.736  0.1050 -1.4856  0.6225
   70MOL    H2342941   6.973   1.561   1.879  0.5872  0.4267  1.1811
   70MOL    H2442942   7.138   1.531   1.850  2.1830 -4.3328  0.0443
   70MOL    H2542943   6.958   1.372   2.017 -1.1216  1.5590 -1.7858
   70MOL    H2642944   7.125   1.323   1.992 -0.2886 -0.1584 -1.0114
   70MOL    H2742945   7.202   1.557   2.078 -0.4184  0.8495  1.0095
   70MOL    H2842946   7.114   1.465   2.211 -1.2331  0.4821  1.0882
   70MOL    H2942947   7.030   1.579   2.105 -1.1644 -0.4122 -0.1013
   70MOL    H3042948   6.587   1.859   1.157 -1.0743  1.5559 -1.8605
   70MOL    H3142949   6.478   1.739   1.148 -0.4067  1.2703 -2.0968
   70MOL    H3242950   6.557   1.871   1.408  0.3693 -0.6192  1.1332
   70MOL    C3342951   6.385   1.939   1.206  0.1809 -0.1638  0.6030
   70MOL    O3442952   6.442   2.065   1.258  0.3326 -0.5422 -0.3707
   70MOL    C3542953   6.456   2.172   1.167  0.1994 -0.1064  0.6397
   70MOL    C3642954   6.464   2.312   1.233  0.5374 -0.4010 -0.1037
   70MOL    C3742955   6.607   2.354   1.288 -0.1636 -0.5326  0.4641
   70MOL    C3842956   6.625   2.502   1.321  0.1635 -0.7133  0.5051
   70MOL    C3942957   6.744   2.539   1.406 -0.6022  0.5285 -0.2750
   70MOL    C4042958   6.765   2.693   1.403 -0.3292 -0.3935 -0.3769
   70MOL    C4142959   6.669   2.780   1.485  0.2110 -0.3038  0.5536
   70MOL    C4242960   6.684   2.757   1.639 -0.7419 -0.7391 -0.2925
   70MOL    C4342961   6.259   1.907   1.295 -0.0352  0.0901 -0.1358
   70MOL    H4442962   6.358   1.942   1.100  0.9124 -2.3097  0.3280
   70MOL    H4542963   6.356   2.162   1.126 -0.4223 -0.5815  2.2248
   70MOL    H4642964   6.536   2.157   1.094 -1.0353 -0.0282 -0.7580
   70MOL    H4742965   6.385   2.320   1.307  2.1354 -1.3640  1.7659
   70MOL    H4842966   6.424   2.379   1.157  1.3986  1.3129  0.9108
   70MOL    H4942967   6.628   2.306   1.384 -2.6344 -0.0849  1.2793
   70MOL    H5042968   6.690   2.336   1.221 -0.2159  1.3304 -0.1204
   70MOL    H5142969   6.615   2.552   1.225  3.0509 -2.1919 -0.6259
   70MOL    H5242970   6.535   2.538   1.371  0.8577 -0.2393  1.4338
   70MOL    H5342971   6.730   2.500   1.507  0.4965 -0.8059 -0.6363
   70MOL    H5442972   6.832   2.492   1.364 -0.7543 -2.2667  2.3689
   70MOL    H5542973   6.768   2.733   1.301  1.8014  0.2741 -0.0913
   70MOL    H5642974   6.867   2.702   1.442 -0.8458 -2.0711  1.4228
   70MOL    H5742975   6.703   2.882   1.465  2.9887 -1.2978  0.0259
   70MOL    H5842976   6.566   2.760   1.456  0.2996  0.0848 -0.0246
   70MOL    H5942977   6.779   2.805   1.663 -0.6951 -0.1104 -1.7191
   70MOL    H6042978   6.684   2.654   1.674  0.6937 -0.9554 -0.9046
   70MOL    H6142979   6.610   2.814   1.696  1.0621  0.6163  0.7540
   70MOL    H6242980   6.237   1.802   1.278  1.7796 -1.0045  3.7235
   70MOL    H6342981   6.302   1.916   1.395 -1.7644  0.2796  0.6058
   70MOL    C6442982   6.133   1.990   1.277  0.9294 -0.0827 -0.5009
   70MOL    O6542983   6.045   1.954   1.380 -0.5158  0.4562  0.6907
   70MOL    C6642984   6.078   1.991   1.517  0.3132 -0.5590 -0.3741
   70MOL    C6742985   5.974   1.937   1.610  0.6338  0.4975 -1.1701
   70MOL    C6842986   6.002   1.959   1.764  0.4048 -0.0719 -0.2239
   70MOL    C6942987   5.884   1.912   1.858  0.2200  0.2510  0.0309
   70MOL    C7042988   5.882   1.753   1.875  0.5677 -0.1464 -0.5816
   70MOL    C7142989   5.771   1.682   1.963 -0.2906 -0.2527  0.1734
   70MOL    C7242990   5.796   1.530   1.959 -0.3447 -0.2000 -0.3092
   70MOL    C7342991   5.680   1.456   2.024  0.1551 -0.0895  0.0878
   70MOL    C7442992   6.069   1.965   1.139 -0.1902  0.0664 -0.1993
   70MOL    H7542993   6.164   2.095   1.283  1.3501 -0.1087 -1.9760
   70MOL    H7642994   6.064   2.097   1.535  1.8717 -0.6373  1.3748
   70MOL    H7742995   6.178   1.959   1.546  1.1453  1.2921 -1.1288
   70MOL    H7842996   5.959   1.830   1.595 -2.1050  0.8392 -1.1428
   70MOL    H7942997   5.877   1.975   1.578  0.4065 -0.9599 -2.2680
   70MOL    H8042998   6.094   1.907   1.789  0.4062  0.6861  1.4349
   70MOL    H8142999   6.019   2.065   1.783 -2.6747  0.6142 -1.0735
   70MOL    H8243000   5.890   1.955   1.958 -1.4294 -1.7859  1.0663
   70MOL    H8343001   5.790   1.942   1.813  0.9609  0.1061 -1.6268
   70MOL    H8443002   5.888   1.706   1.777  2.8738 -1.3539  0.0934
   70MOL    H8543003   5.971   1.726   1.932  1.1331  0.8226 -1.0002
   70MOL    H8643004   5.676   1.702   1.913  0.9025  0.0468 -2.0334
   70MOL    H8743005   5.759   1.704   2.069 -0.6969  0.7727 -0.0851
   70MOL    H8843006   5.822   1.490   1.861  1.5518  1.2777 -0.4338
   70MOL    H8943007   5.885   1.513   2.019 -0.0424  2.5868  0.0805
   70MOL    H9043008   5.721   1.370   2.076 -1.1918 -1.4734 -1.0666
   70MOL    H9143009   5.610   1.422   1.948 -0.6806 -0.0516  0.8324
   70MOL    H9243010   5.630   1.518   2.098 -0.0202  0.3535 -0.3928
   70MOL    H9343011   6.142   1.975   1.059  1.3355  1.2374  1.3150
   70MOL    H9443012   6.039   1.860   1.137 -0.4540  0.1439 -0.4256
   70MOL    C9543013   5.948   2.043   1.096 -0.2237  0.8281  0.1977
   70MOL    O9643014   5.988   2.174   1.065 -0.5675 -0.3408  0.4624
   70MOL    C9743015   5.956   2.227   0.932  0.9394  0.3098  0.2481
   70MOL    C9843016   6.016   2.361   0.909 -0.0466  0.2571  0.0205
   70MOL    C9943017   6.164   2.339   0.884 -0.7393  0.0589 -0.1199
   70MOL   C10043018   6.210   2.294   0.742  0.3471  0.1808 -0.1016
   70MOL   C10143019   6.351   2.240   0.719 -0.4359  0.2905 -0.6222
   70MOL   C10243020   6.380   2.105   0.790 -0.7286 -0.7642  0.6766
   70MOL   C10343021   6.316   1.980   0.728 -0.6487 -0.8770  0.5330
   70MOL   C10443022   6.340   1.860   0.811 -0.0191 -0.0088  0.0858
   70MOL   C10543023   5.840   2.057   1.202 -0.0971 -0.4552  0.2621
   70MOL   H10643024   5.917   1.998   1.002  0.3055  1.9695 -0.5304
   70MOL   H10743025   5.849   2.245   0.922  0.9173  0.8504  1.4281
   70MOL   H10843026   5.979   2.143   0.866 -2.6096 -0.5967  0.0275
   70MOL   H10943027   5.998   2.422   0.998  0.3211  0.1589  0.1653
   70MOL   H11043028   5.966   2.417   0.831 -1.1552 -2.1972 -1.0900
   70MOL   H11143029   6.212   2.436   0.890  1.2628 -0.8873 -0.2140
   70MOL   H11243030   6.211   2.283   0.965 -0.0701  1.3552  0.4036
   70MOL   H11343031   6.148   2.209   0.714 -1.5779  0.9617  1.6854
   70MOL   H11443032   6.174   2.367   0.669  0.6669 -1.6593 -2.1496
   70MOL   H11543033   6.368   2.233   0.611 -0.6938  0.7088 -0.6915
   70MOL   H11643034   6.421   2.319   0.745 -0.8788  0.3424  0.4424
   70MOL   H11743035   6.369   2.107   0.898  1.4857  2.1229  0.9052
   70MOL   H11843036   6.488   2.096   0.788 -0.5382  0.9616  2.0952
   70MOL   H11943037   6.207   1.985   0.718 -0.4759  3.0334 -0.4303
   70MOL   H12043038   6.348   1.970   0.624  1.4568  0.9803  0.9656
   70MOL   H12143039   6.270   1.856   0.895 -0.0104  1.5010  0.1790
   70MOL   H12243040   6.441   1.838   0.845  0.4351  2.6232  0.5378
   70MOL   H12343041   6.313   1.773   0.752 -1.6766  0.9563 -0.6247
   70MOL   H12443042   5.889   2.077   1.297 -1.3017 -1.1672  1.0369
   70MOL   H12543043   5.773   2.139   1.179 -0.4344 -0.0723  2.4971
   70MOL   C12643044   5.758   1.927   1.205  0.0180 -0.2520  0.4397
   70MOL   O12743045   5.683   1.918   1.087 -0.8454  0.1152 -0.3540
   70MOL   C12843046   5.628   1.797   1.049  0.7285 -0.0344 -0.7261
   70MOL   C12943047   5.570   1.823   0.911 -0.0483 -0.0225  0.3700
   70MOL   C13043048   5.525   1.692   0.835  0.2126  0.5492  0.1581
   70MOL   C13143049   5.472   1.702   0.688  0.7208 -0.0195  0.4439
   70MOL   C13243050   5.456   1.568   0.622 -0.2699  0.8198 -0.3123
   70MOL   C13343051   5.348   1.567   0.507 -0.3096  0.6236  0.0006
   70MOL   C13443052   5.206   1.531   0.537  0.2837 -0.0827  0.3793
   70MOL   C13543053   5.128   1.534   0.399  0.2408  0.3193  0.3141
   70MOL   C13643054   5.672   1.903   1.337 -0.0552  1.2610 -0.5476
   70MOL   H13743055   5.823   1.841   1.189 -0.3147 -0.5945  0.8956
   70MOL   H13843056   5.548   1.772   1.119  0.9648  1.1101 -0.0406
   70MOL   H13943057   5.690   1.708   1.061 -2.0486 -1.8948  0.6121
   70MOL   H14043058   5.648   1.869   0.850  0.7053  0.1300  1.4286
   70MOL   H14143059   5.483   1.887   0.922 -0.8632 -1.2873  1.3885
   70MOL   H14243060   5.605   1.618   0.835  0.5085  0.8472  1.3816
   70MOL   H14343061   5.440   1.658   0.893  0.1964 -0.2116 -0.3085
   70MOL   H14443062   5.373   1.747   0.698  1.6023  2.0697 -0.0526
   70MOL   H14543063   5.546   1.767   0.641  0.7957 -0.9579 -0.7435
   70MOL   H14643064   5.555   1.538   0.588  0.1994  0.9912  0.8798
   70MOL   H14743065   5.428   1.479   0.679  0.5416  0.9151  0.2407
   70MOL   H14843066   5.390   1.491   0.441  1.2049  2.8697 -1.7111
   70MOL   H14943067   5.361   1.667   0.466  1.6285  0.6564  0.6370
   70MOL   H15043068   5.192   1.436   0.588 -2.8142  1.0895  1.8969
   70MOL   H15143069   5.158   1.596   0.611 -0.1905  1.3028 -1.1010
   70MOL   H15243070   5.135   1.635   0.358  1.1542  1.0662  2.2246
   70MOL   H15343071   5.025   1.505   0.419  0.1723  0.3014 -0.0484
   70MOL   H15443072   5.167   1.451   0.340  3.7468  0.4869  2.2699
   70MOL   H15543073   5.618   1.811   1.315  2.9347 -0.5862 -0.3739
   70MOL   H15643074   5.741   1.873   1.416 -0.3739  2.5541  0.2395
   70MOL   C15743075   5.575   2.023   1.378 -0.2677  0.3038  0.1965
   70MOL   O15843076   5.667   2.134   1.402  0.3678 -0.6961 -0.1263
   70MOL   C15943077   5.609   2.256   1.427 -0.2981  0.0797 -0.0076
   70MOL   C16043078   5.710   2.369   1.435 -0.1022 -0.2328  0.5902
   70MOL   C16143079   5.810   2.390   1.324 -0.5048 -0.1544  0.4119
   70MOL   C16243080   5.894   2.517   1.340 -0.0858  0.4421  0.4184
   70MOL   C16343081   6.040   2.511   1.295  0.9460  0.0974  0.7673
   70MOL   C16443082   6.107   2.645   1.295 -0.0554  0.0298 -0.8772
   70MOL   C16543083   6.257   2.632   1.276  0.1914 -0.4668  0.2145
   70MOL   C16643084   6.322   2.765   1.237  0.0463 -0.2928 -0.4140
   70MOL   C16743085   5.501   1.977   1.505 -0.1740  0.8607  0.2051
   70MOL   H16843086   5.508   2.051   1.296 -0.2942 -0.3487 -0.0069
   70MOL   H16943087   5.563   2.250   1.525  0.3524  1.0222  0.3675
   70MOL   H17043088   5.531   2.291   1.360  0.1509  1.8905  0.3980
   70MOL   H17143089   5.774   2.352   1.521  1.4579  0.5382 -0.4050
   70MOL   H17243090   5.656   2.461   1.457 -2.4836 -1.7933  1.5214
   70MOL   H17343091   5.870   2.299   1.330 -0.8838 -0.4632 -0.3860
   70MOL   H17443092   5.767   2.382   1.224 -0.5159 -1.1726  0.4938
   70MOL   H17543093   5.851   2.591   1.273  1.1945  1.8713  1.1374
   70MOL   H17643094   5.881   2.553   1.442 -1.7988  0.3289  0.2390
   70MOL   H17743095   6.088   2.441   1.364  1.8096 -1.0483 -0.9353
   70MOL   H17843096   6.039   2.476   1.192  1.6542 -2.2103  1.4913
   70MOL   H17943097   6.086   2.702   1.385  0.7075 -1.9711  0.6059
   70MOL   H18043098   6.061   2.693   1.209 -0.8717 -0.1224 -0.5249
   70MOL   H18143099   6.300   2.589   1.366  1.0468 -0.2256 -0.0751
   70MOL   H18243100   6.264   2.559   1.194 -1.0428 -0.9084  0.4830
   70MOL   H18343101   6.264   2.822   1.164  0.3787 -0.0471 -0.4920
   70MOL   H18443102   6.421   2.740   1.198 -0.7197 -3.2474 -0.5206
   70MOL   H18543103   6.336   2.829   1.324 -1.8353 -1.3387  0.6702
   70MOL   H18643104   5.577   1.932   1.568 -0.6910  0.1587  0.3348
   70MOL   H18743105   5.464   2.061   1.563  2.9784  2.2153  0.3452
   70MOL   C18843106   5.380   1.876   1.480 -0.0231  0.1722 -0.5020
   70MOL   O18943107   5.293   1.945   1.389 -1.1413  0.6337 -0.0153
   70MOL   C19043108   5.198   2.038   1.449 -0.6512 -0.5483 -0.1703
   70MOL   C19143109   5.133   2.129   1.347  0.7348  0.0578 -0.2561
   70MOL   C19243110   5.245   2.189   1.258 -0.2191  0.1011  0.6307
   70MOL   C19343111   5.200   2.278   1.141  0.5247  0.8687 -0.1259
   70MOL   C19443112   5.307   2.341   1.043 -0.0058  0.1249  0.5860
   70MOL   C19543113   5.400   2.450   1.113  0.0441 -0.0628  0.3315
   70MOL   C19643114   5.534   2.469   1.045  0.0210  0.8307 -0.2757
   70MOL   C19743115   5.624   2.587   1.104  0.1582 -0.2557  0.0707
   70MOL   C19843116   5.324   1.818   1.614 -0.0345 -0.5168 -0.7435
   70MOL   H19943117   5.421   1.798   1.416  1.0605  1.6710 -1.6937
   70MOL   H20043118   5.128   1.975   1.503  0.9941  0.3082  3.0304
   70MOL   H20143119   5.242   2.111   1.516 -2.5150  1.2292 -0.7949
   70MOL   H20243120   5.076   2.204   1.400  1.5824  0.3122  0.3016
   70MOL   H20343121   5.061   2.073   1.287  0.8149 -0.9669  0.5918
   70MOL   H20443122   5.312   2.238   1.328 -0.6746  0.3415  0.8996
   70MOL   H20543123   5.301   2.104   1.216 -0.5602  0.7669 -1.2318
   70MOL   H20643124   5.127   2.226   1.079 -0.3026 -0.2167  1.7337
   70MOL   H20743125   5.129   2.350   1.182 -0.1843  0.5470 -0.7706
   70MOL   H20843126   5.371   2.263   1.001 -0.1421  0.0399  0.5383
   70MOL   H20943127   5.269   2.399   0.959  0.1904  0.5036  0.7585
   70MOL   H21043128   5.434   2.409   1.208  0.0469 -4.0380 -1.2685
   70MOL   H21143129   5.341   2.539   1.137 -0.8672 -0.3865 -0.6566
   70MOL   H21243130   5.596   2.380   1.042  0.5290  1.2310 -2.8555
   70MOL   H21343131   5.527   2.491   0.939  1.5519 -1.3744 -0.8687
   70MOL   H21443132   5.646   2.577   1.210 -1.8955  0.0365  0.5456
   70MOL   H21543133   5.577   2.685   1.112  0.0315 -0.3718  0.8568
   70MOL   H21643134   5.716   2.586   1.045  0.0961  1.2652 -0.0714
   70MOL   H21743135   5.302   1.911   1.666  2.5206 -0.2145 -0.1274
   70MOL   H21843136   5.235   1.755   1.606  0.1046 -0.7590 -0.3966
   70MOL   C21943137   5.433   1.738   1.692  0.1727  0.2404  0.3680
   70MOL   O22043138   5.459   1.625   1.612 -0.3293  0.3259  0.3594
   70MOL   C22143139   5.595   1.595   1.589  0.5548 -0.2134 -0.1010
   70MOL   C22243140   5.612   1.471   1.495 -0.1425  0.5052 -0.3388
   70MOL   C22343141   5.598   1.498   1.349 -0.7068 -0.6040 -0.1899
   70MOL   C22443142   5.612   1.361   1.278 -0.1280  0.7851 -0.2697
   70MOL   C22543143   5.604   1.357   1.130  0.4256  0.2557  0.0254
   70MOL   C22643144   5.642   1.225   1.065  0.1506 -0.4263 -0.1860
   70MOL   C22743145   5.665   1.241   0.912 -0.3059  0.1655  0.5268
   70MOL   C22843146   5.700   1.105   0.843  0.1553  0.1419 -0.3724
   70MOL   C22943147   5.378   1.672   1.821 -0.5735 -0.1240 -0.0955
   70MOL   H23043148   5.517   1.798   1.728  0.3690 -0.0848  0.4460
   70MOL   H23143149   5.640   1.569   1.684  2.4594 -2.0041 -1.4742
   70MOL   H23243150   5.645   1.686   1.555 -2.8865  2.0917  0.7117
   70MOL   H23343151   5.549   1.386   1.521  0.4310 -0.0243 -0.6894
   70MOL   H23443152   5.712   1.430   1.511 -0.3087  1.6620  4.8841
   70MOL   H23543153   5.501   1.544   1.331 -0.9551 -0.2295  2.0262
   70MOL   H23643154   5.669   1.574   1.317 -3.0792  2.1096  0.8681
   70MOL   H23743155   5.705   1.316   1.313 -0.0080  0.5695 -0.8515
   70MOL   H23843156   5.539   1.290   1.317 -1.4971 -0.1652 -4.3085
   70MOL   H23943157   5.501   1.360   1.095 -0.4711 -0.3931  2.5136
   70MOL   H24043158   5.664   1.440   1.091  2.4762 -1.5077 -0.6655
   70MOL   H24143159   5.562   1.155   1.089  0.4860 -0.5090  0.7146
   70MOL   H24243160   5.736   1.190   1.107  0.7491 -0.5550 -1.5962
   70MOL   H24343161   5.568   1.278   0.878 -0.9633 -2.9393 -1.2057
   70MOL   H24443162   5.733   1.320   0.881 -0.9308  0.8159  0.8145
   70MOL   H24543163   5.670   1.117   0.739  1.1255  2.6952 -0.4079
   70MOL   H24643164   5.646   1.015   0.870  0.6497 -0.8148 -2.4489
   70MOL   H24743165   5.808   1.092   0.854 -0.2030 -2.2691  0.5660
   70MOL   H24843166   5.291   1.618   1.784 -1.6531  0.9858  0.7847
   70MOL   H24943167   5.452   1.605   1.863 -0.2039  0.8418  0.8395
   70MOL   C25043168   5.334   1.770   1.938  0.3509 -1.0591 -0.2788
   70MOL   O25143169   5.450   1.843   1.978  0.5718 -0.1379  0.0282
   70MOL   C25243170   5.424   1.965   2.053 -0.2410 -0.0589  0.2660
   70MOL   C25343171   5.525   2.061   2.010  0.3427 -0.3004  0.7873
   70MOL   C25443172   5.503   2.143   1.881 -0.4670 -0.6223  0.0889
   70MOL   C25543173   5.591   2.270   1.860 -0.2578 -0.2413 -0.0450
   70MOL   C25643174   5.736   2.244   1.813  0.3010 -0.0144 -0.1640
   70MOL   C25743175   5.808   2.374   1.813  0.4640 -0.5990 -0.1401
   70MOL   C25843176   5.951   2.356   1.754 -0.6428  0.6559  0.2945
   70MOL   C25943177   6.028   2.485   1.753 -0.8288  0.0959  0.1206
   70MOL   C26043178   5.270   1.699   2.062  0.5853 -0.4625  0.3347
   70MOL   H26143179   5.267   1.841   1.891 -2.6355 -2.9166  1.0580
   70MOL   H26243180   5.423   1.942   2.160 -0.2460 -1.5931 -0.0636
   70MOL   H26343181   5.323   2.004   2.037 -0.7860 -1.2989  0.6338
   70MOL   H26443182   5.626   2.019   2.016  0.8680  0.9241  0.8280
   70MOL   H26543183   5.535   2.133   2.092  0.7331 -2.0710  2.3436
   70MOL   H26643184   5.517   2.076   1.796  0.0562 -1.1440  0.5784
   70MOL   H26743185   5.404   2.187   1.876 -0.4939 -0.8072 -1.0914
   70MOL   H26843186   5.539   2.322   1.779  1.6428  4.0001  1.3348
   70MOL   H26943187   5.581   2.337   1.946  0.1898  1.7747 -1.5316
   70MOL   H27043188   5.782   2.185   1.892  0.2026  1.9769  1.4398
   70MOL   H27143189   5.734   2.194   1.717 -1.9557  0.6139 -0.4799
   70MOL   H27243190   5.795   2.429   1.906 -1.8722 -1.2287 -0.0583
   70MOL   H27343191   5.742   2.436   1.753 -0.5118 -1.2076  0.2908
   70MOL   H27443192   5.987   2.278   1.820 -0.0853 -0.0226 -0.7866
   70MOL   H27543193   5.937   2.312   1.655  1.2139 -2.4484  1.3573
   70MOL   H27643194   5.974   2.562   1.699 -0.9254 -1.1076 -1.5495
   70MOL   H27743195   6.128   2.480   1.709 -2.1916 -0.0955 -3.0783
   70MOL   H27843196   6.038   2.503   1.860 -3.2435 -4.5086  1.2491
   70MOL   H27943197   5.348   1.642   2.111  2.4831  1.5049 -0.3460
   70MOL   H28043198   5.253   1.775   2.138  0.1125 -0.1386 -0.0884
   70MOL   C28143199   5.143   1.611   2.038  0.1844 -0.0508  0.1970
   70MOL   O28243200   5.165   1.485   1.969 -0.1300 -0.6127 -0.0815
   70MOL   C28343201   5.224   1.385   2.054  0.0165  1.2266 -0.8836
   70MOL   C28443202   5.207   1.246   1.996 -0.4281 -0.3930 -0.3733
   70MOL   C28543203   5.227   1.239   1.840 -0.1102  0.0267 -0.6715
   70MOL   C28643204   5.106   1.260   1.756 -0.1362 -0.0510 -0.3149
   70MOL   C28743205   5.121   1.274   1.610 -0.0407 -0.6491  0.1978
   70MOL   C28843206   5.150   1.416   1.567 -0.0316  0.1578  1.2403
   70MOL   C28943207   5.211   1.426   1.422 -0.3747  0.2096  0.0245
   70MOL   C29043208   5.108   1.402   1.307  0.6324 -0.3879 -0.2603
   70MOL   C29143209   5.025   1.678   1.966 -0.3429 -0.2263 -0.1491
   70MOL   H29243210   5.100   1.588   2.135  2.8696 -0.9417  1.2251
   70MOL   H29343211   5.196   1.387   2.159 -0.1593  0.1993 -0.9038
   70MOL   H29443212   5.330   1.409   2.043  0.7471 -1.2812  0.3530
   70MOL   H29543213   5.111   1.205   2.027  0.4705 -2.3681 -0.1304
   70MOL   H29643214   5.283   1.179   2.037  0.3144 -0.5820 -2.0081
   70MOL   H29743215   5.302   1.314   1.816  1.2853 -0.6451  1.4651
   70MOL   H29843216   5.282   1.155   1.798 -0.3857 -1.1550  1.2856
   70MOL   H29943217   5.033   1.180   1.770 -0.1166  0.1404  0.9521
   70MOL   H30043218   5.061   1.355   1.784 -1.0108 -0.4933 -0.2113
   70MOL   H30143219   5.199   1.207   1.574 -0.1012 -0.5385 -0.1342
   70MOL   H30243220   5.021   1.255   1.572 -0.5927  0.0365  1.2683
   70MOL   H30343221   5.223   1.453   1.639  0.7092  1.0597  0.0537
   70MOL   H30443222   5.066   1.486   1.570  1.0233  1.6267 -1.8436
   70MOL   H30543223   5.244   1.529   1.406 -1.3366  0.1978 -2.1820
   70MOL   H30643224   5.298   1.364   1.402 -0.7445 -0.1550 -0.4646
   70MOL   H30743225   5.135   1.445   1.211  2.4684 -0.8325  0.0291
   70MOL   H30843226   5.013   1.438   1.346  0.5014 -1.3488  0.3252
   70MOL   H30943227   5.088   1.296   1.293  0.2941 -0.3000 -0.4429
   70MOL   H31043228   5.004   1.777   2.007  0.6585  0.7080 -1.8240
   70MOL   H31143229   5.063   1.696   1.865  1.6436  0.2553  0.6683
   70MOL   C31243230   4.894   1.594   1.966  0.3695  0.0415 -0.5654
   70MOL   O31343231   4.786   1.655   1.896  0.0620  0.2039  0.0559
   70MOL   C31443232   4.802   1.656   1.757  0.1364  0.6021 -0.0844
   70MOL   C31543233   4.674   1.679   1.677  0.1636  0.1781  0.5866
   70MOL   C31643234   4.700   1.690   1.525 -0.8153 -0.3534 -0.6670
   70MOL   C31743235   4.720   1.553   1.458  0.8676 -0.2443  0.5832
   70MOL   C31843236   4.754   1.554   1.309 -0.0029 -0.4692 -0.2386
   70MOL   C31943237   4.742   1.422   1.239  0.0582  0.3198  0.5148
   70MOL   C32043238   4.799   1.435   1.092  0.0505 -0.8322  0.2333
   70MOL   C32143239   4.802   1.301   1.035 -0.1984  0.3850 -0.2866
   70MOL   C32243240   4.839   1.556   2.108 -0.8791  0.4271 -0.4304
   70MOL   H32343241   4.909   1.497   1.918  1.2790  0.7471 -1.7167
   70MOL   H32443242   4.839   1.561   1.719  1.0536  0.8796  0.0931
   70MOL   H32543243   4.870   1.739   1.736  1.0815  0.0036  0.5470
   70MOL   H32643244   4.615   1.759   1.721  1.0736  1.3355 -0.2999
   70MOL   H32743245   4.606   1.594   1.687 -0.2632  0.3342 -0.8409
   70MOL   H32843246   4.613   1.738   1.479 -0.0254  1.6286 -0.1415
   70MOL   H32943247   4.785   1.757   1.514  0.0309 -1.4309 -0.7495
   70MOL   H33043248   4.794   1.488   1.505 -0.3310 -0.9411  1.5466
   70MOL   H33143249   4.623   1.506   1.448  0.1900  1.0154  1.0930
   70MOL   H33243250   4.683   1.616   1.254 -1.6449 -1.6085  0.5583
   70MOL   H33343251   4.857   1.590   1.299 -0.4685  0.4352 -1.9763
   70MOL   H33443252   4.635   1.407   1.225  0.5533 -0.0436 -3.4523
   70MOL   H33543253   4.780   1.341   1.302 -0.0384  0.4262  0.7091
   70MOL   H33643254   4.737   1.498   1.029 -1.3136 -0.7913  1.5910
   70MOL   H33743255   4.902   1.473   1.091  0.1122 -0.9872  0.5490
   70MOL   H33843256   4.840   1.293   0.933  1.3535  1.5634  0.1750
   70MOL   H33943257   4.698   1.270   1.029  0.3703 -1.5449 -0.6166
   70MOL   H34043258   4.869   1.240   1.097 -0.5720  0.7037  0.4388
   70MOL   H34143259   4.763   1.481   2.085  0.2134 -0.4058 -1.3453
   70MOL   H34243260   4.913   1.506   2.170 -0.7349  1.4553  0.2367
   70MOL   C34343261   4.777   1.666   2.193  0.5795 -0.2043 -0.1260
   70MOL   O34443262   4.885   1.747   2.220 -0.4752  0.1603  0.0113
   70MOL   C34543263   4.843   1.871   2.274  0.2642 -0.1243 -0.1109
   70MOL   C34643264   4.961   1.961   2.277  0.1702  0.6928 -0.2961
   70MOL   C34743265   5.075   1.904   2.363  0.3374  0.8768 -0.4792
   70MOL   C34843266   5.200   1.994   2.365 -0.1370 -0.5205  0.2314
   70MOL   C34943267   5.334   1.933   2.418  0.2590 -0.4541 -0.3166
   70MOL   C35043268   5.456   2.023   2.425 -0.1925  0.4546  0.4058
   70MOL   C35143269   5.456   2.110   2.548 -0.9863  0.2480  0.4918
   70MOL   C35243270   5.576   2.201   2.570  0.4353  0.4476 -0.1824
   70MOL   C35343271   4.687   1.614   2.308 -0.5744 -0.4642 -0.0373
   70MOL   H35443272   4.709   1.715   2.123  0.9182  0.6261  0.1116
   70MOL   H35543273   4.809   1.851   2.376  0.2802 -0.2161 -0.1241
   70MOL   H35643274   4.760   1.904   2.213  0.5620 -0.1884 -0.5504
   70MOL   H35743275   4.928   2.049   2.332 -0.2714 -0.0267  0.6073
   70MOL   H35843276   4.991   1.985   2.175 -0.1655  2.3470 -0.0239
   70MOL   H35943277   5.041   1.899   2.467  1.0570  0.7973 -0.2481
   70MOL   H36043278   5.098   1.806   2.322 -1.1264  0.4080 -0.2261
   70MOL   H36143279   5.202   2.040   2.266 -0.4139  2.8810  1.7312
   70MOL   H36243280   5.190   2.086   2.422  2.3331 -0.9059  1.3539
   70MOL   H36343281   5.315   1.896   2.519  1.5057  1.8334  0.7915
   70MOL   H36443282   5.360   1.844   2.361  1.9602 -1.0403  1.3026
   70MOL   H36543283   5.474   2.078   2.332 -0.3831  0.9986  0.6904
   70MOL   H36643284   5.548   1.965   2.429  0.1137  0.5342 -3.1514
   70MOL   H36743285   5.366   2.171   2.538 -0.7689  0.4623 -0.2454
   70MOL   H36843286   5.460   2.054   2.641  0.9591 -1.7487 -0.7261
   70MOL   H36943287   5.586   2.236   2.673  0.6743  3.1876 -1.1179
   70MOL   H37043288   5.577   2.285   2.501  0.7112  0.0317 -0.6860
   70MOL   H37143289   5.668   2.144   2.556  0.5702  0.9805 -1.5038
   70MOL   H37243290   4.652   1.706   2.356  5.0867  0.6635  2.4184
   70MOL   H37343291   4.598   1.567   2.267 -1.1793  0.2399  0.4556
   70MOL   C37443292   4.754   1.514   2.410 -1.0871 -0.2297 -0.2082
   70MOL   O37543293   4.664   1.474   2.518  0.1458 -0.3551 -0.2243
   70MOL   C37643294   4.552   1.404   2.467 -0.3658 -0.4136 -0.5603
   70MOL   C37743295   4.464   1.374   2.589  0.3706 -0.8980  0.7415
   70MOL   C37843296   4.417   1.498   2.668 -0.1412  0.4050  0.7611
   70MOL   C37943297   4.301   1.468   2.767  0.4657  0.5750 -0.4462
   70MOL   C38043298   4.214   1.581   2.825 -0.3141  0.5179 -0.2296
   70MOL   C38143299   4.137   1.546   2.954 -0.3504 -0.1030  0.3010
   70MOL   C38243300   4.045   1.662   3.004  0.1060 -0.5600  0.4459
   70MOL   C38343301   3.920   1.680   2.918  0.5147  0.5760  0.0363
   70MOL   C38443302   4.883   1.569   2.470  0.2002  0.1298 -0.8088
   70MOL   H38543303   4.778   1.423   2.355  0.4744  0.8517 -1.3802
   70MOL   H38643304   4.587   1.311   2.421  2.2044  0.7559 -1.0697
   70MOL   H38743305   4.487   1.460   2.400 -1.9993 -0.6342  0.7949
   70MOL   H38843306   4.530   1.313   2.650  2.0110  0.1765  0.0748
   70MOL   H38943307   4.384   1.307   2.557  0.0048  0.0736 -0.4125
   70MOL   H39043308   4.502   1.548   2.714  0.8003  0.3293 -0.8471
   70MOL   H39143309   4.383   1.563   2.587 -0.1857 -2.9690 -2.0145
   70MOL   H39243310   4.232   1.395   2.725  1.3146 -0.0128 -0.8306
   70MOL   H39343311   4.336   1.408   2.851 -1.0560  1.5105  0.8853
   70MOL   H39443312   4.276   1.669   2.843 -1.7796  1.6051 -0.2969
   70MOL   H39543313   4.143   1.610   2.747 -0.7002 -3.6579 -1.5449
   70MOL   H39643314   4.198   1.518   3.039  0.3209  0.9128  0.1603
   70MOL   H39743315   4.068   1.464   2.936 -2.5162  2.0731 -1.8432
   70MOL   H39843316   4.011   1.652   3.107  1.1228  2.1234  1.0853
   70MOL   H39943317   4.106   1.752   3.012 -2.1958  1.1743 -0.9537
   70MOL   H40043318   3.934   1.716   2.816  1.4530 -0.2209 -0.1083
   70MOL   H40143319   3.851   1.756   2.956  0.6837 -0.2200  1.9493
   70MOL   H40243320   3.867   1.586   2.903  0.4454  0.0413  3.2493
   70MOL   H40343321   4.965   1.584   2.400  1.5933  0.9715  0.9728
   70MOL   H40443322   4.850   1.662   2.516 -0.2674 -0.6760  0.5346
   70MOL   C40543323   4.942   1.486   2.586 -0.3374 -0.1365  0.1846
   70MOL   O40643324   5.053   1.563   2.636 -0.6670 -0.2738 -0.2377
   70MOL   C40743325   5.012   1.662   2.737  0.3751  0.3052  0.0432
   70MOL   C40843326   5.135   1.699   2.814  0.1280 -0.0883  1.1497
   70MOL   C40943327   5.094   1.789   2.933  0.2399 -0.2679  0.0375
   70MOL   C41043328   5.212   1.859   3.006 -0.1096  0.9106  0.0734
   70MOL   C41143329   5.170   1.953   3.116 -0.3734 -0.0514 -0.2641
   70MOL   C41243330   5.161   1.891   3.249  0.1870 -0.3212  0.0461
   70MOL   C41343331   5.096   1.971   3.360  0.8333 -0.0518  0.5868
   70MOL   C41443332   5.063   1.903   3.489 -0.2962  0.3911 -0.1442
   70MOL   C41543333   4.992   1.348   2.538  0.2787  0.5057 -0.5791
   70MOL   H41643334   4.856   1.472   2.650  0.0353  0.6736  0.8800
   70MOL   H41743335   4.933   1.628   2.805  0.9015 -0.4594  0.2759
   70MOL   H41843336   4.974   1.750   2.685 -0.3612  0.6343  1.1116
   70MOL   H41943337   5.200   1.738   2.736 -1.2658  2.7178  1.3232
   70MOL   H42043338   5.175   1.607   2.856  1.4646 -1.0416 -2.0178
   70MOL   H42143339   5.038   1.873   2.889  4.3669  1.4020 -2.2786
   70MOL   H42243340   5.040   1.730   3.006 -1.4383 -2.2096 -2.6662
   70MOL   H42343341   5.289   1.792   3.044 -1.3619  0.4396  1.8922
   70MOL   H42443342   5.260   1.930   2.938  1.2010 -0.7481 -0.7667
   70MOL   H42543343   5.230   2.044   3.121 -3.0398  1.6716  2.1382
   70MOL   H42643344   5.068   1.982   3.088 -0.2500 -0.3490 -1.0340
   70MOL   H42743345   5.259   1.865   3.288  0.7737 -2.3293 -2.5568
   70MOL   H42843346   5.102   1.799   3.245  0.5254 -0.5896  1.0641
   70MOL   H42943347   5.155   2.058   3.389  0.2568  0.6696 -0.3469
   70MOL   H43043348   5.005   2.021   3.326  0.8796  0.6346  1.4719
   70MOL   H43143349   5.147   1.846   3.528 -0.5120 -1.6591 -2.5947
   70MOL   H43243350   4.979   1.837   3.469  1.2303 -0.7083 -3.1533
   70MOL   H43343351   5.022   1.966   3.568  1.1589 -2.9614  3.3973
   70MOL   H43443352   4.904   1.291   2.508  1.6812 -0.5877 -2.8068
   70MOL   H43543353   5.050   1.347   2.445  0.4410  0.1982 -0.4754
   70MOL   C43643354   5.065   1.261   2.650  0.0295  0.3408 -0.8530
   70MOL   O43743355   5.127   1.143   2.596 -0.2458 -0.2361 -0.4140
   70MOL   C43843356   5.243   1.171   2.524  0.2238  1.3099 -0.5110
   70MOL   C43943357   5.239   1.101   2.389  1.0503  0.4823  0.7395
   70MOL   C44043358   5.202   0.959   2.391  0.2621 -0.2725 -0.7564
   70MOL   C44143359   5.201   0.900   2.246  0.1971  0.1301  0.3855
   70MOL   C44243360   5.141   0.757   2.254  0.3092 -0.1469 -0.6226
   70MOL   C44343361   5.139   0.681   2.131 -0.0541 -0.0507 -0.0940
   70MOL   C44443362   5.080   0.533   2.145 -0.0631 -0.5783 -0.0213
   70MOL   C44543363   5.052   0.463   2.010 -0.3136  0.1605  0.5060
   70MOL   C44643364   4.970   1.226   2.778  0.1184  0.7323  0.0997
   70MOL   H44743365   5.153   1.311   2.690 -0.0340 -0.5293  0.3966
   70MOL   H44843366   5.272   1.275   2.505  1.9293  0.2833 -3.9240
   70MOL   H44943367   5.329   1.133   2.579 -0.4404 -4.7900 -3.3501
   70MOL   H45043368   5.338   1.102   2.343  0.3174  0.4931 -0.8662
   70MOL   H45143369   5.171   1.148   2.319  2.9880  0.5051 -1.1904
   70MOL   H45243370   5.275   0.913   2.456  2.6342  0.0875 -3.0999
   70MOL   H45343371   5.100   0.945   2.428 -0.0401  2.5423 -0.3970
   70MOL   H45443372   5.144   0.967   2.181  1.1994 -0.5336 -1.2179
   70MOL   H45543373   5.303   0.902   2.206  0.4482  0.5060  1.0341
   70MOL   H45643374   5.193   0.694   2.327  0.2103 -1.3305 -1.5592
   70MOL   H45743375   5.036   0.750   2.279  0.3932 -0.1283 -0.2577
   70MOL   H45843376   5.236   0.682   2.081 -0.2827  0.3537 -0.5297
   70MOL   H45943377   5.080   0.747   2.067  0.2944  1.7145  1.3522
   70MOL   H46043378   5.143   0.470   2.208 -0.1748  0.5152  1.2067
   70MOL   H46143379   4.992   0.544   2.208  0.6764 -0.6781  1.0434
   70MOL   H46243380   5.010   0.364   2.026  2.4843 -1.7237 -2.9687
   70MOL   H46343381   5.147   0.464   1.956  0.0463  2.3047  1.1388
   70MOL   H46443382   4.977   0.523   1.959 -0.3841 -0.5655 -0.2480
   70MOL   H46543383   5.021   1.158   2.846 -0.4625  0.3478  0.1570
   70MOL   H46643384   4.959   1.324   2.824 -1.0162  1.2728 -1.2965
   70MOL   C46743385   4.820   1.175   2.751  0.5764  0.2419 -0.2721
   70MOL   O46843386   4.746   1.168   2.873  0.1842 -0.2413 -0.7706
   70MOL   C46943387   4.683   1.294   2.916  0.3214  0.5248  1.0441
   70MOL   C47043388   4.588   1.275   3.036  0.0118 -0.8016 -0.5467
   70MOL   C47143389   4.487   1.162   3.018 -0.6156 -0.7827 -0.6844
   70MOL   C47243390   4.409   1.124   3.147  0.1299  0.3502 -0.2539
   70MOL   C47343391   4.483   1.042   3.242 -0.6730 -0.5816  0.1921
   70MOL   C47443392   4.405   1.016   3.370 -0.5896  0.5624 -0.1447
   70MOL   C47543393   4.455   0.898   3.459  0.1568 -0.2738  0.1728
   70MOL   C47643394   4.403   0.907   3.600 -0.1478  0.8001 -0.0526
   70MOL   C47743395   4.819   1.028   2.703  0.1746  0.0538  0.3141
   70MOL   H47843396   4.765   1.239   2.683  0.5548 -0.9497 -1.3825
   70MOL   H47943397   4.619   1.325   2.833  0.4889 -2.8591 -0.4603
   70MOL   H48043398   4.753   1.376   2.929 -0.9746  1.9050 -0.3930
   70MOL   H48143399   4.538   1.368   3.064  1.1739 -0.7996  1.6417
   70MOL   H48243400   4.639   1.254   3.130 -0.5645  0.1400 -0.0144
   70MOL   H48343401   4.423   1.185   2.933 -0.6399 -0.6743 -0.6364
   70MOL   H48443402   4.545   1.081   2.974 -3.1174 -0.9846 -3.7783
   70MOL   H48543403   4.365   1.209   3.198  1.1950  0.6985  0.1069
   70MOL   H48643404   4.331   1.060   3.105 -0.6013 -0.9833  2.9282
   70MOL   H48743405   4.506   0.953   3.183  2.9855  1.0127 -0.9202
   70MOL   H48843406   4.577   1.086   3.276 -2.8526  2.7508  2.1188
   70MOL   H48943407   4.303   1.003   3.333 -1.0946  0.1789  1.3394
   70MOL   H49043408   4.408   1.109   3.427  1.9106  0.8270 -0.6409
   70MOL   H49143409   4.432   0.805   3.407  0.7794  0.6415 -1.8096
   70MOL   H49243410   4.564   0.902   3.450  0.1439 -0.5933 -0.1256
   70MOL   H49343411   4.432   1.000   3.649  0.1684  0.1085  1.0978
   70MOL   H49443412   4.449   0.829   3.661 -1.1323  1.1752  1.2144
   70MOL   H49543413   4.294   0.907   3.593 -0.1355  2.2188 -0.3461
   70MOL   H49643414   4.907   1.007   2.642  1.0589  0.6333  1.3877
   70MOL   H49743415   4.825   0.960   2.788  0.1512 -0.2268  0.0947
   70MOL   C49843416   4.706   0.989   2.612 -0.0857  0.4143  1.0300
   70MOL   O49943417   4.713   1.065   2.484 -0.2672  0.3129 -0.2336
   70MOL   C50043418   4.811   1.030   2.387 -0.2498 -0.1743 -0.4397
   70MOL   C50143419   4.799   1.121   2.264  0.5506 -0.3215 -0.0848
   70MOL   C50243420   4.828   1.051   2.133  0.1506  0.5051 -0.0150
   70MOL   C50343421   4.811   1.142   2.012 -0.3139 -0.1187 -0.3581
   70MOL   C50443422   4.670   1.171   1.982 -0.4936 -0.0796  0.0025
   70MOL   C50543423   4.637   1.284   1.887  0.1800  0.0252 -0.6757
   70MOL   C50643424   4.702   1.281   1.749  0.5724  0.8200 -0.4661
   70MOL   C50743425   4.665   1.165   1.651  0.3479  0.5298 -0.8520
   70MOL   C50843426   4.567   0.990   2.672 -0.2399 -0.0905 -0.4146
   70MOL   H50943427   4.724   0.887   2.579 -0.2988  1.0013 -0.9988
   70MOL   H51043428   4.782   0.927   2.362  1.3298 -0.7667  0.0960
   70MOL   H51143429   4.903   1.015   2.443 -0.7511 -0.6555  0.2636
   70MOL   H51243430   4.868   1.204   2.282  0.5685 -0.7526  1.9357
   70MOL   H51343431   4.699   1.163   2.255  1.0607  0.5435 -1.8867
   70MOL   H51443432   4.931   1.016   2.130 -0.5938 -2.3617  3.8737
   70MOL   H51543433   4.765   0.962   2.126  2.7147 -1.3220 -0.4890
   70MOL   H51643434   4.856   1.239   2.033  0.8450 -0.8323  0.5699
   70MOL   H51743435   4.867   1.100   1.928  1.1213 -0.7874  0.9020
   70MOL   H51843436   4.634   1.075   1.943 -0.5774 -0.2014  0.3805
   70MOL   H51943437   4.613   1.191   2.073 -2.7712 -2.0836 -0.9193
   70MOL   H52043438   4.678   1.377   1.926  0.2394  0.3009 -1.3700
   70MOL   H52143439   4.529   1.298   1.880  0.0868 -0.4515 -0.1158
   70MOL   H52243440   4.690   1.372   1.690  0.2197 -0.9861 -3.2853
   70MOL   H52343441   4.810   1.284   1.762  0.6537  1.5785 -1.2391
   70MOL   H52443442   4.559   1.141   1.642  0.3456  0.7665 -1.4745
   70MOL   H52543443   4.712   1.078   1.697  0.3064  0.8195 -0.2517
   70MOL   H52643444   4.710   1.186   1.555  2.7080  1.8577  0.5031
   70MOL   H52743445   4.570   0.935   2.766 -0.1482 -0.0686 -0.4046
   70MOL   H52843446   4.543   1.091   2.707 -0.1652 -0.8118  1.7861
   70MOL   C52943447   4.446   0.947   2.591 -0.3068 -0.0523  0.1584
   70MOL   O53043448   4.338   0.965   2.683 -0.3196  0.3961 -0.3739
   70MOL   C53143449   4.223   1.010   2.624  0.4050 -0.7994 -0.0991
   70MOL   C53243450   4.135   1.063   2.742 -0.3440  0.1838  0.6405
   70MOL   C53343451   3.989   1.096   2.703  0.2745  0.0387  0.0523
   70MOL   C53443452   3.915   1.157   2.815 -0.4479  0.1253  0.2629
   70MOL   C53543453   3.781   1.204   2.768 -1.1697 -0.9126 -0.1447
   70MOL   C53643454   3.717   1.297   2.873 -0.1866  0.6219  0.0441
   70MOL   C53743455   3.603   1.385   2.815  0.2707 -0.4049 -0.3932
   70MOL   C53843456   3.544   1.482   2.915  0.2439  0.2398 -0.0828
   70MOL   C53943457   4.442   0.799   2.541 -0.4273  0.1233 -0.0081
   70MOL   H54043458   4.443   1.019   2.508  1.6088  3.2122  2.7901
   70MOL   H54143459   4.245   1.092   2.556 -0.6231  1.4663  2.2017
   70MOL   H54243460   4.170   0.929   2.576 -0.1647 -2.1590  2.7053
   70MOL   H54343461   4.180   1.154   2.782  0.5823 -0.7285  1.7030
   70MOL   H54443462   4.122   0.992   2.824 -0.3580 -0.7501 -0.1594
   70MOL   H54543463   3.974   1.163   2.618 -2.4684 -0.1172  0.3605
   70MOL   H54643464   3.938   1.006   2.666  1.0172 -0.5383  0.4199
   70MOL   H54743465   3.903   1.073   2.884 -0.9771  0.3265  0.4169
   70MOL   H54843466   3.967   1.242   2.858 -0.1866 -0.7120  1.6344
   70MOL   H54943467   3.793   1.273   2.684 -0.4185 -0.2739  0.4773
   70MOL   H55043468   3.700   1.134   2.748 -1.1276 -1.3546  1.1677
   70MOL   H55143469   3.802   1.353   2.914  0.1668  0.7112 -0.8126
   70MOL   H55243470   3.670   1.244   2.956 -0.2368  0.0783 -0.3314
   70MOL   H55343471   3.641   1.451   2.737 -0.4300  0.8077  0.2770
   70MOL   H55443472   3.522   1.324   2.776 -0.6874 -0.2327  1.2790
   70MOL   H55543473   3.451   1.524   2.879 -1.2690 -0.1945  3.2120
   70MOL   H55643474   3.617   1.552   2.956 -0.9786  2.5278 -1.7230
   70MOL   H55743475   3.500   1.426   2.997  0.3745 -0.0170 -0.1853
   70MOL   H55843476   4.500   0.737   2.610 -2.3370 -2.3568 -0.5387
   70MOL   H55943477   4.346   0.749   2.553 -0.4399  0.2391  0.3872
   70MOL   C56043478   4.508   0.768   2.398  0.4319  0.0571 -0.0537
   70MOL   O56143479   4.412   0.819   2.307  0.4120  0.1142  0.7755
   70MOL   C56243480   4.470   0.903   2.207  0.4930 -0.1594  0.0770
   70MOL   C56343481   4.368   0.983   2.124  0.4839 -0.3938 -0.2009
   70MOL   C56443482   4.296   1.080   2.214 -0.1920  0.1141 -0.4280
   70MOL   C56543483   4.186   1.162   2.147 -0.0907 -0.0526  0.1135
   70MOL   C56643484   4.143   1.278   2.239  0.5404 -0.8752 -0.2091
   70MOL   C56743485   4.246   1.398   2.256 -0.3838  0.8418  0.0133
   70MOL   C56843486   4.297   1.458   2.127 -0.1898  0.2617 -0.0843
   70MOL   C56943487   4.182   1.532   2.054  1.1049 -0.2307 -0.0823
   70MOL   C57043488   4.522   0.617   2.368  0.2305  0.0674 -0.0442
   70MOL   H57143489   4.604   0.818   2.382 -0.5014  1.6212 -0.8495
   70MOL   H57243490   4.530   0.837   2.144 -1.4026  1.1136 -3.1654
   70MOL   H57343491   4.538   0.971   2.258  0.8947 -0.9604  0.6411
   70MOL   H57443492   4.303   0.914   2.072 -0.4358  0.7999 -0.6653
   70MOL   H57543493   4.421   1.027   2.039  0.2861  0.2397 -0.0043
   70MOL   H57643494   4.240   1.034   2.295 -1.3662 -0.7050 -1.6843
   70MOL   H57743495   4.370   1.148   2.258 -1.9427  0.5142  1.9867
   70MOL   H57843496   4.224   1.196   2.050 -3.5474 -0.2694 -1.3644
   70MOL   H57943497   4.098   1.102   2.124 -0.0958  0.6881 -1.9967
   70MOL   H58043498   4.049   1.320   2.205 -0.5160 -3.1493 -0.2233
   70MOL   H58143499   4.105   1.232   2.330  2.6581  0.7697  1.5460
   70MOL   H58243500   4.336   1.352   2.297 -0.0079  0.5852 -1.0793
   70MOL   H58343501   4.200   1.479   2.312 -0.4131  1.4573 -0.8839
   70MOL   H58443502   4.372   1.531   2.156 -1.4793  1.3372  0.6064
   70MOL   H58543503   4.343   1.381   2.065 -0.1795  2.7911 -3.3901
   70MOL   H58643504   4.209   1.582   1.961 -1.9928 -0.4788 -1.1897
   70MOL   H58743505   4.151   1.613   2.120 -2.3255 -0.3888 -1.3776
   70MOL   H58843506   4.105   1.460   2.024  1.6299 -1.2187  0.9019
   70MOL   H58943507   4.580   0.572   2.448 -1.4199 -1.0078  0.5539
   70MOL   H59043508   4.428   0.563   2.378  0.0021  0.1666 -1.4477
   70MOL   C59143509   4.576   0.575   2.227  0.1757  0.5823 -0.3658
   70MOL   O59243510   4.592   0.429   2.228  0.3091  0.6759 -0.5569
   70MOL   C59343511   4.496   0.350   2.158 -0.0977 -0.5414  0.1031
   70MOL   C59443512   4.549   0.207   2.151  0.9817  0.0627  0.2131
   70MOL   C59543513   4.475   0.102   2.068  0.6493  0.0055 -0.2016
   70MOL   C59643514   4.323   0.101   2.088  0.1326 -0.3223 -0.5280
   70MOL   C59743515   4.271   0.087   2.236 -0.4525  0.4546 -0.9396
   70MOL   C59843516   4.115   0.083   2.239 -0.2822  0.4528 -0.3089
   70MOL   C59943517   4.053   0.128   2.378 -0.4787 -0.0691 -0.1202
   70MOL   C60043518   3.909   0.091   2.392  0.0950 -0.3646 -0.7234
   70MOL   C60143519   4.711   0.632   2.184 -0.3519 -0.7101 -0.4522
   70MOL   H60243520   4.505   0.613   2.153  0.5385 -0.3130 -1.1898
   70MOL   H60343521   4.495   0.402   2.062  0.1446  3.2505  2.0398
   70MOL   H60443522   4.401   0.354   2.213 -0.5077  1.5409 -0.6913
   70MOL   H60543523   4.551   0.168   2.253  1.3082  3.3945  1.5314
   70MOL   H60643524   4.647   0.213   2.105  1.1031 -0.8777  0.3405
   70MOL   H60743525   4.482   0.143   1.967  0.0834 -0.2244 -0.3354
   70MOL   H60843526   4.523   0.005   2.069 -2.6453 -1.6669  0.8812
   70MOL   H60943527   4.271   0.187   2.046 -1.2267 -0.8146  0.1145
   70MOL   H61043528   4.284   0.023   2.023 -1.0202  0.1911 -0.4788
   70MOL   H61143529   4.301   7.762   2.272 -2.8060 -0.0582 -0.3398
   70MOL   H61243530   4.318   0.160   2.302  0.3045 -0.7290 -0.1238
   70MOL   H61343531   4.080   7.756   2.219 -1.7913  1.4880 -3.3061
   70MOL   H61443532   4.059   0.145   2.169 -2.6817 -1.0512  0.2296
   70MOL   H61543533   4.115   0.082   2.455  0.3604 -1.6403 -1.6716
   70MOL   H61643534   4.066   0.235   2.391  0.3387 -0.1071 -0.5699
   70MOL   H61743535   3.907   7.765   2.350  0.4322  0.7548 -3.5574
   70MOL   H61843536   3.838   0.140   2.325 -0.0058 -0.6525 -0.8253
   70MOL   H61943537   3.887   0.087   2.498 -1.4430 -0.5344 -1.0440
   70MOL   H62043538   4.745   0.566   2.104  0.5865 -0.1116 -0.5521
   70MOL   H62143539   4.704   0.726   2.131 -0.9498 -0.4062  0.1608
   70MOL   H62243540   4.790   0.635   2.260  0.0612 -0.0464 -0.9090
   71MOL     C143541   4.304   6.228   5.345  0.0832 -0.0493  0.3803
   71MOL     O243542   4.300   6.347   5.276 -0.7430 -0.0036  0.6464
   71MOL     C343543   4.229   6.450   5.352  0.6100 -0.7238 -0.1159
   71MOL     C443544   4.088   6.477   5.297  0.1740 -0.1549  0.3285
   71MOL     C543545   4.087   6.506   5.148  0.0028  0.4648  0.2785
   71MOL     C643546   3.953   6.519   5.079  0.0874 -0.4531 -0.5658
   71MOL     C743547   3.913   6.666   5.117 -0.1087 -0.3842  0.9549
   71MOL     C843548   3.775   6.709   5.071 -0.3317  0.1100  0.2764
   71MOL     C943549   3.740   6.858   5.074 -0.2600  0.1208  0.3759
   71MOL    C1043550   3.597   6.882   5.033  0.0052 -0.0023  0.1491
   71MOL    C1143551   4.420   6.145   5.292 -0.3195  0.4544 -0.8653
   71MOL    H1243552   4.326   6.244   5.450  0.6064  0.0986  0.2488
   71MOL    H1343553   4.269   6.550   5.340  0.8707 -0.4629  2.5898
   71MOL    H1443554   4.235   6.424   5.458 -3.7619  2.8287  1.1481
   71MOL    H1543555   4.043   6.549   5.365  1.9300  1.0201  0.2986
   71MOL    H1643556   4.035   6.383   5.313  1.2220 -0.3367  3.1819
   71MOL    H1743557   4.155   6.587   5.124 -0.2155  0.7941  0.7575
   71MOL    H1843558   4.127   6.409   5.118 -0.4511  0.2790  0.2625
   71MOL    H1943559   3.959   6.507   4.971  1.9345 -1.4609 -0.3800
   71MOL    H2043560   3.875   6.447   5.102  0.8905 -2.1474 -3.0013
   71MOL    H2143561   3.911   6.689   5.223 -4.0237  3.2714  0.2327
   71MOL    H2243562   3.984   6.735   5.071 -1.7746  1.9455  1.7462
   71MOL    H2343563   3.704   6.665   5.141  0.7202 -0.6696  0.8493
   71MOL    H2443564   3.744   6.665   4.976 -0.9428  0.2037  0.4308
   71MOL    H2543565   3.751   6.908   5.170 -1.1424 -0.8665  0.9882
   71MOL    H2643566   3.803   6.914   5.004  0.2646  1.1586  1.6478
   71MOL    H2743567   3.529   6.809   5.079 -1.4799 -0.4246 -2.6467
   71MOL    H2843568   3.591   6.862   4.926 -2.2166 -0.7986  0.3833
   71MOL    H2943569   3.575   6.987   5.054 -0.6242  0.1650 -1.3101
   71MOL    H3043570   4.382   6.113   5.195 -2.6292 -0.9747  0.4733
   71MOL    H3143571   4.511   6.203   5.275  1.4062 -1.6229  0.8443
   71MOL    H3243572   4.210   6.174   5.334  1.3495 -2.3566  0.4927
   71MOL    C3343573   4.449   6.024   5.377  0.0658 -0.3072  0.1318
   71MOL    O3443574   4.530   6.073   5.477  0.0833  0.0354 -0.0785
   71MOL    C3543575   4.484   6.044   5.609  0.3550  0.1384 -0.3649
   71MOL    C3643576   4.578   6.084   5.717 -0.1898  0.1392  0.0960
   71MOL    C3743577   4.708   5.997   5.722 -0.1223 -0.0738  0.2535
   71MOL    C3843578   4.790   6.028   5.843 -1.4267 -0.0765 -0.1866
   71MOL    C3943579   4.920   5.945   5.845  0.5729  0.0831  0.1532
   71MOL    C4043580   4.891   5.795   5.874  0.8532 -0.7205 -0.4073
   71MOL    C4143581   5.018   5.716   5.886  0.2335  0.3702  0.1859
   71MOL    C4243582   4.983   5.574   5.904 -0.1026 -0.6028  0.5897
   71MOL    C4343583   4.530   5.918   5.300 -0.0119 -0.0943  0.4546
   71MOL    H4443584   4.358   5.978   5.417  0.7120 -1.3271  0.4630
   71MOL    H4543585   4.460   5.938   5.621 -2.2936  0.5752 -1.4263
   71MOL    H4643586   4.392   6.094   5.639  0.9513  1.1475 -0.2021
   71MOL    H4743587   4.529   6.070   5.813  0.0646 -1.6428 -0.0154
   71MOL    H4843588   4.595   6.191   5.722 -0.4058  0.1316  1.2128
   71MOL    H4943589   4.678   5.892   5.716 -0.8382  0.2010 -0.9810
   71MOL    H5043590   4.765   6.020   5.632  0.8560  1.7613  1.3126
   71MOL    H5143591   4.816   6.133   5.830 -1.1995 -0.0178  0.7130
   71MOL    H5243592   4.746   6.016   5.942 -0.5473 -1.9348  0.0149
   71MOL    H5343593   4.980   5.944   5.754 -1.1324 -0.3737 -1.0035
   71MOL    H5443594   4.993   5.982   5.916 -0.3613  1.3496  0.4642
   71MOL    H5543595   4.829   5.752   5.796  2.4714 -0.1945 -2.0077
   71MOL    H5643596   4.839   5.790   5.970  1.9262 -0.0029  0.2283
   71MOL    H5743597   5.079   5.729   5.796 -0.6956  0.9613 -0.3647
   71MOL    H5843598   5.066   5.760   5.974  0.5712  1.5290 -0.5652
   71MOL    H5943599   4.931   5.525   5.823 -0.7339 -0.8125  1.1178
   71MOL    H6043600   4.921   5.557   5.992  0.3013  1.4363  1.2998
   71MOL    H6143601   5.069   5.509   5.920  0.0662 -0.0474  2.0954
   71MOL    H6243602   4.608   5.963   5.238 -0.4394 -0.9069 -0.6887
   71MOL    H6343603   4.583   5.858   5.373 -0.5848  0.0425  0.9848
   71MOL    C6443604   4.438   5.835   5.206 -0.1768  0.7728 -0.1218
   71MOL    O6543605   4.328   5.777   5.275 -0.0840 -0.2630 -0.0698
   71MOL    C6643606   4.364   5.692   5.382 -0.3999 -0.7080  0.2377
   71MOL    C6743607   4.230   5.644   5.434 -0.1350 -0.5435 -0.2070
   71MOL    C6843608   4.127   5.751   5.481  0.2901 -0.0338 -0.5147
   71MOL    C6943609   3.989   5.682   5.509  0.3775 -0.2066  0.3386
   71MOL    C7043610   3.883   5.783   5.553  0.1783  0.0807 -0.0176
   71MOL    C7143611   3.766   5.717   5.620  0.8685  0.3833  0.3429
   71MOL    C7243612   3.657   5.822   5.662 -0.1730  0.2072 -0.5924
   71MOL    C7343613   3.532   5.762   5.719  0.0364 -0.0394 -0.8593
   71MOL    C7443614   4.516   5.722   5.123 -0.4955  0.0930 -0.0390
   71MOL    H7543615   4.393   5.905   5.135 -1.4150 -0.9733 -1.0817
   71MOL    H7643616   4.408   5.759   5.457  1.0944 -1.2835 -0.1063
   71MOL    H7743617   4.436   5.616   5.355  3.2601  2.0923  1.5812
   71MOL    H7843618   4.244   5.577   5.519  0.1339  1.2663  1.2214
   71MOL    H7943619   4.182   5.581   5.359 -0.3420 -1.5325  0.7462
   71MOL    H8043620   4.169   5.803   5.568 -0.0037 -1.1440  0.3057
   71MOL    H8143621   4.114   5.827   5.404  0.3633 -0.5170 -1.0102
   71MOL    H8243622   3.958   5.621   5.424  2.8130  1.6964 -2.0065
   71MOL    H8343623   4.006   5.606   5.585 -0.8047  0.0206  0.8522
   71MOL    H8443624   3.938   5.849   5.620  0.8121  0.5159 -0.9718
   71MOL    H8543625   3.851   5.842   5.468  0.7881  1.1421  0.4814
   71MOL    H8643626   3.793   5.666   5.713 -0.3128  0.0244  0.4914
   71MOL    H8743627   3.722   5.647   5.549 -0.1288 -0.9769  2.2547
   71MOL    H8843628   3.704   5.882   5.739 -0.6482  0.6921 -0.6766
   71MOL    H8943629   3.637   5.889   5.578 -0.4906 -1.0490 -1.5473
   71MOL    H9043630   3.491   5.681   5.660 -0.6151  0.2402 -0.7909
   71MOL    H9143631   3.460   5.843   5.724 -0.3799 -0.3561 -1.7792
   71MOL    H9243632   3.542   5.727   5.822  1.8626 -0.4885 -1.1679
   71MOL    H9343633   4.591   5.776   5.065 -1.2815 -0.7852 -1.9454
   71MOL    H9443634   4.570   5.650   5.185  1.3105  0.6748 -0.8960
   71MOL    C9543635   4.433   5.644   5.017 -0.3284  0.0219  0.6185
   71MOL    O9643636   4.516   5.534   4.983  0.8128 -0.1622  0.1934
   71MOL    C9743637   4.457   5.411   5.021 -0.9268  0.4254 -0.0478
   71MOL    C9843638   4.544   5.295   4.986  0.0859 -0.4144 -0.1201
   71MOL    C9943639   4.550   5.284   4.836  0.0871  0.5549  0.2651
   71MOL   C10043640   4.649   5.375   4.767  0.3146  0.3104  0.0424
   71MOL   C10143641   4.646   5.372   4.618  0.0630 -0.4321 -0.4218
   71MOL   C10243642   4.742   5.476   4.556  0.3706  0.3900  0.5790
   71MOL   C10343643   4.744   5.479   4.407 -0.2201 -0.8517 -0.1960
   71MOL   C10443644   4.813   5.594   4.332 -0.3683  0.0681 -0.1756
   71MOL   C10543645   4.415   5.716   4.891 -0.4575  1.1043 -0.9960
   71MOL   H10643646   4.334   5.619   5.054  0.0856 -1.5445  0.6896
   71MOL   H10743647   4.360   5.388   4.977 -1.0245  3.4302 -1.4667
   71MOL   H10843648   4.449   5.416   5.130 -0.5930  0.7784 -0.0390
   71MOL   H10943649   4.495   5.209   5.034  1.6276 -0.7463  0.8962
   71MOL   H11043650   4.646   5.298   5.023  0.6851  0.7996 -1.8195
   71MOL   H11143651   4.593   5.188   4.807 -0.3355  0.1309  1.0240
   71MOL   H11243652   4.452   5.294   4.790 -0.0339  0.8118  0.5799
   71MOL   H11343653   4.637   5.478   4.802  0.9018  0.2348  0.4672
   71MOL   H11443654   4.749   5.342   4.794  0.4821 -0.7044 -1.7565
   71MOL   H11543655   4.661   5.273   4.574 -0.4126 -0.3778 -0.7141
   71MOL   H11643656   4.544   5.397   4.589  0.6882  0.8214 -1.5778
   71MOL   H11743657   4.845   5.461   4.586 -0.0798 -1.2275  1.3369
   71MOL   H11843658   4.716   5.576   4.592 -1.3242  0.0159  0.4571
   71MOL   H11943659   4.797   5.392   4.369  1.7753 -0.6267  1.9494
   71MOL   H12043660   4.649   5.481   4.354 -0.1613 -1.2581 -0.3168
   71MOL   H12143661   4.916   5.609   4.364  0.7672 -1.4516 -2.8915
   71MOL   H12243662   4.771   5.690   4.361  0.4285  0.6773 -0.9824
   71MOL   H12343663   4.798   5.582   4.224  1.5110  2.8059 -0.7854
   71MOL   H12443664   4.368   5.810   4.921  1.8088  1.5546  1.1993
   71MOL   H12543665   4.512   5.743   4.849 -0.3675  0.2541 -1.3302
   71MOL   C12643666   4.332   5.643   4.781  0.1776  0.4277  0.1155
   71MOL   O12743667   4.314   5.744   4.686 -0.1025 -0.8968 -0.4367
   71MOL   C12843668   4.361   5.707   4.554 -0.4106 -0.1341  0.5015
   71MOL   C12943669   4.315   5.804   4.444  0.1419  0.3217 -0.4764
   71MOL   C13043670   4.332   5.749   4.304 -0.4530  0.4739 -0.0268
   71MOL   C13143671   4.357   5.871   4.206  0.0662 -0.0797  0.5746
   71MOL   C13243672   4.414   5.836   4.067  0.1966  0.4168 -0.5669
   71MOL   C13343673   4.419   5.959   3.972  0.2243  0.6894 -0.7107
   71MOL   C13443674   4.518   5.931   3.855 -0.1241 -0.1138  0.4925
   71MOL   C13543675   4.499   6.034   3.741 -1.0562  0.6031  0.4897
   71MOL   C13643676   4.187   5.600   4.821 -0.2527  0.2165  0.0154
   71MOL   H13743677   4.395   5.559   4.752  0.2962  0.9240 -1.0943
   71MOL   H13843678   4.309   5.612   4.536 -1.9441  0.6233  0.8723
   71MOL   H13943679   4.469   5.691   4.553 -0.4419 -0.3279 -0.6177
   71MOL   H14043680   4.389   5.882   4.464  0.3236 -0.3818  1.7060
   71MOL   H14143681   4.210   5.825   4.464  0.5932  0.5255  1.8474
   71MOL   H14243682   4.415   5.680   4.291  0.4062  1.2678  1.1683
   71MOL   H14343683   4.245   5.693   4.267  0.3587  0.6256 -2.2541
   71MOL   H14443684   4.266   5.931   4.200  0.2885  0.1601 -0.3429
   71MOL   H14543685   4.427   5.939   4.255 -0.8687  1.5298 -0.2551
   71MOL   H14643686   4.513   5.793   4.075 -1.1629 -3.0253 -1.2537
   71MOL   H14743687   4.365   5.752   4.017  0.4964 -1.1355  1.6575
   71MOL   H14843688   4.451   6.047   4.029 -0.1878  0.6488 -0.4135
   71MOL   H14943689   4.323   5.986   3.927 -0.2897 -0.7594 -0.5132
   71MOL   H15043690   4.617   5.918   3.898 -0.7823  0.6722  2.3096
   71MOL   H15143691   4.479   5.840   3.810 -4.3112  1.1622  1.2627
   71MOL   H15243692   4.523   6.135   3.775 -0.6675  1.3836 -1.9814
   71MOL   H15343693   4.398   6.049   3.703 -1.0170  0.2616  0.2507
   71MOL   H15443694   4.571   6.021   3.660 -0.9116  1.9715  0.3779
   71MOL   H15543695   4.179   5.538   4.910 -1.1032 -1.1515 -0.9960
   71MOL   H15643696   4.129   5.686   4.854 -2.6265 -2.3763  2.8596
   71MOL   C15743697   4.097   5.514   4.715  0.0756  0.3202 -0.1793
   71MOL   O15843698   4.174   5.402   4.678  0.2628 -1.0178 -0.4017
   71MOL   C15943699   4.103   5.278   4.661 -0.2756 -0.2632 -0.0253
   71MOL   C16043700   4.205   5.159   4.675 -0.5254 -0.0117  0.2569
   71MOL   C16143701   4.215   5.115   4.826  0.4042 -0.2755 -0.4749
   71MOL   C16243702   4.315   4.998   4.832 -0.5199  0.3220 -0.1983
   71MOL   C16343703   4.336   4.938   4.979  1.0097 -0.3125  0.2801
   71MOL   C16443704   4.460   4.836   4.977  0.5358 -0.1312 -0.2875
   71MOL   C16543705   4.478   4.753   5.109  0.2994 -0.2939 -0.6437
   71MOL   C16643706   4.593   4.655   5.108 -0.3121 -0.0002  0.3099
   71MOL   C16743707   4.037   5.588   4.594  0.5916  0.6478 -0.1156
   71MOL   H16843708   4.016   5.468   4.771  1.4574 -0.5531  1.1314
   71MOL   H16943709   4.066   5.288   4.559  1.7743 -0.8134 -0.8493
   71MOL   H17043710   4.015   5.262   4.724  0.7999 -4.8085  0.4952
   71MOL   H17143711   4.299   5.199   4.637 -1.4875 -0.3028 -2.4932
   71MOL   H17243712   4.169   5.069   4.626  2.2162 -1.0237  0.0034
   71MOL   H17343713   4.240   5.196   4.895 -0.9238 -2.0579  2.1965
   71MOL   H17443714   4.109   5.093   4.841 -0.2261  0.3788 -3.5816
   71MOL   H17543715   4.286   4.913   4.772 -1.3560  0.3592  0.1364
   71MOL   H17643716   4.415   5.027   4.800 -0.5120  0.5266  0.0090
   71MOL   H17743717   4.343   5.021   5.048 -2.9108  1.0496 -0.8373
   71MOL   H17843718   4.249   4.894   5.027  0.2595  1.5081  0.6159
   71MOL   H17943719   4.550   4.896   4.967 -0.2887  1.6360  2.5025
   71MOL   H18043720   4.450   4.772   4.889  1.6339  1.0005 -1.2477
   71MOL   H18143721   4.505   4.826   5.185  0.7599  1.2704 -2.2639
   71MOL   H18243722   4.395   4.688   5.136 -0.9918  2.1381  1.5201
   71MOL   H18343723   4.585   4.591   5.196 -0.3597  0.6615  0.7871
   71MOL   H18443724   4.683   4.716   5.111 -0.7079  0.5546  0.9472
   71MOL   H18543725   4.581   4.581   5.028 -0.5740  0.8038 -0.4085
   71MOL   H18643726   4.118   5.639   4.542  1.3229  0.0190  0.3933
   71MOL   H18743727   4.003   5.506   4.531  1.4557 -0.6977  1.1434
   71MOL   C18843728   3.930   5.697   4.622  0.4064 -0.1666 -0.5880
   71MOL   O18943729   3.826   5.623   4.679  0.6782  0.2358 -0.7422
   71MOL   C19043730   3.737   5.699   4.764 -0.6702  0.1412 -0.0557
   71MOL   C19143731   3.650   5.602   4.844  0.6161 -0.0191  0.6657
   71MOL   C19243732   3.563   5.515   4.745  0.6668 -0.0560 -0.6188
   71MOL   C19343733   3.444   5.438   4.806  0.4030  0.2095 -0.1653
   71MOL   C19443734   3.339   5.404   4.702 -0.1596  0.2357  0.0268
   71MOL   C19543735   3.218   5.350   4.775 -0.0477 -1.2973 -0.1554
   71MOL   C19643736   3.102   5.307   4.692  0.3086 -0.1498  0.2163
   71MOL   C19743737   3.008   5.200   4.749 -0.0502  0.1397  0.2514
   71MOL   C19843738   3.871   5.750   4.489 -0.4706 -0.3145 -0.2551
   71MOL   H19943739   3.973   5.771   4.690 -0.9176  0.5913 -0.5634
   71MOL   H20043740   3.800   5.758   4.831 -1.0554 -0.3597  0.7669
   71MOL   H20143741   3.677   5.771   4.708  0.7576  1.1608 -0.2925
   71MOL   H20243742   3.583   5.667   4.900 -3.1111  0.0220 -3.5904
   71MOL   H20343743   3.709   5.528   4.898  2.4235  0.0840 -1.0887
   71MOL   H20443744   3.532   5.582   4.664 -0.5008  0.6983  0.4378
   71MOL   H20543745   3.630   5.442   4.700 -1.4901 -1.1150 -2.2338
   71MOL   H20643746   3.477   5.348   4.857 -1.1615  0.7082  1.7508
   71MOL   H20743747   3.399   5.494   4.887  3.6641  0.5997  1.4511
   71MOL   H20843748   3.312   5.495   4.647  2.2927  0.5644 -0.7094
   71MOL   H20943749   3.370   5.326   4.632  0.2518 -0.3309  0.8338
   71MOL   H21043750   3.173   5.426   4.840 -1.0419 -1.4721 -0.6386
   71MOL   H21143751   3.241   5.262   4.836  1.3969 -0.8206  0.0174
   71MOL   H21243752   3.040   5.393   4.667 -0.9706 -0.9525  0.5709
   71MOL   H21343753   3.130   5.256   4.600  0.6018 -1.6340  1.1188
   71MOL   H21443754   3.067   5.108   4.757  0.5866  0.5593  0.4841
   71MOL   H21543755   2.924   5.186   4.682 -0.3201 -0.7272  0.7528
   71MOL   H21643756   2.961   5.214   4.846 -2.9715 -0.1979 -1.0917
   71MOL   H21743757   3.911   5.690   4.407 -3.3871 -0.5862 -1.5122
   71MOL   H21843758   3.762   5.750   4.488 -0.4871  0.6799 -3.0563
   71MOL   C21943759   3.911   5.896   4.457 -0.0731  0.1157  0.3315
   71MOL   O22043760   3.821   5.992   4.523 -0.0865  0.4728 -0.0880
   71MOL   C22143761   3.883   6.054   4.635 -0.0842  0.8397  0.1492
   71MOL   C22243762   3.821   6.185   4.677 -0.4380 -0.6105  0.5942
   71MOL   C22343763   3.675   6.158   4.730  0.3727  0.0521 -0.2080
   71MOL   C22443764   3.616   6.268   4.816  0.0558 -1.1040 -0.4866
   71MOL   C22543765   3.610   6.404   4.749 -0.1980 -0.1800  0.6797
   71MOL   C22643766   3.537   6.501   4.848  0.0837  0.2010  0.3762
   71MOL   C22743767   3.493   6.635   4.782  0.1822  0.2293 -0.4355
   71MOL   C22843768   3.420   6.636   4.643 -0.1772 -0.1120 -0.7493
   71MOL   C22943769   3.918   5.922   4.307 -0.5802 -0.3701 -0.1193
   71MOL   H23043770   4.011   5.910   4.497 -0.6345 -0.6944  2.0693
   71MOL   H23143771   3.990   6.071   4.619  0.1099 -1.2471 -0.9875
   71MOL   H23243772   3.867   5.979   4.713  1.5429 -0.0818 -0.3780
   71MOL   H23343773   3.820   6.255   4.594 -2.6845 -0.7215  0.4917
   71MOL   H23443774   3.886   6.226   4.754 -1.8137  0.2454  1.3200
   71MOL   H23543775   3.601   6.128   4.655 -0.4882 -1.4752  1.2175
   71MOL   H23643776   3.669   6.077   4.803 -0.9417 -0.2386 -0.6175
   71MOL   H23743777   3.514   6.245   4.845 -0.2992 -0.0282 -0.8775
   71MOL   H23843778   3.671   6.279   4.909  1.8866 -0.4489 -1.6157
   71MOL   H23943779   3.709   6.440   4.724  0.2055 -1.6584  0.1110
   71MOL   H24043780   3.549   6.402   4.659  2.2629  0.4024 -1.0394
   71MOL   H24143781   3.592   6.518   4.941 -0.0102 -0.3042  0.5274
   71MOL   H24243782   3.452   6.444   4.886 -0.3747  0.9473  0.4669
   71MOL   H24343783   3.449   6.702   4.856  0.2816 -0.6936  0.4722
   71MOL   H24443784   3.589   6.684   4.770  1.1265 -1.1263  1.3231
   71MOL   H24543785   3.381   6.734   4.615  1.9544  1.0100  0.0757
   71MOL   H24643786   3.343   6.561   4.629 -1.8269  1.6183 -1.0909
   71MOL   H24743787   3.491   6.608   4.565  0.4039 -3.9145  1.0140
   71MOL   H24843788   3.992   5.850   4.273  0.3771  1.2155 -1.4894
   71MOL   H24943789   3.819   5.898   4.268 -0.1607  1.9832 -2.7505
   71MOL   C25043790   3.963   6.056   4.247  0.0466 -0.6094 -0.3693
   71MOL   O25143791   4.000   6.018   4.112  0.2729  0.2776  0.1440
   71MOL   C25243792   3.903   6.024   4.003 -0.0594  0.3188 -0.0354
   71MOL   C25343793   3.977   5.986   3.870 -0.1679  0.3515 -0.0844
   71MOL   C25443794   4.040   5.837   3.872 -0.0652  0.3929 -0.3165
   71MOL   C25543795   4.120   5.790   3.760 -0.0161 -0.5128  0.2890
   71MOL   C25643796   4.164   5.645   3.776 -0.4130  0.6079 -0.0815
   71MOL   C25743797   4.271   5.592   3.676  0.8727  0.1594  0.8404
   71MOL   C25843798   4.261   5.437   3.675 -0.0635  0.3380 -0.0614
   71MOL   C25943799   4.379   5.369   3.609 -0.2334  0.7764 -0.0843
   71MOL   C26043800   4.065   6.133   4.332  0.3221 -0.1869  0.4983
   71MOL   H26143801   3.871   6.114   4.241  0.7505  0.4280 -1.5474
   71MOL   H26243802   3.866   6.126   4.002 -0.4115  0.2120  1.1072
   71MOL   H26343803   3.814   5.962   4.016  0.7342 -0.6600  0.7658
   71MOL   H26443804   4.048   6.064   3.840 -1.5483  2.2372  1.4291
   71MOL   H26543805   3.897   5.999   3.797 -0.7673 -0.9476  0.3189
   71MOL   H26643806   4.098   5.839   3.964  1.4116 -2.1321 -1.1389
   71MOL   H26743807   3.961   5.762   3.875 -0.1136  0.4220 -0.9131
   71MOL   H26843808   4.065   5.803   3.667  0.0616  0.1719  0.3400
   71MOL   H26943809   4.211   5.849   3.753  0.4879 -1.1884  1.0896
   71MOL   H27043810   4.215   5.622   3.869  1.0143 -0.4099 -1.0882
   71MOL   H27143811   4.073   5.585   3.767  1.0614 -1.5359 -1.2857
   71MOL   H27243812   4.364   5.638   3.711  1.3818  0.2835 -0.6454
   71MOL   H27343813   4.268   5.635   3.576  0.7431  1.8540  1.5633
   71MOL   H27443814   4.238   5.387   3.769  1.6873 -2.9283 -1.2731
   71MOL   H27543815   4.177   5.413   3.609  0.1512  2.2678 -1.0568
   71MOL   H27643816   4.472   5.380   3.665  0.7218 -1.2644 -1.2166
   71MOL   H27743817   4.394   5.393   3.504 -0.6485 -0.9618 -0.5640
   71MOL   H27843818   4.359   5.262   3.604  2.1373  0.2733  0.6224
   71MOL   H27943819   4.008   6.191   4.404  0.9816  0.9315  0.1275
   71MOL   H28043820   4.132   6.061   4.380  0.5656 -0.5829 -0.4251
   71MOL   C28143821   4.152   6.230   4.249  0.4805 -0.0994 -0.3043
   71MOL   O28243822   4.240   6.308   4.332 -0.5200  0.1685 -0.1331
   71MOL   C28343823   4.327   6.225   4.409 -0.1606  0.2723  0.2965
   71MOL   C28443824   4.443   6.310   4.459 -0.1375 -0.3746 -1.2698
   71MOL   C28543825   4.519   6.370   4.336 -0.1773  0.3825 -0.4697
   71MOL   C28643826   4.568   6.274   4.230 -0.4697  0.9147 -0.3206
   71MOL   C28743827   4.649   6.154   4.279 -0.3376  1.0080  0.0528
   71MOL   C28843828   4.731   6.081   4.177 -0.0287 -0.4207 -0.0919
   71MOL   C28943829   4.800   5.953   4.223 -1.1826 -0.1967  0.1259
   71MOL   C29043830   4.884   5.890   4.119  0.5780  0.6774  0.8508
   71MOL   C29143831   4.074   6.329   4.167  0.4038 -0.3313  1.2523
   71MOL   H29243832   4.230   6.182   4.189  0.0963 -1.4870  0.2813
   71MOL   H29343833   4.361   6.138   4.352  1.0902  0.9944 -0.0936
   71MOL   H29443834   4.270   6.185   4.493  0.0962  2.8048  1.7059
   71MOL   H29543835   4.517   6.268   4.527 -0.2699  1.4899  0.0826
   71MOL   H29643836   4.394   6.386   4.521  0.5344 -0.6205 -0.4320
   71MOL   H29743837   4.448   6.444   4.298  0.8804  0.6950 -1.8664
   71MOL   H29843838   4.599   6.436   4.371 -0.3035 -0.1727  0.9035
   71MOL   H29943839   4.481   6.231   4.180  0.3672 -0.0755 -0.9422
   71MOL   H30043840   4.627   6.332   4.159  0.9814 -1.9291 -1.5309
   71MOL   H30143841   4.725   6.190   4.348 -1.1192 -1.7429  2.4555
   71MOL   H30243842   4.598   6.077   4.337 -0.7834  0.9070 -0.4726
   71MOL   H30343843   4.813   6.137   4.129  0.3668 -0.6277  0.3444
   71MOL   H30443844   4.662   6.061   4.095 -1.4883  0.3615  0.9188
   71MOL   H30543845   4.859   5.979   4.311 -1.8065 -1.0552  0.8105
   71MOL   H30643846   4.728   5.883   4.267 -0.7980 -1.3776 -1.0925
   71MOL   H30743847   4.950   5.959   4.065  0.9015 -0.4918 -0.2740
   71MOL   H30843848   4.830   5.850   4.033  0.2704  1.2766  0.7643
   71MOL   H30943849   4.933   5.805   4.166 -1.7103 -1.4828 -0.5429
   71MOL   H31043850   3.998   6.279   4.107 -0.7678  2.0608  0.6606
   71MOL   H31143851   4.021   6.403   4.226  0.3027 -1.4554  2.5724
   71MOL   C31243852   4.158   6.411   4.070  0.0305 -0.6017 -1.1359
   71MOL   O31343853   4.119   6.546   4.058  0.5821 -0.5562  0.2598
   71MOL   C31443854   3.986   6.570   4.012 -0.0350  0.4409  0.3322
   71MOL   C31543855   3.944   6.715   4.035 -0.2053 -0.2800 -0.0531
   71MOL   C31643856   3.970   6.805   3.913  0.5524  0.3271 -0.1527
   71MOL   C31743857   3.904   6.943   3.924 -0.1337  0.3300 -0.1348
   71MOL   C31843858   3.757   6.951   3.904  1.0323  1.0061 -0.0856
   71MOL   C31943859   3.702   7.101   3.903 -0.2531  0.1256 -0.5162
   71MOL   C32043860   3.566   7.114   3.842  0.2720  0.3423 -0.0588
   71MOL   C32143861   3.457   7.141   3.940  0.0166 -0.0672 -0.8956
   71MOL   C32243862   4.181   6.341   3.933  0.1598 -0.4844 -0.0047
   71MOL   H32343863   4.256   6.419   4.116 -0.5178  0.6156 -0.1500
   71MOL   H32443864   3.905   6.509   4.052  0.4170  0.7475  1.7304
   71MOL   H32543865   3.987   6.558   3.903  1.2463  0.1069  0.3707
   71MOL   H32643866   3.979   6.764   4.126 -1.2105  1.4917 -0.5798
   71MOL   H32743867   3.835   6.713   4.032 -0.1966  0.9431 -2.2828
   71MOL   H32843868   4.079   6.816   3.907  0.5669 -0.6655 -2.0941
   71MOL   H32943869   3.936   6.749   3.826 -1.7783 -1.9795  2.1656
   71MOL   H33043870   3.907   6.988   4.023  0.1437  3.2515 -1.4114
   71MOL   H33143871   3.951   7.010   3.852 -0.4089 -0.4108 -1.0092
   71MOL   H33243872   3.737   6.901   3.810 -1.0984  1.5315  0.0641
   71MOL   H33343873   3.711   6.889   3.982  2.0883  1.4449  0.8920
   71MOL   H33443874   3.766   7.166   3.842  0.2604 -0.3297 -0.4657
   71MOL   H33543875   3.701   7.135   4.006 -2.3858 -0.6826 -0.2483
   71MOL   H33643876   3.571   7.192   3.766 -0.7461  1.3289  0.8739
   71MOL   H33743877   3.545   7.026   3.781  2.9802 -1.3170  1.3085
   71MOL   H33843878   3.414   7.046   3.972  0.3249 -0.5071 -1.7587
   71MOL   H33943879   3.380   7.193   3.883 -0.4577 -0.4659 -0.6213
   71MOL   H34043880   3.468   7.210   4.023 -1.4026 -0.6766 -0.1671
   71MOL   H34143881   4.203   6.236   3.953 -0.5815 -0.8634 -1.0794
   71MOL   H34243882   4.086   6.345   3.880 -0.0083  2.5627  0.4561
   71MOL   C34343883   4.295   6.393   3.846 -0.2214  0.1710 -0.5904
   71MOL   O34443884   4.295   6.301   3.736  0.5445 -0.2306  0.7051
   71MOL   C34543885   4.271   6.366   3.611 -0.4256 -0.4793  0.2295
   71MOL   C34643886   4.311   6.273   3.497 -0.2094  0.3308  0.4716
   71MOL   C34743887   4.201   6.169   3.462  0.0451 -0.2416  0.3537
   71MOL   C34843888   4.241   6.084   3.346 -0.3124 -0.0014  0.0562
   71MOL   C34943889   4.333   5.970   3.390  0.2431  0.1210 -0.9670
   71MOL   C35043890   4.395   5.884   3.272  0.3548  0.2766  0.8606
   71MOL   C35143891   4.291   5.794   3.209  0.4304 -0.3777 -0.1875
   71MOL   C35243892   4.352   5.742   3.078 -0.1390 -0.9205 -0.0392
   71MOL   C35343893   4.439   6.400   3.909  0.1336 -0.2249  0.7166
   71MOL   H35443894   4.275   6.496   3.819 -0.6746  0.0891 -0.5709
   71MOL   H35543895   4.336   6.454   3.606  0.1707 -0.8965  0.5567
   71MOL   H35643896   4.167   6.398   3.614  0.2427  2.0103 -1.4703
   71MOL   H35743897   4.394   6.205   3.517  0.8114  1.2498 -0.5987
   71MOL   H35843898   4.344   6.327   3.409  1.2071 -1.9601 -0.4544
   71MOL   H35943899   4.184   6.102   3.547 -0.8221  0.2766  0.5976
   71MOL   H36043900   4.100   6.197   3.433 -0.7412 -2.9467  0.3723
   71MOL   H36143901   4.151   6.031   3.312 -0.2501 -0.8902  1.2568
   71MOL   H36243902   4.292   6.142   3.269  0.6969 -3.3333 -1.8937
   71MOL   H36343903   4.412   6.001   3.458  1.1217 -0.4487 -1.7069
   71MOL   H36443904   4.279   5.897   3.450  1.1718 -0.0731 -0.3463
   71MOL   H36543905   4.480   5.824   3.303 -0.7245 -1.6239  0.2050
   71MOL   H36643906   4.419   5.959   3.196 -1.1780 -0.2034 -0.1317
   71MOL   H36743907   4.266   5.709   3.273 -2.0584  0.8646  0.5406
   71MOL   H36843908   4.199   5.849   3.191  0.5510  0.1846  0.8557
   71MOL   H36943909   4.428   5.670   3.110 -0.0979 -0.7013  0.3549
   71MOL   H37043910   4.405   5.819   3.021 -1.3703  0.4387  0.6214
   71MOL   H37143911   4.280   5.701   3.007 -0.1603  1.7972 -1.6525
   71MOL   H37243912   4.432   6.460   4.000  3.2678  1.6238 -0.1821
   71MOL   H37343913   4.478   6.302   3.936  0.4713 -1.2880 -3.3271
   71MOL   C37443914   4.549   6.465   3.818 -0.2522  0.4229 -0.3197
   71MOL   O37543915   4.679   6.453   3.872  0.6287 -0.3356  0.0883
   71MOL   C37643916   4.729   6.325   3.864  0.1809 -0.1438  0.3851
   71MOL   C37743917   4.880   6.312   3.900 -0.2324  0.8864  0.6041
   71MOL   C37843918   4.961   6.377   3.790 -0.0556 -0.0427 -0.2424
   71MOL   C37943919   5.111   6.341   3.782  0.5014 -0.3307 -0.1877
   71MOL   C38043920   5.172   6.418   3.664 -0.3932  1.2307 -0.5696
   71MOL   C38143921   5.144   6.359   3.528 -0.4641 -0.3551  0.0876
   71MOL   C38243922   5.197   6.215   3.495  0.8482 -0.3333  0.2485
   71MOL   C38343923   5.351   6.211   3.483 -0.6230 -0.4139 -0.7776
   71MOL   C38443924   4.533   6.615   3.780  0.3074  0.9481 -0.3273
   71MOL   H38543925   4.547   6.414   3.722 -0.9487  0.0855 -0.1243
   71MOL   H38643926   4.718   6.291   3.761 -0.1777  4.6589 -1.3071
   71MOL   H38743927   4.677   6.263   3.937 -0.4686 -1.0594 -0.8486
   71MOL   H38843928   4.911   6.208   3.908  1.7097  1.3470 -0.4746
   71MOL   H38943929   4.877   6.370   3.992 -1.0836  2.2976 -0.2800
   71MOL   H39043930   4.914   6.362   3.693 -2.0217 -0.1379  0.6854
   71MOL   H39143931   4.953   6.484   3.812 -0.3058 -0.2824  0.8859
   71MOL   H39243932   5.155   6.375   3.876  0.4614 -0.7423 -0.0187
   71MOL   H39343933   5.123   6.233   3.784  1.3100 -0.2609 -1.1803
   71MOL   H39443934   5.148   6.524   3.675 -2.0938  0.5244  3.7204
   71MOL   H39543935   5.280   6.422   3.681 -0.5803  0.9053  0.8114
   71MOL   H39643936   5.173   6.429   3.450 -0.9059 -1.1869 -0.8338
   71MOL   H39743937   5.035   6.356   3.522 -0.3891 -0.2389 -1.4763
   71MOL   H39843938   5.152   6.142   3.562 -0.3040 -0.8330 -1.0364
   71MOL   H39943939   5.157   6.183   3.399  1.1942 -0.5288  0.1658
   71MOL   H40043940   5.393   6.275   3.405  0.3107 -0.7658 -0.5711
   71MOL   H40143941   5.392   6.111   3.469  0.9682 -0.1832  1.8150
   71MOL   H40243942   5.388   6.238   3.582 -1.0841  0.1594 -0.7596
   71MOL   H40343943   4.609   6.623   3.701  1.0003 -1.0314  0.1126
   71MOL   H40443944   4.437   6.647   3.739 -0.9167  1.7025  2.9877
   71MOL   C40543945   4.564   6.723   3.899  0.5011  0.9001 -0.1153
   71MOL   O40643946   4.458   6.736   3.984 -0.0886 -0.6836 -0.0710
   71MOL   C40743947   4.491   6.787   4.117 -0.3986 -0.3875  0.5056
   71MOL   C40843948   4.382   6.756   4.211 -0.4293 -0.1303 -0.0646
   71MOL   C40943949   4.399   6.821   4.346  0.7317  0.0635 -0.4689
   71MOL   C41043950   4.278   6.815   4.437 -0.1976  0.1197 -0.2324
   71MOL   C41143951   4.239   6.667   4.474  0.3875 -0.6399  0.7000
   71MOL   C41243952   4.126   6.668   4.572 -0.4946  1.0831 -0.0312
   71MOL   C41343953   3.985   6.690   4.505  0.4315  0.0658  0.7017
   71MOL   C41443954   3.884   6.739   4.607 -0.3289 -0.5832 -0.8592
   71MOL   C41543955   4.589   6.863   3.830  0.9207 -0.3550  0.5872
   71MOL   H41643956   4.648   6.691   3.961  0.8025 -0.8532 -1.3704
   71MOL   H41743957   4.507   6.894   4.110  1.5049 -0.6292  0.9483
   71MOL   H41843958   4.582   6.741   4.155  0.5456  1.6847  0.8346
   71MOL   H41943959   4.356   6.650   4.210  3.4476 -1.1492 -1.8123
   71MOL   H42043960   4.304   6.808   4.156  0.0408  1.8513  1.0798
   71MOL   H42143961   4.484   6.771   4.392 -0.5564 -0.4153  1.4633
   71MOL   H42243962   4.435   6.923   4.336  0.4081  0.1977 -0.2613
   71MOL   H42343963   4.294   6.861   4.535  1.6033 -2.0509  0.5522
   71MOL   H42443964   4.193   6.872   4.400  1.2095  2.7237  0.4973
   71MOL   H42543965   4.222   6.601   4.390 -0.2605  0.5627 -0.1283
   71MOL   H42643966   4.326   6.632   4.530  0.4228 -0.6926  0.6117
   71MOL   H42743967   4.144   6.737   4.654 -0.3011  0.2178  0.6673
   71MOL   H42843968   4.125   6.570   4.621 -2.5543  0.9085 -0.3915
   71MOL   H42943969   3.988   6.747   4.412  3.3268 -1.7118 -0.3564
   71MOL   H43043970   3.944   6.596   4.467 -1.0288  0.6550  0.7845
   71MOL   H43143971   3.875   6.671   4.692 -1.1721 -0.6381 -0.9951
   71MOL   H43243972   3.788   6.735   4.557  0.0927 -3.3321 -1.5529
   71MOL   H43343973   3.900   6.844   4.629 -2.6008 -0.6602  1.3537
   71MOL   H43443974   4.497   6.884   3.775  2.0222 -0.0320 -1.1975
   71MOL   H43543975   4.581   6.935   3.911  1.6498 -0.2630  0.5837
   71MOL   C43643976   4.716   6.887   3.740 -0.2915 -0.5978 -0.6205
   71MOL   O43743977   4.838   6.882   3.818  0.1214  0.8101 -0.5643
   71MOL   C43843978   4.914   6.767   3.799 -0.1415  0.5008  0.4332
   71MOL   C43943979   5.016   6.742   3.918 -0.7918  0.5700  0.3925
   71MOL   C44043980   4.950   6.713   4.054 -0.2308 -0.7142  0.2054
   71MOL   C44143981   5.056   6.682   4.165  0.0139  0.1077  0.2931
   71MOL   C44243982   5.000   6.659   4.301  0.6119  0.3465 -0.2966
   71MOL   C44343983   4.906   6.530   4.300  0.1454 -0.7134  0.8861
   71MOL   C44443984   4.893   6.472   4.435 -0.2650 -0.2698  0.0606
   71MOL   C44543985   4.807   6.539   4.537 -0.6990 -0.3145 -0.5177
   71MOL   C44643986   4.714   7.022   3.664  0.2636 -0.5708 -0.3903
   71MOL   H44743987   4.723   6.813   3.660  1.3088 -1.1724  0.0179
   71MOL   H44843988   4.850   6.679   3.789  1.0572 -0.0525 -3.1447
   71MOL   H44943989   4.963   6.770   3.702 -1.4177 -4.3044 -0.5054
   71MOL   H45043990   5.070   6.836   3.927  1.9574 -0.6947 -1.9723
   71MOL   H45143991   5.084   6.660   3.896 -2.9248 -1.4985  1.3268
   71MOL   H45243992   4.885   6.793   4.087  2.4939  1.3909  0.5906
   71MOL   H45343993   4.886   6.625   4.047 -0.8014 -0.1416 -2.7141
   71MOL   H45443994   5.120   6.597   4.143 -1.8917 -1.4583  0.6307
   71MOL   H45543995   5.116   6.773   4.172  1.1756 -0.5870 -0.4508
   71MOL   H45643996   5.081   6.662   4.373 -0.6609  0.2491  1.1673
   71MOL   H45743997   4.932   6.739   4.330 -1.2028 -0.8373 -1.1730
   71MOL   H45843998   4.962   6.458   4.240  0.5516  0.7452 -0.5207
   71MOL   H45943999   4.810   6.550   4.253  1.3264 -0.0868 -1.3920
   71MOL   H46044000   4.862   6.369   4.419 -2.5561  0.2629  0.9814
   71MOL   H46144001   4.995   6.473   4.475 -0.7782 -1.2121  1.4366
   71MOL   H46244002   4.705   6.555   4.503 -0.4390  1.5680 -0.4461
   71MOL   H46344003   4.842   6.637   4.571 -2.0607 -0.3825  1.1414
   71MOL   H46444004   4.804   6.483   4.631  0.4079  0.1257 -0.2050
   71MOL   H46544005   4.803   7.035   3.603 -0.2114 -0.3571 -1.0434
   71MOL   H46644006   4.633   7.015   3.591 -0.8770  1.8700  0.5942
   71MOL   C46744007   4.699   7.155   3.753 -0.0810  0.0505  0.7583
   71MOL   O46844008   4.626   7.248   3.679 -0.5218 -0.1936  0.1080
   71MOL   C46944009   4.496   7.272   3.723  0.3760 -0.0017 -0.1548
   71MOL   C47044010   4.418   7.361   3.619 -0.3829  0.8090 -0.5953
   71MOL   C47144011   4.448   7.505   3.650  0.4869  0.6238  0.6049
   71MOL   C47244012   4.381   7.606   3.560 -0.5826 -0.2956 -0.1823
   71MOL   C47344013   4.372   7.744   3.630  0.1616 -0.0482 -0.0431
   71MOL   C47444014   4.318   0.091   3.548  0.3997  0.0744 -0.5782
   71MOL   C47544015   4.260   0.198   3.644  0.5203 -0.4192  0.5560
   71MOL   C47644016   4.200   0.327   3.572 -0.5005  0.2377 -0.2267
   71MOL   C47744017   4.826   7.237   3.776 -0.0047 -0.2151  0.1722
   71MOL   H47844018   4.643   7.146   3.846 -1.4552  1.0877  0.0454
   71MOL   H47944019   4.505   7.319   3.821 -2.1322 -0.9077  0.5684
   71MOL   H48044020   4.453   7.174   3.747  0.9306 -0.0687  0.5886
   71MOL   H48144021   4.310   7.350   3.618 -0.5317  2.2713 -0.4119
   71MOL   H48244022   4.449   7.343   3.516  2.0502  1.8417 -0.0854
   71MOL   H48344023   4.420   7.535   3.751  1.3243 -0.3096  1.1313
   71MOL   H48444024   4.555   7.520   3.635  0.4788  0.4368  0.3525
   71MOL   H48544025   4.427   7.588   3.463 -0.2193 -2.3933  0.3584
   71MOL   H48644026   4.277   7.577   3.547 -0.3729 -1.8989  1.6040
   71MOL   H48744027   4.314   7.739   3.722  0.3742 -1.3081  0.0306
   71MOL   H48844028   4.469   0.003   3.668  0.6443  2.2028 -3.0549
   71MOL   H48944029   4.241   0.071   3.473 -0.3666 -0.0133  0.2136
   71MOL   H49044030   4.397   0.142   3.494 -0.9708  4.0354  0.9359
   71MOL   H49144031   4.186   0.157   3.713  0.7633  0.2319  1.2116
   71MOL   H49244032   4.335   0.238   3.712 -0.1552 -0.1086  1.1343
   71MOL   H49344033   4.108   0.298   3.522 -1.3245  0.7385  0.9739
   71MOL   H49444034   4.280   0.367   3.509  0.9765 -3.0424 -0.5528
   71MOL   H49544035   4.182   0.399   3.651 -0.7849  0.0603 -0.1305
   71MOL   H49644036   4.876   7.249   3.680  0.0611 -0.3026  0.1962
   71MOL   H49744037   4.808   7.338   3.814  0.3757  0.0873 -0.4405
   71MOL   C49844038   4.934   7.189   3.870  0.3319  0.2149  0.2775
   71MOL   O49944039   4.895   7.209   4.006 -0.0289 -0.2551  0.4561
   71MOL   C50044040   4.823   7.103   4.070 -0.0412  0.1282 -0.7123
   71MOL   C50144041   4.754   7.149   4.196  0.2709 -0.7233 -0.1746
   71MOL   C50244042   4.654   7.257   4.157  0.1469 -0.2063  0.1983
   71MOL   C50344043   4.566   7.298   4.279 -0.5967  0.4968  0.4377
   71MOL   C50444044   4.454   7.406   4.250 -0.4574 -0.4561  0.3063
   71MOL   C50544045   4.394   7.464   4.382  0.0971  0.4695 -0.1618
   71MOL   C50644046   4.283   7.572   4.347 -0.9700  1.1350  0.4020
   71MOL   C50744047   4.230   7.646   4.469 -0.1860  0.0891 -0.0138
   71MOL   C50844048   5.071   7.255   3.850 -0.1553 -0.9198  0.0531
   71MOL   H50944049   4.944   7.081   3.854  0.1165  0.0719  1.1163
   71MOL   H51044050   4.894   7.026   4.099 -0.1042 -0.4733 -2.0840
   71MOL   H51144051   4.753   7.055   4.001 -0.7605  0.7911 -0.4611
   71MOL   H51244052   4.830   7.196   4.259  0.4065 -0.4816 -0.5140
   71MOL   H51344053   4.711   7.072   4.260  1.6546  0.0011  1.6648
   71MOL   H51444054   4.718   7.332   4.111  0.4064  0.4581  1.6221
   71MOL   H51544055   4.578   7.239   4.080 -1.1048  0.8563  1.1555
   71MOL   H51644056   4.525   7.210   4.327 -0.7359 -1.0594 -2.4553
   71MOL   H51744057   4.644   7.337   4.345 -1.0251  0.1667  1.1329
   71MOL   H51844058   4.496   7.489   4.194 -3.7870  1.7883  0.9810
   71MOL   H51944059   4.381   7.355   4.188  0.6203 -2.2710  0.4865
   71MOL   H52044060   4.472   7.520   4.434  0.0585 -0.0555  0.4720
   71MOL   H52144061   4.341   7.382   4.430  0.7061 -0.9997 -1.9448
   71MOL   H52244062   4.319   7.652   4.282 -0.9897 -0.2420 -1.3313
   71MOL   H52344063   4.199   7.517   4.303  1.3764 -2.1433 -0.1447
   71MOL   H52444064   4.314   7.696   4.517 -0.0470 -3.2978  3.4487
   71MOL   H52544065   4.189   7.579   4.545 -2.7664  1.9844  0.3511
   71MOL   H52644066   4.155   7.720   4.440  0.9168  0.8586 -0.9350
   71MOL   H52744067   5.087   7.267   3.743  1.0722 -2.2502  0.0747
   71MOL   H52844068   5.068   7.358   3.886 -1.1248 -0.0877 -2.2821
   71MOL   C52944069   5.190   7.176   3.913  0.3481 -0.6758  0.0139
   71MOL   O53044070   5.263   7.253   4.011  0.0185  0.1234  0.2100
   71MOL   C53144071   5.192   7.287   4.130 -0.2160  0.8748  0.1716
   71MOL   C53244072   5.200   7.165   4.227  0.7115  0.1758 -0.1054
   71MOL   C53344073   5.342   7.150   4.293  0.0375  0.3452  0.8173
   71MOL   C53444074   5.356   7.017   4.371 -0.6450 -0.0179 -0.3950
   71MOL   C53544075   5.255   6.981   4.477 -0.3976 -0.6767 -0.0213
   71MOL   C53644076   5.229   7.101   4.581  0.3686  0.0118  0.7886
   71MOL   C53744077   5.152   7.039   4.707 -0.5317 -0.1214  0.2350
   71MOL   C53844078   5.124   7.153   4.808 -0.5056  0.4316  0.4200
   71MOL   C53944079   5.287   7.130   3.806 -0.1985  0.3185 -0.4393
   71MOL   H54044080   5.150   7.087   3.962 -0.4124  0.6349  1.8410
   71MOL   H54144081   5.248   7.370   4.173  1.6756 -0.1553 -0.2869
   71MOL   H54244082   5.093   7.327   4.106 -2.1188 -3.0906  1.0197
   71MOL   H54344083   5.164   7.071   4.187 -3.2095  2.4160 -2.1463
   71MOL   H54444084   5.126   7.179   4.305  1.0648  0.4405  0.1856
   71MOL   H54544085   5.419   7.168   4.219  0.9812 -0.8420  1.4905
   71MOL   H54644086   5.355   7.226   4.371 -1.4019  0.9308  0.5043
   71MOL   H54744087   5.367   6.930   4.306  1.0026 -1.1417  1.3369
   71MOL   H54844088   5.451   7.034   4.421  0.3658  0.9031 -2.5533
   71MOL   H54944089   5.160   6.952   4.432 -2.1350  1.8469  1.8913
   71MOL   H55044090   5.282   6.892   4.535  1.1275  1.7690  3.1573
   71MOL   H55144091   5.179   7.187   4.536 -2.0860 -0.7443  1.9966
   71MOL   H55244092   5.321   7.143   4.622  1.0732 -1.2616  0.5588
   71MOL   H55344093   5.055   7.003   4.671 -0.1138 -0.3639 -0.6729
   71MOL   H55444094   5.201   6.952   4.748  2.0658  0.7248 -0.9873
   71MOL   H55544095   5.068   7.229   4.754  1.5749  1.4167 -0.4170
   71MOL   H55644096   5.213   7.203   4.846  0.8338 -0.5479 -1.3460
   71MOL   H55744097   5.057   7.113   4.884  0.2686 -1.3824  0.1826
   71MOL   H55844098   5.236   7.064   3.736  0.3033 -2.4942  1.7813
   71MOL   H55944099   5.318   7.222   3.756  1.5409 -0.1383 -0.2304
   71MOL   C56044100   5.405   7.052   3.867  0.1415 -0.0296 -0.0424
   71MOL   O56144101   5.488   7.027   3.753 -0.3376  0.0652  0.1841
   71MOL   C56244102   5.572   7.141   3.709  0.1931  0.5392 -0.0557
   71MOL   C56344103   5.701   7.088   3.640  0.5699 -0.3630  0.3960
   71MOL   C56444104   5.785   6.999   3.728 -0.0059 -0.1584 -0.0064
   71MOL   C56544105   5.923   6.969   3.663 -0.4477  0.5937  0.3029
   71MOL   C56644106   5.910   6.878   3.541  0.2802 -0.0329  0.3315
   71MOL   C56744107   6.041   6.837   3.476 -0.4721  1.1953  0.3757
   71MOL   C56844108   6.038   6.757   3.348  0.1423 -0.4002  0.1958
   71MOL   C56944109   5.977   6.617   3.364  0.8165  0.0685  0.3130
   71MOL   C57044110   5.365   6.909   3.916 -0.2288  0.2462  0.1842
   71MOL   H57144111   5.465   7.102   3.943  0.8862 -2.1286  0.8149
   71MOL   H57244112   5.610   7.204   3.789  1.2136  1.8834 -1.5551
   71MOL   H57344113   5.513   7.202   3.640  0.5502  0.4266 -0.4674
   71MOL   H57444114   5.763   7.172   3.607 -1.0661  0.4168 -0.7873
   71MOL   H57544115   5.686   7.035   3.546  0.8939  0.0973  0.0790
   71MOL   H57644116   5.795   7.053   3.822 -1.4448  1.9337 -1.0301
   71MOL   H57744117   5.718   6.915   3.747 -3.3343  2.0442 -1.5624
   71MOL   H57844118   5.969   7.064   3.634 -0.7458  0.3747 -0.9444
   71MOL   H57944119   5.990   6.921   3.733 -0.8125  1.1017  1.0141
   71MOL   H58044120   5.843   6.795   3.564 -0.3442  0.0336 -1.1751
   71MOL   H58144121   5.866   6.945   3.467 -1.6169 -0.7802  0.7575
   71MOL   H58244122   6.086   6.773   3.552 -0.2017 -1.5107 -1.9909
   71MOL   H58344123   6.109   6.922   3.470  1.3054 -0.3508 -2.4877
   71MOL   H58444124   5.980   6.815   3.276  1.8591 -0.6312 -1.4057
   71MOL   H58544125   6.136   6.763   3.299 -0.2563 -1.2668 -0.7202
   71MOL   H58644126   5.987   6.548   3.281 -1.6402 -2.2443  1.8356
   71MOL   H58744127   5.870   6.625   3.384  1.3761  0.7651  3.3733
   71MOL   H58844128   6.020   6.572   3.454  1.9613  1.3628  0.4183
   71MOL   H58944129   5.299   6.923   4.002 -1.4910 -0.2273 -0.6907
   71MOL   H59044130   5.295   6.866   3.845  0.0849  1.2575 -0.7645
   71MOL   C59144131   5.479   6.814   3.951 -0.1358  0.5647 -0.3530
   71MOL   O59244132   5.435   6.696   4.005 -0.1012  0.5956 -1.0895
   71MOL   C59344133   5.415   6.591   3.913 -0.5825 -0.4951 -0.1763
   71MOL   C59444134   5.381   6.467   3.990  0.2561 -0.1815  0.3203
   71MOL   C59544135   5.472   6.432   4.110 -0.0244  0.0148 -0.5258
   71MOL   C59644136   5.450   6.289   4.165  0.6845 -0.0959 -0.2881
   71MOL   C59744137   5.321   6.280   4.237  0.8109 -0.0389  0.0191
   71MOL   C59844138   5.278   6.133   4.253  0.6030 -0.2912  0.1985
   71MOL   C59944139   5.144   6.126   4.320  0.3367 -0.1294  0.5775
   71MOL   C60044140   5.153   6.171   4.469 -0.0464  0.3325  0.5342
   71MOL   C60144141   5.575   6.871   4.058 -0.4617 -0.4601 -1.2774
   71MOL   H60244142   5.557   6.807   3.875  1.1741  0.1243  0.9973
   71MOL   H60344143   5.507   6.578   3.855 -0.8401  1.2741 -1.0247
   71MOL   H60444144   5.338   6.615   3.839  0.7741  1.3916 -1.0313
   71MOL   H60544145   5.360   6.382   3.926 -1.3676 -0.1189  0.7509
   71MOL   H60644146   5.283   6.484   4.036 -0.0737 -1.7329  0.2093
   71MOL   H60744147   5.577   6.438   4.083  0.4311  2.2566  1.6018
   71MOL   H60844148   5.458   6.504   4.191  2.3170 -0.0542 -0.0284
   71MOL   H60944149   5.450   6.227   4.075  0.3195 -1.9704  0.9659
   71MOL   H61044150   5.537   6.258   4.223 -1.3899 -1.9851  1.9339
   71MOL   H61144151   5.333   6.337   4.330 -0.9406 -2.4006  1.7312
   71MOL   H61244152   5.234   6.324   4.188  1.1898 -0.4778 -1.0611
   71MOL   H61344153   5.353   6.075   4.307  1.1678  0.0049 -0.2662
   71MOL   H61444154   5.271   6.096   4.151  2.5627  1.4000 -0.5855
   71MOL   H61544155   5.076   6.193   4.268 -1.2893 -0.8079  1.7932
   71MOL   H61644156   5.104   6.025   4.314 -0.2302  0.0080  1.7709
   71MOL   H61744157   5.070   6.132   4.526 -1.5555  1.5617 -0.7751
   71MOL   H61844158   5.150   6.279   4.451  3.1369  1.0564  3.8306
   71MOL   H61944159   5.246   6.140   4.516 -0.4457 -0.4006  0.8419
   71MOL   H62044160   5.509   6.901   4.141 -0.6909 -0.5336 -1.4336
   71MOL   H62144161   5.644   6.798   4.099  0.9340  0.6329 -1.6319
   71MOL   H62244162   5.636   6.953   4.020 -0.2853  0.3940  0.7790
   72MOL     C144163   2.040   5.150   5.833  0.2852 -0.2477  0.3060
   72MOL     O244164   1.946   5.206   5.737  0.6190 -0.3777 -0.3021
   72MOL     C344165   1.918   5.342   5.768 -0.1841  0.2110  0.3448
   72MOL     C444166   1.804   5.390   5.670 -1.3353 -0.0907  0.4234
   72MOL     C544167   1.778   5.541   5.679  0.2097 -0.1322 -0.7446
   72MOL     C644168   1.711   5.576   5.548  0.2404 -0.0116  0.3173
   72MOL     C744169   1.693   5.724   5.517  0.4258  0.2106  0.7411
   72MOL     C844170   1.823   5.793   5.464  1.1194  0.3107 -0.2902
   72MOL     C944171   1.793   5.937   5.442  0.2254 -0.3619 -0.2030
   72MOL    C1044172   1.914   6.012   5.394 -0.2086 -0.5955 -0.2893
   72MOL    C1144173   2.069   5.001   5.797  0.2167 -0.3563  0.1602
   72MOL    H1244174   2.124   5.220   5.836 -1.7278  2.2336  0.1563
   72MOL    H1344175   2.007   5.405   5.770 -2.0624  3.1770 -2.9384
   72MOL    H1444176   1.872   5.344   5.867  2.0682 -0.9467  1.4465
   72MOL    H1544177   1.711   5.333   5.667 -1.0270 -0.5588 -0.4040
   72MOL    H1644178   1.849   5.379   5.572 -0.6005 -2.1556  0.9613
   72MOL    H1744179   1.712   5.564   5.763 -0.1222  2.6784 -1.7340
   72MOL    H1844180   1.857   5.615   5.688  0.5757 -0.4249 -1.5205
   72MOL    H1944181   1.766   5.535   5.463  1.6265  0.2252  1.0898
   72MOL    H2044182   1.619   5.516   5.541  2.0467 -3.0042  1.2829
   72MOL    H2144183   1.611   5.736   5.445  0.9750 -2.2859 -0.3370
   72MOL    H2244184   1.673   5.771   5.614  2.1055 -0.0742  1.2380
   72MOL    H2344185   1.859   5.749   5.371 -0.0910 -1.1425 -0.0961
   72MOL    H2444186   1.902   5.781   5.538  0.0050  0.7739  1.0018
   72MOL    H2544187   1.725   5.960   5.360  1.4929  0.6599 -0.9876
   72MOL    H2644188   1.751   5.978   5.534 -2.6899  2.2815 -2.5663
   72MOL    H2744189   2.000   6.004   5.460  0.1195 -0.6174 -0.7151
   72MOL    H2844190   1.898   6.118   5.373  0.7358 -0.5027 -0.5565
   72MOL    H2944191   1.954   5.967   5.303  0.5106  0.0215 -0.2817
   72MOL    H3044192   1.973   4.948   5.798 -0.3701  0.5995 -1.8489
   72MOL    H3144193   2.115   4.992   5.699 -0.7958  0.6192 -0.4113
   72MOL    H3244194   1.989   5.159   5.928 -1.2309  0.4569 -0.5547
   72MOL    C3344195   2.158   4.943   5.905 -0.0865  0.1775 -0.4519
   72MOL    O3444196   2.269   5.030   5.925 -0.6626 -0.3671 -0.4823
   72MOL    C3544197   2.283   5.084   6.052 -0.4969 -0.0675 -0.0043
   72MOL    C3644198   2.404   5.181   6.063  0.0835  0.4303  0.6444
   72MOL    C3744199   2.414   5.241   6.199 -0.0917  0.0767 -0.2720
   72MOL    C3844200   2.556   5.292   6.247  0.3957 -0.2964  0.6862
   72MOL    C3944201   2.582   5.380   6.373  0.3187  0.8458  0.0495
   72MOL    C4044202   2.506   5.515   6.369 -0.3943  0.1393  0.9886
   72MOL    C4144203   2.379   5.505   6.454  0.9065  0.2507  0.0464
   72MOL    C4244204   2.322   5.641   6.489  0.1354  0.0600 -0.2463
   72MOL    C4344205   2.203   4.811   5.850  0.4954 -0.3636 -1.0423
   72MOL    H4444206   2.095   4.926   5.992 -0.2953  1.2636 -0.3748
   72MOL    H4544207   2.292   5.004   6.125 -0.7867 -2.4515 -2.4897
   72MOL    H4644208   2.191   5.139   6.074  0.5951  2.0733 -0.6391
   72MOL    H4744209   2.387   5.247   5.978 -2.2134 -0.5682  0.2926
   72MOL    H4844210   2.496   5.128   6.039 -0.9490 -1.5232  0.8995
   72MOL    H4944211   2.341   5.320   6.219 -1.0180 -1.0825  1.0262
   72MOL    H5044212   2.380   5.178   6.281  1.5467  0.6645  0.8810
   72MOL    H5144213   2.616   5.201   6.251  0.4699 -0.3237 -0.6228
   72MOL    H5244214   2.598   5.348   6.163 -1.4822 -0.5070 -0.4216
   72MOL    H5344215   2.568   5.323   6.464 -0.1345  0.5179 -0.2259
   72MOL    H5444216   2.687   5.405   6.360  0.7845 -0.7222  0.6984
   72MOL    H5544217   2.502   5.549   6.265 -1.4878 -2.0358  0.2865
   72MOL    H5644218   2.572   5.591   6.410  0.6464  1.1382 -2.3827
   72MOL    H5744219   2.299   5.450   6.404  0.5039 -0.8531  1.8681
   72MOL    H5844220   2.393   5.453   6.548  0.1150 -0.7134 -0.3573
   72MOL    H5944221   2.229   5.627   6.544  0.8446  0.3862  1.0538
   72MOL    H6044222   2.295   5.684   6.392 -0.8163  0.5623  0.2348
   72MOL    H6144223   2.377   5.707   6.556  0.7004 -1.7055  1.0588
   72MOL    H6244224   2.121   4.745   5.822 -0.0317 -1.8461  3.4955
   72MOL    H6344225   2.257   4.837   5.759 -0.0007  0.9332 -0.9817
   72MOL    C6444226   2.287   4.737   5.955 -0.4137  1.0481 -0.4156
   72MOL    O6544227   2.212   4.728   6.076  0.0306  0.3605  0.1684
   72MOL    C6644228   2.227   4.614   6.153  0.4135  1.0381  0.1184
   72MOL    C6744229   2.122   4.626   6.272  0.3031  0.2508  0.6201
   72MOL    C6844230   2.152   4.750   6.361 -0.0188  0.1494 -0.0439
   72MOL    C6944231   2.032   4.774   6.454  0.2637 -0.3614 -0.4117
   72MOL    C7044232   2.043   4.887   6.565  0.5824  0.4683 -0.5331
   72MOL    C7144233   2.040   5.028   6.512  0.8067 -0.9315 -0.2749
   72MOL    C7244234   2.064   5.130   6.623  0.1627  0.6413  0.5975
   72MOL    C7344235   2.087   5.274   6.570 -0.5304  0.1031 -0.0271
   72MOL    C7444236   2.438   4.797   5.958 -0.0485 -0.2713  0.1159
   72MOL    H7544237   2.284   4.637   5.914  2.3713  0.4821  0.6366
   72MOL    H7644238   2.327   4.600   6.195  0.3200  0.0793  0.0325
   72MOL    H7744239   2.210   4.524   6.094  1.5358 -0.2580  1.7285
   72MOL    H7844240   2.123   4.540   6.339  0.9836  0.5793  1.0442
   72MOL    H7944241   2.017   4.634   6.246  0.3313 -0.2733  0.3407
   72MOL    H8044242   2.240   4.735   6.423  0.3055 -0.5211 -0.6480
   72MOL    H8144243   2.175   4.841   6.306  0.7340  1.5193  2.4534
   72MOL    H8244244   1.941   4.781   6.394  1.3232 -0.1114 -1.9990
   72MOL    H8344245   2.004   4.679   6.500 -0.6849 -0.8291 -1.9037
   72MOL    H8444246   1.974   4.879   6.650  1.8408  0.0220  0.4667
   72MOL    H8544247   2.137   4.879   6.620  0.0433  0.6145  0.4362
   72MOL    H8644248   1.944   5.050   6.467  0.9662  1.2687  0.4190
   72MOL    H8744249   2.120   5.049   6.441  1.2731 -0.4616  0.3891
   72MOL    H8844250   1.992   5.138   6.704 -1.4299 -0.3780 -0.7114
   72MOL    H8944251   2.150   5.093   6.679  0.4639 -1.4887 -1.2203
   72MOL    H9044252   1.991   5.316   6.542 -1.8821 -0.7022  3.1023
   72MOL    H9144253   2.163   5.273   6.492 -1.2080 -0.2580 -0.6783
   72MOL    H9244254   2.120   5.328   6.659 -1.2318 -1.0022  0.9229
   72MOL    H9344255   2.465   4.856   5.870  1.8805 -1.0717  0.1347
   72MOL    H9444256   2.435   4.871   6.038  1.6750 -0.1357  0.0789
   72MOL    C9544257   2.545   4.690   5.959 -0.7719 -0.5303 -0.7852
   72MOL    O9644258   2.674   4.748   5.981  0.1035 -0.3151  0.3485
   72MOL    C9744259   2.708   4.770   6.120  0.2510 -0.3152  0.1320
   72MOL    C9844260   2.852   4.828   6.138 -0.0695 -0.2660  0.5521
   72MOL    C9944261   2.973   4.731   6.094  0.5496  0.3288 -0.7486
   72MOL   C10044262   3.113   4.797   6.104 -0.5298 -0.1503 -0.0789
   72MOL   C10144263   3.223   4.692   6.066 -0.3630 -0.4095  0.8770
   72MOL   C10244264   3.348   4.764   6.022  0.5788  0.3705 -0.4322
   72MOL   C10344265   3.461   4.669   5.975  0.6093  0.4557  0.3098
   72MOL   C10444266   3.595   4.736   5.942 -1.0027 -0.4902 -0.4230
   72MOL   C10544267   2.562   4.638   5.814  0.2112  1.2388  0.4595
   72MOL   H10644268   2.515   4.617   6.034  1.7862 -1.3160 -0.4968
   72MOL   H10744269   2.697   4.680   6.181  0.4920 -1.2562 -1.2062
   72MOL   H10844270   2.646   4.848   6.162  0.5035  0.1286 -0.3115
   72MOL   H10944271   2.866   4.881   6.233  1.8299 -0.1048  0.1941
   72MOL   H11044272   2.854   4.914   6.071 -1.9642  0.6115  1.5601
   72MOL   H11144273   2.969   4.634   6.144 -0.9576 -0.2541 -1.9629
   72MOL   H11244274   2.957   4.702   5.990 -3.3488 -0.5367  0.0351
   72MOL   H11344275   3.109   4.896   6.060 -0.2762  0.9094  2.1830
   72MOL   H11444276   3.137   4.824   6.207  2.0330  1.2660 -1.0181
   72MOL   H11544277   3.242   4.628   6.152  1.0139 -0.3988  0.5937
   72MOL   H11644278   3.191   4.635   5.978 -0.5422  1.2162 -0.1407
   72MOL   H11744279   3.395   4.820   6.103 -1.1899 -1.1345  1.7075
   72MOL   H11844280   3.333   4.820   5.930  0.1246 -0.4689 -0.8622
   72MOL   H11944281   3.480   4.593   6.051 -0.3031  0.2667  0.3492
   72MOL   H12044282   3.430   4.613   5.887  0.0666 -0.0810  0.8382
   72MOL   H12144283   3.584   4.844   5.929 -2.2728 -0.5214  0.2907
   72MOL   H12244284   3.634   4.695   5.849  1.9436 -0.2622  0.6652
   72MOL   H12344285   3.669   4.727   6.021  2.4718 -0.4856 -3.5507
   72MOL   H12444286   2.460   4.622   5.780  1.0706 -1.4522 -0.9845
   72MOL   H12544287   2.610   4.714   5.752  0.8859  0.3526 -0.1077
   72MOL   C12644288   2.625   4.497   5.802 -0.2636 -0.4184 -0.6588
   72MOL   O12744289   2.535   4.411   5.869  0.5561 -0.2032 -0.5037
   72MOL   C12844290   2.475   4.317   5.789  0.4834 -0.2898  0.1354
   72MOL   C12944291   2.375   4.217   5.848  0.3557 -0.4529 -0.1268
   72MOL   C13044292   2.330   4.098   5.765 -0.5181  0.0800  0.0795
   72MOL   C13144293   2.217   4.033   5.851 -0.2889 -0.3847  0.3959
   72MOL   C13244294   2.165   3.911   5.783 -0.3269 -0.0563  0.0562
   72MOL   C13344295   2.040   3.848   5.837 -0.1508  0.2424  0.1223
   72MOL   C13444296   2.070   3.783   5.976  0.1835 -0.3116 -0.0646
   72MOL   C13544297   1.951   3.700   6.028  0.4095  0.1152  0.0186
   72MOL   C13644298   2.753   4.483   5.876 -0.2185  0.5670  0.0522
   72MOL   H13744299   2.634   4.484   5.694  0.1159  0.4609 -0.7336
   72MOL   H13844300   2.558   4.256   5.752  0.7082  1.8545 -3.1104
   72MOL   H13944301   2.430   4.363   5.701  0.6380  0.6482  0.5418
   72MOL   H14044302   2.297   4.260   5.911 -0.0552  0.0617 -0.9815
   72MOL   H14144303   2.437   4.174   5.927  0.9585  0.1417 -0.2755
   72MOL   H14244304   2.291   4.137   5.671 -0.4612  0.0831  0.0564
   72MOL   H14344305   2.417   4.036   5.741  0.2489  0.4730  1.7101
   72MOL   H14444306   2.252   4.006   5.951  0.0501 -1.2400  0.0523
   72MOL   H14544307   2.132   4.096   5.874 -1.7345 -2.3229  0.4572
   72MOL   H14644308   2.137   3.954   5.687 -0.1037 -0.6156 -0.2654
   72MOL   H14744309   2.235   3.831   5.757  0.3290  0.4964  0.1132
   72MOL   H14844310   1.999   3.767   5.777 -0.6544  0.9677 -0.5153
   72MOL   H14944311   1.963   3.925   5.842 -0.6836 -0.2209 -0.9139
   72MOL   H15044312   2.158   3.719   5.971  0.3477  0.0216 -2.0426
   72MOL   H15144313   2.096   3.860   6.048  1.1947 -1.0831  0.4032
   72MOL   H15244314   1.976   3.656   6.124 -3.0888 -0.4165  0.7576
   72MOL   H15344315   1.936   3.621   5.953 -0.3131 -0.1362  0.4254
   72MOL   H15444316   1.854   3.746   6.043  0.7149  0.5109  0.7561
   72MOL   H15544317   2.813   4.570   5.851  1.1186 -0.2461  0.3440
   72MOL   H15644318   2.732   4.478   5.983  1.6154 -1.1967  0.3609
   72MOL   C15744319   2.845   4.364   5.842 -0.4019 -0.7471  0.0174
   72MOL   O15844320   2.968   4.376   5.908  0.0384  0.0102 -0.4258
   72MOL   C15944321   2.973   4.305   6.033 -0.2105  0.0112  0.5295
   72MOL   C16044322   3.122   4.329   6.082  0.2122  0.6684  0.5129
   72MOL   C16144323   3.235   4.286   5.997 -0.1911 -0.2120  0.3491
   72MOL   C16244324   3.372   4.301   6.066  0.4596 -0.4052  0.3647
   72MOL   C16344325   3.493   4.276   5.973 -0.4968  0.3685  0.3821
   72MOL   C16444326   3.522   4.129   5.954  0.0480  0.1370 -0.2349
   72MOL   C16544327   3.596   4.091   5.826 -0.7338 -0.0831  0.6906
   72MOL   C16644328   3.648   3.950   5.813 -0.5947  0.5865 -1.1211
   72MOL   C16744329   2.888   4.361   5.696 -0.0073 -0.5629  0.9572
   72MOL   H16844330   2.799   4.270   5.870  0.3823 -0.4615  2.3977
   72MOL   H16944331   2.944   4.200   6.028 -1.2574  0.3787 -2.0957
   72MOL   H17044332   2.894   4.341   6.099 -0.3224  0.7417 -0.0019
   72MOL   H17144333   3.120   4.273   6.176 -1.6791  1.0190  0.7108
   72MOL   H17244334   3.122   4.437   6.099 -4.4901  0.5769  2.1050
   72MOL   H17344335   3.221   4.184   5.961 -0.9778  1.3641 -4.1246
   72MOL   H17444336   3.227   4.350   5.909  2.5495 -0.1272  0.1314
   72MOL   H17544337   3.382   4.402   6.107  2.6172  0.2246 -1.5517
   72MOL   H17644338   3.371   4.239   6.155  0.2858 -2.9521 -1.3697
   72MOL   H17744339   3.484   4.330   5.878 -0.8776 -0.2525  0.0598
   72MOL   H17844340   3.573   4.329   6.025 -0.8106 -0.1353  1.3878
   72MOL   H17944341   3.433   4.066   5.965  0.5498 -0.8305 -1.5655
   72MOL   H18044342   3.586   4.102   6.038  1.8311  0.0580 -1.6070
   72MOL   H18144343   3.533   4.102   5.738  0.7194 -2.3314 -0.6857
   72MOL   H18244344   3.675   4.165   5.812 -0.9039  0.3436  1.9203
   72MOL   H18344345   3.738   3.931   5.871 -1.6412  0.7682  0.5807
   72MOL   H18444346   3.671   3.915   5.712  0.7868 -1.9134  0.0060
   72MOL   H18544347   3.587   3.867   5.848  0.1283  0.3638 -0.3677
   72MOL   H18644348   2.799   4.385   5.638  0.0227  0.6986  1.4069
   72MOL   H18744349   2.960   4.442   5.684 -0.2013 -0.2176  2.1177
   72MOL   C18844350   2.949   4.229   5.642 -0.3055  0.4208 -0.0161
   72MOL   O18944351   3.059   4.248   5.547  0.1738  0.9037 -0.0527
   72MOL   C19044352   3.187   4.228   5.614  0.0642  0.1492 -0.0072
   72MOL   C19144353   3.302   4.239   5.512 -0.0262 -0.2033 -0.2627
   72MOL   C19244354   3.311   4.365   5.415 -0.1365  0.2780 -0.3052
   72MOL   C19344355   3.332   4.499   5.494  0.5931  0.2859  0.3753
   72MOL   C19444356   3.356   4.617   5.393  1.0237  0.5582 -0.3106
   72MOL   C19544357   3.338   4.753   5.463  0.0643 -0.9365 -0.5273
   72MOL   C19644358   3.434   4.782   5.579  0.3870  0.2702 -0.7017
   72MOL   C19744359   3.450   4.927   5.612 -0.8473  0.9349 -0.0780
   72MOL   C19844360   2.843   4.138   5.584 -0.0682  0.6733  0.1448
   72MOL   H19944361   2.990   4.174   5.726  0.0803 -1.6437 -1.5162
   72MOL   H20044362   3.197   4.314   5.679  3.1527  1.8099 -2.5238
   72MOL   H20144363   3.194   4.134   5.669  1.2927  1.1241  1.5461
   72MOL   H20244364   3.298   4.149   5.451 -0.7943  1.5306 -2.8063
   72MOL   H20344365   3.393   4.213   5.567  0.2444 -0.7085 -0.9492
   72MOL   H20444366   3.395   4.338   5.350 -0.3972  1.2576 -1.0551
   72MOL   H20544367   3.228   4.372   5.345  1.5956  2.3398 -2.2151
   72MOL   H20644368   3.246   4.522   5.557  0.3949 -1.2174  0.6883
   72MOL   H20744369   3.415   4.489   5.564  0.2939  1.0315  0.8491
   72MOL   H20844370   3.454   4.602   5.347  0.5391 -3.0992 -0.2623
   72MOL   H20944371   3.284   4.609   5.311 -0.7372 -0.7629  1.3230
   72MOL   H21044372   3.239   4.763   5.509  0.2953  1.9871 -0.5646
   72MOL   H21144373   3.327   4.835   5.391 -0.9500 -0.1746  0.4665
   72MOL   H21244374   3.385   4.729   5.661 -0.7096  3.3073  0.6801
   72MOL   H21344375   3.529   4.731   5.563  1.9201  3.1726 -1.1797
   72MOL   H21444376   3.358   4.979   5.639 -2.9198 -1.2800 -2.4692
   72MOL   H21544377   3.498   4.971   5.524 -0.1970  0.3990  0.0011
   72MOL   H21644378   3.524   4.936   5.691 -1.0423 -0.2752  0.2582
   72MOL   H21744379   2.759   4.116   5.650 -0.7510  0.9038 -0.6326
   72MOL   H21844380   2.791   4.194   5.506 -2.4298 -0.8928  0.5227
   72MOL   C21944381   2.884   4.011   5.514  0.1699 -0.7625  0.6591
   72MOL   O22044382   2.775   3.949   5.451 -0.0007 -0.0213 -0.1722
   72MOL   C22144383   2.785   3.940   5.309 -0.4702  0.2557  0.0382
   72MOL   C22244384   2.666   3.875   5.245 -0.9261  0.2642  0.0205
   72MOL   C22344385   2.681   3.724   5.270 -0.1091 -0.0353 -0.3987
   72MOL   C22444386   2.587   3.647   5.171  0.2287  0.2521  0.1706
   72MOL   C22544387   2.441   3.670   5.187  0.0055 -0.4471 -0.5166
   72MOL   C22644388   2.355   3.590   5.075 -0.5209  0.1131 -0.2297
   72MOL   C22744389   2.205   3.605   5.082  0.3798  0.3257  0.7163
   72MOL   C22844390   2.127   3.539   4.973 -0.6338  0.2394  0.1171
   72MOL   C22944391   2.938   3.907   5.610  0.1041 -0.0061 -0.2204
   72MOL   H23044392   2.951   4.049   5.436 -1.7791 -0.7696 -1.0769
   72MOL   H23144393   2.868   3.876   5.283 -1.2275  0.4867 -3.0723
   72MOL   H23244394   2.791   4.034   5.254  0.2902 -0.6268 -1.3969
   72MOL   H23344395   2.651   3.908   5.141 -2.5392 -0.4135  0.0141
   72MOL   H23444396   2.580   3.916   5.298 -0.8574 -0.3211  0.5832
   72MOL   H23544397   2.779   3.684   5.245 -0.1420 -1.7479  1.9927
   72MOL   H23644398   2.654   3.706   5.374  0.0181  0.0783 -0.3448
   72MOL   H23744399   2.612   3.667   5.067 -0.1579 -1.4188 -0.2494
   72MOL   H23844400   2.609   3.542   5.189 -1.0375 -0.6061 -3.1129
   72MOL   H23944401   2.417   3.628   5.285  1.6721 -0.1102  0.0421
   72MOL   H24044402   2.405   3.773   5.182 -2.3036 -1.2961 -3.2795
   72MOL   H24144403   2.381   3.485   5.080  0.9890  0.6073  4.1808
   72MOL   H24244404   2.394   3.623   4.979  0.9266  1.7215  0.8801
   72MOL   H24344405   2.166   3.580   5.181 -1.9474 -1.0297 -0.5016
   72MOL   H24444406   2.190   3.712   5.068 -0.0152  0.2365  0.4744
   72MOL   H24544407   2.124   3.431   4.986 -1.1447  0.2334 -0.0419
   72MOL   H24644408   2.156   3.561   4.870 -0.4383 -0.6090 -0.0126
   72MOL   H24744409   2.022   3.567   4.981 -0.5654 -0.1431  3.0538
   72MOL   H24844410   3.013   3.968   5.660  1.0793  0.2298 -1.9394
   72MOL   H24944411   2.861   3.896   5.686 -0.0052  0.9527 -0.1792
   72MOL   C25044412   2.990   3.779   5.542  0.2565  0.3064  0.4867
   72MOL   O25144413   3.009   3.680   5.644 -0.3791 -0.3440 -0.7464
   72MOL   C25244414   2.910   3.578   5.647  0.0349  0.5153 -0.6000
   72MOL   C25344415   2.916   3.496   5.775  0.2118 -0.1055 -0.0385
   72MOL   C25444416   3.047   3.417   5.785  1.0981 -0.0429  0.1607
   72MOL   C25544417   3.055   3.362   5.928 -0.5433 -0.2594  0.0640
   72MOL   C25644418   3.187   3.279   5.942  0.1510  0.1741 -0.0724
   72MOL   C25744419   3.219   3.154   5.853 -0.8922 -0.0132 -0.3749
   72MOL   C25844420   3.356   3.101   5.865  0.0162 -0.1242 -0.7127
   72MOL   C25944421   3.385   2.971   5.786  0.1456 -0.0856 -0.2882
   72MOL   C26044422   3.123   3.799   5.466  0.7118 -0.6287  0.0456
   72MOL   H26144423   2.920   3.748   5.465  1.4949  0.5365 -0.7525
   72MOL   H26244424   2.926   3.519   5.557  0.1484  0.3757 -0.4876
   72MOL   H26344425   2.807   3.615   5.650 -0.9713 -2.1532 -0.7987
   72MOL   H26444426   2.831   3.428   5.777  0.4972 -0.4600  0.2459
   72MOL   H26544427   2.894   3.558   5.861 -2.4030  0.8119 -1.3109
   72MOL   H26644428   3.064   3.342   5.708  1.1936  1.1134 -0.9607
   72MOL   H26744429   3.126   3.491   5.786  0.6858  0.4773 -2.3045
   72MOL   H26844430   3.044   3.442   6.002 -0.0121 -1.3032  1.2736
   72MOL   H26944431   2.979   3.287   5.948 -1.3684  0.9505  1.6247
   72MOL   H27044432   3.273   3.346   5.938  0.2273  0.1081  0.4960
   72MOL   H27144433   3.178   3.249   6.046 -2.6270  0.2111 -0.2596
   72MOL   H27244434   3.213   3.186   5.749  0.4475 -1.5178 -0.9451
   72MOL   H27344435   3.150   3.072   5.872  1.4903 -1.8427  0.5966
   72MOL   H27444436   3.432   3.175   5.839 -0.8398  0.9227 -0.2952
   72MOL   H27544437   3.370   3.081   5.971 -2.7625  1.6783  0.0812
   72MOL   H27644438   3.397   2.992   5.679 -1.4095 -0.2875 -0.5124
   72MOL   H27744439   3.308   2.896   5.804 -2.4509  2.5303 -0.1708
   72MOL   H27844440   3.478   2.926   5.820 -1.2792 -3.5372 -0.7899
   72MOL   H27944441   3.112   3.870   5.385  1.9535 -0.6113 -0.1167
   72MOL   H28044442   3.185   3.854   5.537  0.1441 -0.7311  0.6272
   72MOL   C28144443   3.192   3.670   5.425  0.8536 -0.7454  0.0300
   72MOL   O28244444   3.326   3.701   5.382 -0.4328 -0.2638 -0.1437
   72MOL   C28344445   3.410   3.705   5.502 -0.5472 -0.0692 -0.0302
   72MOL   C28444446   3.552   3.756   5.461  0.3691 -0.0218 -0.8918
   72MOL   C28544447   3.551   3.911   5.455  0.6229  0.8133  0.2224
   72MOL   C28644448   3.685   3.973   5.414  0.4562 -0.0855  0.0887
   72MOL   C28744449   3.679   4.130   5.384  0.0461  0.6010  0.3287
   72MOL   C28844450   3.796   4.174   5.287  0.3788  0.5007  0.6007
   72MOL   C28944451   3.830   4.322   5.278 -0.0860  0.3549  0.0977
   72MOL   C29044452   3.946   4.350   5.179 -0.2762  0.0338  0.1445
   72MOL   C29144453   3.140   3.581   5.305  0.3073 -0.1482  0.0806
   72MOL   H29244454   3.180   3.611   5.515 -0.0349 -0.5067  0.0678
   72MOL   H29344455   3.415   3.599   5.524  3.8026 -0.0191 -0.2372
   72MOL   H29444456   3.382   3.755   5.594 -0.7221 -0.5524  0.1810
   72MOL   H29544457   3.574   3.716   5.362 -3.2167 -2.0453 -1.0011
   72MOL   H29644458   3.623   3.715   5.533 -2.6120 -0.2393  2.0339
   72MOL   H29744459   3.482   3.935   5.374 -0.2398  0.0060  0.6960
   72MOL   H29844460   3.510   3.957   5.545  1.5560  1.9672  0.0668
   72MOL   H29944461   3.755   3.938   5.490  1.1714 -0.3679 -0.6846
   72MOL   H30044462   3.719   3.917   5.327  0.6906 -0.4451  0.4132
   72MOL   H30144463   3.578   4.159   5.355  0.2813  1.0903 -0.0041
   72MOL   H30244464   3.701   4.178   5.479  0.9960 -2.2927  1.6334
   72MOL   H30344465   3.794   4.134   5.185 -3.4325  2.9308 -0.3927
   72MOL   H30444466   3.884   4.128   5.332  1.2574  1.5534 -0.0272
   72MOL   H30544467   3.738   4.370   5.245 -0.3357 -0.9544 -1.1792
   72MOL   H30644468   3.843   4.357   5.380  0.4538 -0.5645  0.3508
   72MOL   H30744469   4.045   4.334   5.222 -0.4568  0.0545  0.5782
   72MOL   H30844470   3.961   4.456   5.160  1.7579 -0.2538 -0.0065
   72MOL   H30944471   3.944   4.309   5.078  0.9986  0.9564 -0.2541
   72MOL   H31044472   3.033   3.566   5.318  0.4248  0.0481  1.3502
   72MOL   H31144473   3.144   3.648   5.219  2.7805  3.1366  2.6238
   72MOL   C31244474   3.189   3.438   5.276 -0.4121 -1.1783  0.1920
   72MOL   O31344475   3.109   3.373   5.174 -0.2264  0.8562  0.0162
   72MOL   C31444476   3.150   3.406   5.043 -0.7262 -0.5983 -0.8570
   72MOL   C31544477   3.079   3.315   4.948  0.3410 -0.2211 -0.2316
   72MOL   C31644478   3.070   3.166   5.004 -0.1597  0.2192 -0.0916
   72MOL   C31744479   3.019   3.054   4.912  0.2685  0.0597  0.1022
   72MOL   C31844480   2.875   3.094   4.860 -0.6585 -0.5783 -0.2347
   72MOL   C31944481   2.791   2.976   4.816 -0.6100  0.3793  0.1638
   72MOL   C32044482   2.671   3.017   4.733  0.5457  0.4388  0.6890
   72MOL   C32144483   2.614   2.905   4.649 -0.2762  0.0302 -0.3053
   72MOL   C32244484   3.180   3.355   5.404  0.3892  0.0557  0.0933
   72MOL   H32344485   3.289   3.456   5.236 -0.6904 -0.7091 -0.2986
   72MOL   H32444486   3.256   3.388   5.027 -0.3698  0.0764  0.6248
   72MOL   H32544487   3.135   3.513   5.029  0.3556  0.0135  2.1176
   72MOL   H32644488   3.130   3.316   4.852  1.0164  1.2790  0.1239
   72MOL   H32744489   2.980   3.350   4.919  1.3036  2.3877 -0.4693
   72MOL   H32844490   3.172   3.136   5.028  0.0861  0.3471 -0.9466
   72MOL   H32944491   3.023   3.153   5.102 -0.8470  0.5999 -0.3690
   72MOL   H33044492   3.089   3.025   4.834  2.4415  0.0228  2.0138
   72MOL   H33144493   2.996   2.968   4.975 -1.2668  0.0362 -0.4495
   72MOL   H33244494   2.818   3.146   4.937 -1.0744 -3.2118  1.3196
   72MOL   H33344495   2.880   3.183   4.798  0.9577 -0.8905 -0.5715
   72MOL   H33444496   2.755   2.916   4.900 -0.3409  2.5425  1.8681
   72MOL   H33544497   2.855   2.904   4.765  0.0424 -1.8025  3.8597
   72MOL   H33644498   2.594   3.040   4.807 -2.4401 -0.6628 -1.9686
   72MOL   H33744499   2.689   3.105   4.670  1.4139 -0.3550 -0.1924
   72MOL   H33844500   2.692   2.872   4.580 -0.9719  0.6408 -1.4098
   72MOL   H33944501   2.529   2.939   4.588 -0.7444  0.4950  0.5899
   72MOL   H34044502   2.586   2.818   4.709  0.7950 -1.1676 -1.5205
   72MOL   H34144503   3.248   3.382   5.486  0.2445  0.8447 -0.0356
   72MOL   H34244504   3.078   3.372   5.437 -1.1214 -1.9395 -3.3044
   72MOL   C34344505   3.197   3.198   5.383  0.1064  0.0136  0.2338
   72MOL   O34444506   3.146   3.140   5.500  0.6423 -0.3157  0.1795
   72MOL   C34544507   3.010   3.093   5.488  0.1543 -0.1251 -0.4389
   72MOL   C34644508   2.967   3.049   5.627  0.1367  0.4756 -0.4483
   72MOL   C34744509   2.818   3.039   5.633 -0.1191 -0.1047 -0.4576
   72MOL   C34844510   2.744   2.990   5.763 -0.1917  0.2769 -0.0519
   72MOL   C34944511   2.726   3.100   5.871 -0.7146 -0.7181  0.3607
   72MOL   C35044512   2.664   3.048   6.003  0.1547 -0.6811 -0.9629
   72MOL   C35144513   2.666   3.150   6.114  0.3865 -0.4755 -0.3795
   72MOL   C35244514   2.613   3.097   6.256 -0.0506 -0.0776 -0.0902
   72MOL   C35344515   3.346   3.148   5.374  0.2202 -0.8295  0.3235
   72MOL   H35444516   3.137   3.172   5.296  0.8503 -1.4436  0.1297
   72MOL   H35544517   3.005   3.014   5.413 -1.2330  1.3329 -1.9295
   72MOL   H35644518   2.945   3.176   5.461 -0.4563 -0.8726 -1.2936
   72MOL   H35744519   2.991   3.121   5.705 -0.7288 -0.1813  0.4428
   72MOL   H35844520   3.020   2.960   5.662 -2.0079  0.3398  2.7216
   72MOL   H35944521   2.771   3.129   5.592  1.5493  1.1026  0.1927
   72MOL   H36044522   2.792   2.961   5.562 -1.1718  0.0113 -0.2176
   72MOL   H36144523   2.645   2.966   5.725 -0.9110  1.1832  1.2194
   72MOL   H36244524   2.783   2.901   5.813 -0.2727  1.4028  2.0931
   72MOL   H36344525   2.826   3.135   5.897 -0.5365 -0.8760 -0.1141
   72MOL   H36444526   2.666   3.177   5.823 -0.6653 -0.9915 -0.1402
   72MOL   H36544527   2.711   2.955   6.034  0.3719  0.8853  3.9475
   72MOL   H36644528   2.562   3.021   5.978 -0.0716 -0.2793 -0.4890
   72MOL   H36744529   2.768   3.186   6.129 -0.2925  0.8192  1.2848
   72MOL   H36844530   2.612   3.238   6.079  0.5545 -0.6780 -1.1675
   72MOL   H36944531   2.541   3.019   6.234  1.1826 -0.9190 -1.1856
   72MOL   H37044532   2.568   3.173   6.320 -1.6531 -1.6120  0.6443
   72MOL   H37144533   2.692   3.063   6.323 -0.4573  0.7465  0.8130
   72MOL   H37244534   3.396   3.209   5.298  0.1731 -0.1064  0.8728
   72MOL   H37344535   3.405   3.185   5.457 -1.5975 -1.7067  2.0372
   72MOL   C37444536   3.380   3.001   5.359 -0.3282  0.1621 -0.3491
   72MOL   O37544537   3.526   2.992   5.338  0.2254  0.5413 -0.4930
   72MOL   C37644538   3.627   3.005   5.438 -0.4270  0.0425 -0.6507
   72MOL   C37744539   3.754   2.929   5.384  0.0974 -0.0201  0.3990
   72MOL   C37844540   3.742   2.777   5.350 -0.1207 -0.2019 -0.2704
   72MOL   C37944541   3.728   2.693   5.479  0.1194 -0.4753  0.0117
   72MOL   C38044542   3.668   2.549   5.455 -0.7221 -0.6188 -0.3721
   72MOL   C38144543   3.656   2.468   5.581  0.0861 -0.3797  0.4502
   72MOL   C38244544   3.561   2.348   5.562  0.2423 -0.2545  0.6562
   72MOL   C38344545   3.557   2.260   5.684  0.1536  0.8662  0.1720
   72MOL   C38444546   3.312   2.944   5.231  1.2047  0.1441  0.4763
   72MOL   H38544547   3.363   2.946   5.451 -0.3691  0.8253  0.0396
   72MOL   H38644548   3.594   2.954   5.528  0.3883  1.0525  0.2262
   72MOL   H38744549   3.634   3.111   5.461 -0.8987 -0.0334 -0.1614
   72MOL   H38844550   3.840   2.944   5.449 -0.7887  2.2388  1.1103
   72MOL   H38944551   3.779   2.979   5.290 -1.7998 -0.5611 -0.4030
   72MOL   H39044552   3.656   2.762   5.284  1.2051  2.2121 -2.6943
   72MOL   H39144553   3.832   2.746   5.297  1.3628 -0.6041  2.4094
   72MOL   H39244554   3.825   2.681   5.527  0.1119 -0.1020  0.1183
   72MOL   H39344555   3.668   2.750   5.550 -0.9379 -1.0958 -0.3575
   72MOL   H39444556   3.571   2.566   5.409 -1.6679  1.8620  2.3976
   72MOL   H39544557   3.731   2.488   5.392  1.6889  0.7054  0.6797
   72MOL   H39644558   3.624   2.537   5.659 -0.6067  0.6604 -0.7358
   72MOL   H39744559   3.756   2.440   5.613  0.8050 -0.0294 -1.3990
   72MOL   H39844560   3.465   2.381   5.520  1.0224  2.9417  1.2113
   72MOL   H39944561   3.611   2.289   5.486 -2.3011 -0.2412 -1.1084
   72MOL   H40044562   3.502   2.166   5.673 -0.6766  1.1836  1.4196
   72MOL   H40144563   3.494   2.311   5.758  0.2878  1.2849 -0.0011
   72MOL   H40244564   3.657   2.244   5.722  0.6297  4.0106  0.3878
   72MOL   H40344565   3.204   2.947   5.247  0.6864 -0.2986 -2.5605
   72MOL   H40444566   3.329   3.011   5.146 -0.9030 -0.3003 -0.3498
   72MOL   C40544567   3.352   2.802   5.202  0.4986  0.4673 -0.5171
   72MOL   O40644568   3.300   2.769   5.077  0.3609 -0.2156 -0.9631
   72MOL   C40744569   3.384   2.713   4.984 -0.4996 -0.5979 -0.1389
   72MOL   C40844570   3.294   2.693   4.860  0.5848 -0.3202  0.5375
   72MOL   C40944571   3.167   2.602   4.875  0.3799  0.3363  0.2737
   72MOL   C41044572   3.117   2.540   4.733  0.2546  0.5743  0.2942
   72MOL   C41144573   3.072   2.639   4.630  0.4330 -0.3943 -0.1352
   72MOL   C41244574   3.015   2.568   4.506  0.4937 -0.2092  0.1632
   72MOL   C41344575   2.866   2.551   4.522 -0.3250 -0.2500 -0.6120
   72MOL   C41444576   2.814   2.462   4.413  0.1546  0.1573  0.5595
   72MOL   C41544577   3.302   2.697   5.303 -0.0688 -0.1142  0.6160
   72MOL   H41644578   3.461   2.797   5.202  0.5170  0.8781 -0.9046
   72MOL   H41744579   3.420   2.618   5.022 -1.7747 -0.6369  1.0459
   72MOL   H41844580   3.464   2.782   4.959  1.0709 -1.5256  2.1962
   72MOL   H41944581   3.355   2.653   4.779 -1.9191 -0.0456 -1.5358
   72MOL   H42044582   3.260   2.789   4.821  1.8234 -0.0789  0.0319
   72MOL   H42144583   3.184   2.520   4.945  1.1151 -1.0165 -1.4418
   72MOL   H42244584   3.082   2.659   4.911  0.2419 -1.2670  2.6218
   72MOL   H42344585   3.197   2.474   4.700 -0.5627 -0.0248 -0.4890
   72MOL   H42444586   3.036   2.468   4.736  0.1943  0.5560 -1.2741
   72MOL   H42544587   3.008   2.713   4.679  2.6749  1.3771  0.2063
   72MOL   H42644588   3.163   2.685   4.591  1.4768 -0.3147  2.3177
   72MOL   H42744589   3.061   2.470   4.489  2.5905  0.9803 -1.2303
   72MOL   H42844590   3.028   2.622   4.413 -0.5745 -0.4779 -0.1497
   72MOL   H42944591   2.846   2.502   4.617 -2.0771  1.3534 -0.1301
   72MOL   H43044592   2.814   2.646   4.512 -2.6073 -1.4415 -0.4172
   72MOL   H43144593   2.843   2.506   4.317  1.6927  0.0784  0.9773
   72MOL   H43244594   2.705   2.456   4.419 -0.0814 -0.3275 -3.1546
   72MOL   H43344595   2.855   2.362   4.413 -1.9367 -0.7328  1.0740
   72MOL   H43444596   3.325   2.597   5.266  1.3971  0.5082 -0.1964
   72MOL   H43544597   3.360   2.709   5.394  1.3507 -0.6812 -0.2054
   72MOL   C43644598   3.148   2.694   5.336 -0.2736  0.6223 -0.2627
   72MOL   O43744599   3.121   2.601   5.439  0.5178 -0.4583  0.1286
   72MOL   C43844600   3.143   2.658   5.568  0.4124 -0.7777 -0.2992
   72MOL   C43944601   3.126   2.547   5.672  0.1932 -0.7438  0.1687
   72MOL   C44044602   2.983   2.507   5.684  0.3132 -0.3830 -0.5231
   72MOL   C44144603   2.894   2.610   5.753 -0.6486  0.1826  0.8574
   72MOL   C44244604   2.772   2.555   5.831  0.1217 -0.0398 -0.3838
   72MOL   C44344605   2.713   2.664   5.925  0.3895 -0.8160  0.7799
   72MOL   C44444606   2.621   2.606   6.040  0.9630 -1.0017  0.2158
   72MOL   C44544607   2.574   2.708   6.144 -0.0581 -0.0430 -0.6229
   72MOL   C44644608   3.060   2.645   5.224 -0.1333  0.6372 -0.2801
   72MOL   H44744609   3.111   2.792   5.364 -0.8890  0.7045 -1.2935
   72MOL   H44844610   3.244   2.699   5.572 -0.1810  0.6485  0.0040
   72MOL   H44944611   3.078   2.744   5.577  1.5276  0.1502 -0.9605
   72MOL   H45044612   3.176   2.569   5.766  0.6003 -0.7735 -0.0427
   72MOL   H45144613   3.178   2.467   5.621 -0.4444 -0.8035 -0.3896
   72MOL   H45244614   2.955   2.458   5.591 -0.7286  1.1763 -1.0542
   72MOL   H45344615   2.993   2.426   5.757  1.4086 -1.3807 -1.7699
   72MOL   H45444616   2.957   2.669   5.819 -0.7876  0.1153  1.0519
   72MOL   H45544617   2.851   2.682   5.684 -2.2546 -0.5212  1.0887
   72MOL   H45644618   2.704   2.505   5.762 -0.6913  0.6549 -0.0833
   72MOL   H45744619   2.818   2.483   5.899 -0.6983  0.3552  0.5991
   72MOL   H45844620   2.650   2.729   5.865  0.5569 -2.8716 -1.7169
   72MOL   H45944621   2.792   2.733   5.954 -0.0963  0.1009 -0.0639
   72MOL   H46044622   2.533   2.564   5.992 -1.5197  3.3639  0.7497
   72MOL   H46144623   2.658   2.516   6.090 -0.3548 -1.0738  1.1027
   72MOL   H46244624   2.651   2.737   6.215 -0.9127  1.2023 -0.1773
   72MOL   H46344625   2.494   2.661   6.202  1.4146 -1.4891  0.2495
   72MOL   H46444626   2.531   2.802   6.107 -0.3302  0.0245 -0.1388
   72MOL   H46544627   3.079   2.709   5.138 -2.1853  1.4392 -0.1509
   72MOL   H46644628   3.082   2.544   5.189  2.3914  0.7246  0.9114
   72MOL   C46744629   2.909   2.649   5.237  0.2569 -0.0129  0.2714
   72MOL   O46844630   2.846   2.623   5.104  0.4705  0.4090 -0.1456
   72MOL   C46944631   2.834   2.482   5.064 -1.0012 -0.1795 -0.5362
   72MOL   C47044632   2.766   2.475   4.926 -0.0324  0.4240 -0.0736
   72MOL   C47144633   2.626   2.539   4.937  0.0496  0.3704 -0.6049
   72MOL   C47244634   2.549   2.527   4.809  0.1525 -0.0880  0.6386
   72MOL   C47344635   2.414   2.586   4.836 -0.1855 -0.8074  0.6592
   72MOL   C47444636   2.314   2.584   4.713 -0.2114 -0.2521 -0.1736
   72MOL   C47544637   2.183   2.644   4.757  0.0281 -0.7806 -0.3518
   72MOL   C47644638   2.072   2.657   4.653 -0.1186 -0.7900 -0.2232
   72MOL   C47744639   2.849   2.780   5.292 -0.3932 -0.4683 -0.1181
   72MOL   H47844640   2.886   2.570   5.309  2.2951 -1.1832 -0.3383
   72MOL   H47944641   2.781   2.416   5.133  1.6645 -1.1662  0.6262
   72MOL   H48044642   2.932   2.435   5.053  1.0149  3.6158  0.4808
   72MOL   H48144643   2.767   2.372   4.891  0.0962 -0.1224  1.5012
   72MOL   H48244644   2.827   2.520   4.848  0.3571 -2.4800 -1.5127
   72MOL   H48344645   2.568   2.510   5.024 -1.0075  1.1009 -1.0500
   72MOL   H48444646   2.642   2.647   4.947  1.2277  0.1474  0.0335
   72MOL   H48544647   2.589   2.586   4.727 -1.7323 -0.4193 -0.5606
   72MOL   H48644648   2.552   2.427   4.766 -1.9172 -1.0927  2.6836
   72MOL   H48744649   2.370   2.547   4.928 -0.2088  0.3693  1.1549
   72MOL   H48844650   2.424   2.691   4.864 -1.3291  0.1302 -2.2258
   72MOL   H48944651   2.306   2.484   4.669  2.3270  0.1246 -1.5929
   72MOL   H49044652   2.343   2.653   4.634 -0.1993  1.0609  0.9558
   72MOL   H49144653   2.147   2.564   4.821 -0.7260  0.7674  1.2216
   72MOL   H49244654   2.189   2.732   4.821 -0.6808 -1.7811  1.1165
   72MOL   H49344655   2.029   2.571   4.600  2.4096  0.3068 -4.3008
   72MOL   H49444656   2.114   2.718   4.572 -0.9478  1.4568  1.0129
   72MOL   H49544657   1.997   2.724   4.694  1.0235 -0.7893  1.9539
   72MOL   H49644658   2.892   2.799   5.390  0.2607  1.2747 -0.7280
   72MOL   H49744659   2.880   2.865   5.231  1.3056 -0.4793  0.7132
   72MOL   C49844660   2.692   2.780   5.302  0.1056 -0.2930  0.0435
   72MOL   O49944661   2.640   2.916   5.335  0.5558  0.2158 -0.5027
   72MOL   C50044662   2.655   3.010   5.233  0.3735  0.1025 -0.2126
   72MOL   C50144663   2.574   3.122   5.285  0.5351  0.4408 -0.2703
   72MOL   C50244664   2.426   3.082   5.292  0.1854  0.2452  0.1435
   72MOL   C50344665   2.339   3.205   5.320  0.1646 -0.9048 -0.2273
   72MOL   C50444666   2.182   3.167   5.328 -0.4597  0.5185 -0.1369
   72MOL   C50544667   2.121   3.109   5.456 -0.3150 -0.6249 -0.1166
   72MOL   C50644668   1.973   3.089   5.454  0.2310  0.2378 -0.0061
   72MOL   C50744669   1.925   3.008   5.571  0.3853  0.2290 -1.0250
   72MOL   C50844670   2.640   2.692   5.412 -0.2829  0.1558 -0.2804
   72MOL   H50944671   2.669   2.743   5.202 -0.1652  0.7650 -0.2858
   72MOL   H51044672   2.619   2.993   5.132  3.2569 -1.4795 -1.0207
   72MOL   H51144673   2.760   3.028   5.213  0.3267 -0.1783 -0.7196
   72MOL   H51244674   2.593   3.208   5.221 -2.0728  0.6420 -0.8254
   72MOL   H51344675   2.607   3.145   5.386 -4.1039 -0.1156  1.5232
   72MOL   H51444676   2.390   3.024   5.207 -0.6186  0.3681  0.4029
   72MOL   H51544677   2.418   3.010   5.374  0.2227 -1.7541 -1.5581
   72MOL   H51644678   2.375   3.256   5.409  0.8728  1.5586 -1.8475
   72MOL   H51744679   2.364   3.273   5.238  1.4640 -0.9414  0.1264
   72MOL   H51844680   2.136   3.266   5.323  0.3549  0.8767 -0.6048
   72MOL   H51944681   2.141   3.114   5.242  1.1434  0.0354 -0.6182
   72MOL   H52044682   2.161   3.179   5.529 -2.0462 -0.8892  1.1106
   72MOL   H52144683   2.162   3.011   5.484  0.4081 -0.8761 -1.9724
   72MOL   H52244684   1.916   3.182   5.463  0.9035  0.6137  0.4407
   72MOL   H52344685   1.946   3.035   5.363  1.3603  0.9527 -0.7831
   72MOL   H52444686   1.817   3.021   5.566 -0.0838 -3.4475 -2.0902
   72MOL   H52544687   1.971   3.040   5.664 -1.0938  0.8080 -0.4777
   72MOL   H52644688   1.952   2.905   5.549 -0.9366 -0.3046 -0.2066
   72MOL   H52744689   2.697   2.599   5.408 -0.2490  0.1452  0.5045
   72MOL   H52844690   2.661   2.738   5.508 -2.4868  1.8732 -0.5724
   72MOL   C52944691   2.490   2.664   5.419 -0.0277 -0.1103  0.1160
   72MOL   O53044692   2.455   2.587   5.540  0.2328  0.0166 -0.3154
   72MOL   C53144693   2.455   2.646   5.664  0.0187 -0.3006  0.5405
   72MOL   C53244694   2.320   2.713   5.688 -0.0460  0.4287 -1.3365
   72MOL   C53344695   2.315   2.755   5.836  0.2006 -0.2332 -0.7524
   72MOL   C53444696   2.196   2.852   5.864  0.0201 -0.2537 -0.1347
   72MOL   C53544697   2.225   2.928   5.990 -0.8164  0.1257 -0.2529
   72MOL   C53644698   2.198   2.846   6.116 -0.7859 -0.0473 -0.2158
   72MOL   C53744699   2.206   2.917   6.245  0.1567 -0.0346  0.0879
   72MOL   C53844700   2.195   2.831   6.367  0.5593  0.0157 -0.4912
   72MOL   C53944701   2.440   2.594   5.290 -0.2617  0.3029  0.0173
   72MOL   H54044702   2.453   2.766   5.423 -1.6232 -0.7369  1.8776
   72MOL   H54144703   2.486   2.571   5.737  0.4371  0.2800  0.9574
   72MOL   H54244704   2.527   2.727   5.665  1.1262 -1.2556  0.2934
   72MOL   H54344705   2.240   2.642   5.666 -0.0749 -0.1223  0.4473
   72MOL   H54444706   2.294   2.792   5.618  0.4886  1.2422 -0.6155
   72MOL   H54544707   2.328   2.660   5.889 -1.2189  0.2490  0.4708
   72MOL   H54644708   2.408   2.806   5.862 -0.2461 -0.6926  1.9141
   72MOL   H54744709   2.178   2.921   5.782  0.9470  1.4590  1.0742
   72MOL   H54844710   2.099   2.804   5.879 -1.8251  3.5148  0.4563
   72MOL   H54944711   2.323   2.976   5.990 -0.3052 -0.9154  0.5693
   72MOL   H55044712   2.168   3.021   5.995 -0.8985  0.1667 -1.7520
   72MOL   H55144713   2.270   2.763   6.118 -0.1287  0.2742 -4.5547
   72MOL   H55244714   2.096   2.811   6.124 -0.2675 -1.6299 -0.2655
   72MOL   H55344715   2.296   2.976   6.264  0.3443 -0.9652  2.1780
   72MOL   H55444716   2.118   2.981   6.247 -2.5735 -3.5688 -1.7807
   72MOL   H55544717   2.236   2.874   6.457  0.4440  1.5043 -1.1367
   72MOL   H55644718   2.238   2.731   6.361  2.3007  0.6668  0.9607
   72MOL   H55744719   2.092   2.827   6.402  0.2123  0.1528 -1.4783
   72MOL   H55844720   2.467   2.658   5.205 -0.7508 -0.6146 -0.8371
   72MOL   H55944721   2.485   2.499   5.263 -1.9917 -0.4635 -0.1993
   72MOL   C56044722   2.289   2.573   5.282 -0.5641  0.4162  0.5634
   72MOL   O56144723   2.271   2.480   5.175 -0.0726  0.5082  0.2855
   72MOL   C56244724   2.256   2.344   5.217 -0.6427 -0.1202 -0.4749
   72MOL   C56344725   2.211   2.276   5.090  0.6091  0.6007  0.6846
   72MOL   C56444726   2.084   2.329   5.024  0.7646  0.3650 -0.5700
   72MOL   C56544727   2.009   2.245   4.919  0.1977 -0.0966 -0.2415
   72MOL   C56644728   2.092   2.186   4.805 -1.0276 -0.1404 -0.1588
   72MOL   C56744729   2.009   2.094   4.716  0.8036  0.4507  0.3759
   72MOL   C56844730   2.082   2.042   4.583  0.4763  0.3682 -0.3811
   72MOL   C56944731   1.984   1.948   4.499  0.3173 -0.1616  0.2834
   72MOL   C57044732   2.214   2.704   5.249 -0.3221 -0.2414  0.2714
   72MOL   H57144733   2.254   2.521   5.371 -0.3002  0.0310  0.4425
   72MOL   H57244734   2.177   2.334   5.291 -1.0731  0.0030 -0.9130
   72MOL   H57344735   2.348   2.306   5.261 -0.6701  3.1836  2.5944
   72MOL   H57444736   2.206   2.168   5.103  0.5022  0.4378 -0.7008
   72MOL   H57544737   2.297   2.274   5.023  0.5876  1.4730  0.6230
   72MOL   H57644738   2.011   2.346   5.103 -0.8580  0.0760 -1.9765
   72MOL   H57744739   2.101   2.432   4.991  0.1972  0.5126 -0.4038
   72MOL   H57844740   1.957   2.167   4.974 -3.6520  2.8915  0.5733
   72MOL   H57944741   1.924   2.293   4.871 -0.7999 -1.8608 -0.2710
   72MOL   H58044742   2.137   2.267   4.746  2.6391 -0.0424  2.5410
   72MOL   H58144743   2.177   2.130   4.844 -1.3873 -2.1163 -2.1734
   72MOL   H58244744   1.918   2.147   4.688  1.4125  0.5415 -1.5163
   72MOL   H58344745   1.988   2.003   4.772  3.1636  0.7646  1.8492
   72MOL   H58444746   2.108   2.121   4.511  2.1226 -0.8160 -1.1223
   72MOL   H58544747   2.183   2.000   4.587  0.1644 -0.4451 -0.8906
   72MOL   H58644748   1.912   2.003   4.439 -0.4861  1.8417  2.9701
   72MOL   H58744749   1.927   1.874   4.555 -1.9257  1.4482  0.2057
   72MOL   H58844750   2.039   1.891   4.425 -1.8721  1.4055 -2.6654
   72MOL   H58944751   2.230   2.779   5.327 -0.9896 -1.1768  1.3140
   72MOL   H59044752   2.258   2.739   5.156 -0.3889 -0.1365  0.2797
   72MOL   C59144753   2.060   2.677   5.236 -0.3366 -0.4231  0.1989
   72MOL   O59244754   1.993   2.794   5.209 -0.1129  0.2755  0.1091
   72MOL   C59344755   1.984   2.814   5.067 -0.1298 -0.5326  0.5507
   72MOL   C59444756   1.926   2.955   5.040 -0.1303  0.2967 -0.7045
   72MOL   C59544757   1.782   2.976   5.110 -0.2299 -0.0233  0.2957
   72MOL   C59644758   1.738   3.123   5.096  0.0004 -0.9494  0.8917
   72MOL   C59744759   1.626   3.156   5.197  0.1254 -0.3837  0.1862
   72MOL   C59844760   1.588   3.302   5.222 -0.1952 -0.3003 -0.1982
   72MOL   C59944761   1.468   3.308   5.320  0.3705 -0.4568 -0.7848
   72MOL   C60044762   1.502   3.266   5.467  0.3352  0.2375  0.5336
   72MOL   C60144763   1.999   2.635   5.365 -1.0562 -0.3569  0.1631
   72MOL   H60244764   2.028   2.604   5.162  3.0247 -1.0124 -0.7903
   72MOL   H60344765   1.936   2.735   5.008  0.8570 -0.2465 -0.6640
   72MOL   H60444766   2.083   2.816   5.022 -0.2779 -2.1529  0.1055
   72MOL   H60544767   1.924   2.963   4.932  1.1444  0.0971 -0.7540
   72MOL   H60644768   1.997   3.029   5.077 -0.8307  1.1220 -0.9991
   72MOL   H60744769   1.724   2.898   5.061 -0.3867  0.2196  0.0974
   72MOL   H60844770   1.785   2.951   5.216 -0.2880 -1.4909 -0.0436
   72MOL   H60944771   1.826   3.187   5.108 -0.3751 -0.1961 -0.2313
   72MOL   H61044772   1.706   3.124   4.991  0.4339  0.2535  0.7564
   72MOL   H61144773   1.538   3.099   5.166 -0.9971  0.0852  2.4090
   72MOL   H61244774   1.648   3.116   5.296  1.7355  0.5964  0.2379
   72MOL   H61344775   1.562   3.349   5.128  0.5202 -0.5883 -0.5419
   72MOL   H61444776   1.679   3.355   5.251 -0.6167  1.5612 -2.1529
   72MOL   H61544777   1.442   3.413   5.310  3.1673  0.2247 -1.5368
   72MOL   H61644778   1.383   3.254   5.279  1.1488 -1.4148 -1.1566
   72MOL   H61744779   1.552   3.169   5.475  2.0423  1.0366 -0.1643
   72MOL   H61844780   1.419   3.276   5.537  0.0757  1.7255  0.0199
   72MOL   H61944781   1.577   3.339   5.497  0.8988 -0.4017  0.6819
   72MOL   H62044782   2.026   2.703   5.446 -0.1790 -1.0641  0.4780
   72MOL   H62144783   1.891   2.633   5.352 -1.3644 -1.4777  2.6478
   72MOL   H62244784   2.034   2.540   5.405 -3.0414 -1.1872 -0.0007
   73MOL     C144785   5.333   0.063   4.048 -0.2370  0.3952 -0.1142
   73MOL     O244786   5.343   0.150   3.937  0.0543  0.5059  0.2448
   73MOL     C344787   5.279   0.275   3.961 -0.5882  0.2166  0.1838
   73MOL     C444788   5.247   0.348   3.837  0.2443 -0.7863  0.7671
   73MOL     C544789   5.362   0.417   3.757 -0.1129 -0.1997  0.0361
   73MOL     C644790   5.318   0.506   3.639 -0.2352  0.9307  0.1543
   73MOL     C744791   5.204   0.606   3.679 -0.0203 -0.1511 -1.0875
   73MOL     C844792   5.203   0.740   3.595 -0.2239 -0.5759  0.2311
   73MOL     C944793   5.085   0.829   3.607  0.0666  1.0219  0.0307
   73MOL    C1044794   4.958   0.776   3.539  0.0779  0.2425  0.5702
   73MOL    C1144795   5.441   0.089   4.155 -0.5617  0.2158  0.4955
   73MOL    H1244796   5.229   0.063   4.079 -0.2835 -0.2692 -0.2731
   73MOL    H1344797   5.328   0.346   4.028 -0.1872 -0.5336  0.7037
   73MOL    H1444798   5.184   0.246   4.007 -0.6487 -1.2231 -0.8268
   73MOL    H1544799   5.186   0.431   3.871  0.8027 -1.2239  2.9075
   73MOL    H1644800   5.195   0.294   3.757 -2.5577 -0.0081  2.0065
   73MOL    H1744801   5.425   0.474   3.826  0.9856 -1.3437 -0.0089
   73MOL    H1844802   5.429   0.340   3.720  2.2944  1.9004 -0.1227
   73MOL    H1944803   5.401   0.575   3.623 -0.1359  0.3397 -2.0468
   73MOL    H2044804   5.297   0.457   3.544  0.7254 -1.7523  1.2695
   73MOL    H2144805   5.108   0.560   3.657  0.0737 -0.6334 -0.4858
   73MOL    H2244806   5.213   0.631   3.785 -2.3756 -0.8749 -0.6765
   73MOL    H2344807   5.234   0.722   3.492  2.2083  2.4640  0.3461
   73MOL    H2444808   5.299   0.790   3.610 -0.7721  0.5010  0.1447
   73MOL    H2544809   5.074   0.864   3.709  0.1968  0.4606  0.2403
   73MOL    H2644810   5.123   0.910   3.545  2.0708  0.3574  0.3476
   73MOL    H2744811   4.959   0.669   3.519  0.7623  0.2356  0.6526
   73MOL    H2844812   4.954   0.830   3.444  3.2402 -1.2699 -0.4843
   73MOL    H2944813   4.872   0.795   3.604  1.5320 -0.0030  2.5947
   73MOL    H3044814   5.447   0.193   4.186  1.7322 -0.4648  2.5239
   73MOL    H3144815   5.405   0.026   4.236 -1.4574  1.3458  0.9855
   73MOL    H3244816   5.360   7.742   4.002  1.5058  0.0698  1.5282
   73MOL    C3344817   5.576   0.033   4.128 -0.7607 -1.7293  0.5169
   73MOL    O3444818   5.567   7.663   4.139 -0.0039 -0.4860  0.5528
   73MOL    C3544819   5.586   7.583   4.025  0.4355  0.0884 -0.4505
   73MOL    C3644820   5.579   7.439   4.076 -0.5779  0.0078 -0.1231
   73MOL    C3744821   5.714   7.407   4.147 -0.1578  0.7696  0.3229
   73MOL    C3844822   5.700   7.272   4.224  0.1941 -0.1768  0.2358
   73MOL    C3944823   5.835   7.225   4.259  0.3395 -0.3958  0.7764
   73MOL    C4044824   5.903   7.289   4.381  0.0673 -0.6577  0.8693
   73MOL    C4144825   6.011   7.204   4.444 -0.3603 -0.5496  0.1879
   73MOL    C4244826   6.092   7.288   4.548  0.5445 -0.1523 -0.1322
   73MOL    C4344827   5.666   0.063   4.251  0.0433 -1.2573  0.5855
   73MOL    H4444828   5.614   0.071   4.033 -2.3911 -3.2019 -0.7592
   73MOL    H4544829   5.689   7.594   3.992  0.1958  2.0554 -0.5615
   73MOL    H4644830   5.516   7.612   3.947  0.6346  1.7506 -0.0243
   73MOL    H4744831   5.557   7.369   3.996 -3.7453 -0.9179  1.4945
   73MOL    H4844832   5.504   7.423   4.153 -2.4593  0.7350 -1.7680
   73MOL    H4944833   5.803   7.397   4.086 -0.8081 -0.9305 -0.3940
   73MOL    H5044834   5.737   7.483   4.222  1.9834  0.2956  0.1744
   73MOL    H5144835   5.639   7.278   4.315 -2.8219 -0.2862 -1.7102
   73MOL    H5244836   5.662   7.195   4.158  1.7607 -0.9151  0.1706
   73MOL    H5344837   5.823   7.121   4.289  1.7278 -0.8685 -0.2878
   73MOL    H5444838   5.913   7.215   4.184  0.5252  1.4367  0.6911
   73MOL    H5544839   5.829   7.325   4.452  1.0464  1.0023  1.0636
   73MOL    H5644840   5.954   7.381   4.351 -0.2067 -0.4638  0.9994
   73MOL    H5744841   5.961   7.120   4.490 -0.1602  0.1992  1.8016
   73MOL    H5844842   6.073   7.161   4.365  1.5334 -0.8795  1.8252
   73MOL    H5944843   6.152   7.373   4.515  1.4736 -0.3050  1.1823
   73MOL    H6044844   6.156   7.215   4.598 -1.6481 -1.2808  1.0953
   73MOL    H6144845   6.020   7.322   4.622  0.0126 -0.3435 -0.5504
   73MOL    H6244846   5.660   0.169   4.274 -1.2451 -1.1277 -0.3357
   73MOL    H6344847   5.618   0.031   4.343  0.3435  0.7863  1.4641
   73MOL    C6444848   5.816   0.034   4.230  0.4977 -0.6965  0.6593
   73MOL    O6544849   5.885   0.037   4.353  0.0762  0.0327 -0.1695
   73MOL    C6644850   5.910   7.679   4.409 -0.1664  0.0358  0.1369
   73MOL    C6744851   6.012   7.680   4.523 -0.0839  0.4770 -0.0179
   73MOL    C6844852   6.148   7.734   4.463  0.4541  0.1555  0.4915
   73MOL    C6944853   6.232   7.768   4.581 -0.6041 -0.1254 -0.1287
   73MOL    C7044854   6.379   0.022   4.551 -0.1094 -0.2394 -0.0133
   73MOL    C7144855   6.472   0.012   4.674  0.1780 -0.2025 -1.0929
   73MOL    C7244856   6.598   0.094   4.677 -0.3328 -0.6321 -0.2239
   73MOL    C7344857   6.584   0.237   4.638  0.2735  0.1456 -0.1765
   73MOL    C7444858   5.883   0.134   4.137  0.1501 -0.4017  0.7206
   73MOL    H7544859   5.829   7.718   4.171 -1.6590  0.5309 -1.7973
   73MOL    H7644860   5.933   7.604   4.334  2.0664 -0.1285  0.9319
   73MOL    H7744861   5.815   7.642   4.446  0.1654 -0.5026  0.4624
   73MOL    H7844862   6.024   7.582   4.569  0.8543  0.5183 -0.1735
   73MOL    H7944863   5.975   7.756   4.592  1.7929 -0.9321  2.6628
   73MOL    H8044864   6.188   7.648   4.409 -0.8153 -1.0154  1.3681
   73MOL    H8144865   6.147   0.042   4.393  2.5872 -0.2303 -0.0081
   73MOL    H8244866   6.185   0.066   4.647  1.0316  1.1711 -0.3422
   73MOL    H8344867   6.221   7.679   4.643  0.1617  0.0621  0.2851
   73MOL    H8444868   6.424   7.733   4.475 -2.2771  1.6293 -2.9398
   73MOL    H8544869   6.387   0.118   4.502 -1.1258 -0.9724 -1.6423
   73MOL    H8644870   6.481   7.683   4.708  0.4627  0.1047 -0.2233
   73MOL    H8744871   6.416   0.055   4.757 -1.5302 -2.6708 -0.9018
   73MOL    H8844872   6.652   0.100   4.772  1.2532  2.3328 -1.2286
   73MOL    H8944873   6.675   0.054   4.612  1.7983  0.7584  1.3714
   73MOL    H9044874   6.545   0.255   4.538 -2.2526  1.2354  0.9631
   73MOL    H9144875   6.685   0.275   4.651  0.7105 -0.9617 -0.2408
   73MOL    H9244876   6.503   0.276   4.700  1.7512  0.8263  1.3710
   73MOL    H9344877   5.986   0.102   4.124 -0.1269 -1.1487  0.2808
   73MOL    H9444878   5.833   0.118   4.041  0.2832  0.0705  0.5704
   73MOL    C9544879   5.884   0.284   4.186 -0.1171  0.5158 -0.6521
   73MOL    O9644880   5.762   0.356   4.156  0.1402  1.0254  0.2622
   73MOL    C9744881   5.744   0.471   4.242  0.6550  0.1004 -0.5771
   73MOL    C9844882   5.633   0.550   4.174 -0.0287 -0.4416  0.1058
   73MOL    C9944883   5.587   0.679   4.241 -0.0983  0.3226 -0.4805
   73MOL   C10044884   5.470   0.742   4.164 -0.2821  0.2686  0.1388
   73MOL   C10144885   5.339   0.658   4.138 -0.3747 -0.3820  0.5511
   73MOL   C10244886   5.234   0.758   4.085  0.4254 -0.3385  0.4637
   73MOL   C10344887   5.088   0.692   4.071 -0.0828 -0.4549 -0.4851
   73MOL   C10444888   4.992   0.807   4.025  0.1436 -0.2484  0.3810
   73MOL   C10544889   5.997   0.357   4.113 -0.2597  0.9441 -0.7067
   73MOL   H10644890   5.908   0.284   4.292  1.0409 -2.3553 -0.8754
   73MOL   H10744891   5.841   0.520   4.252  1.1995 -0.7847 -1.4344
   73MOL   H10844892   5.711   0.441   4.342 -1.0494  0.7924 -0.9281
   73MOL   H10944893   5.553   0.477   4.163 -0.0190 -0.3234 -0.7249
   73MOL   H11044894   5.671   0.581   4.077  1.6882  0.5679  1.0673
   73MOL   H11144895   5.566   0.663   4.347  0.8395  2.0507 -0.0188
   73MOL   H11244896   5.664   0.756   4.244  0.5905 -0.2899 -2.4018
   73MOL   H11344897   5.444   0.839   4.207 -2.0781  0.0214 -0.3768
   73MOL   H11444898   5.515   0.767   4.067  1.9644  2.0868  1.5771
   73MOL   H11544899   5.366   0.577   4.071  1.3561  2.0119 -1.7332
   73MOL   H11644900   5.306   0.619   4.235 -0.9880 -0.6927  0.2187
   73MOL   H11744901   5.272   0.794   3.989 -0.6501 -0.9374 -0.1949
   73MOL   H11844902   5.239   0.841   4.155  2.2851 -0.2300  0.2397
   73MOL   H11944903   5.088   0.613   3.997  0.2820 -0.1798 -0.7836
   73MOL   H12044904   5.058   0.659   4.170  2.4691 -0.6691  0.2663
   73MOL   H12144905   4.894   0.767   4.000  1.0472 -2.1001 -0.3587
   73MOL   H12244906   5.026   0.843   3.928  0.1956  2.0466  1.2193
   73MOL   H12344907   4.985   0.892   4.092  0.4789  1.4968 -1.7485
   73MOL   H12444908   6.000   0.306   4.017 -2.7087 -0.1026 -0.2387
   73MOL   H12544909   5.979   0.464   4.108  1.7445  1.2911 -1.1844
   73MOL   C12644910   6.132   0.338   4.185 -0.1697  0.3782 -0.6539
   73MOL   O12744911   6.133   0.418   4.307 -0.0187  0.1226  1.4780
   73MOL   C12844912   6.212   0.364   4.407 -0.8246  0.4347  0.4090
   73MOL   C12944913   6.178   0.465   4.519 -0.2109 -0.2560 -0.2183
   73MOL   C13044914   6.030   0.449   4.567 -0.0394  0.1851 -0.2249
   73MOL   C13144915   5.982   0.567   4.657  0.4417  0.8760 -0.3171
   73MOL   C13244916   5.840   0.535   4.709  0.4038 -0.2617 -0.1571
   73MOL   C13344917   5.770   0.662   4.762  0.8431  0.0464 -0.1602
   73MOL   C13444918   5.617   0.641   4.788  0.1024 -0.2541  0.3025
   73MOL   C13544919   5.524   0.683   4.672  0.0888 -0.0571 -0.0996
   73MOL   C13644920   6.239   0.397   4.088  0.2438  0.4876 -0.4592
   73MOL   H13744921   6.149   0.232   4.202  0.1293  0.5399  0.0825
   73MOL   H13844922   6.317   0.376   4.380 -0.7061 -1.7883 -0.1509
   73MOL   H13944923   6.195   0.259   4.428 -0.0826  0.3760  0.7149
   73MOL   H14044924   6.193   0.570   4.496 -2.4015 -0.0005 -0.5746
   73MOL   H14144925   6.245   0.440   4.601 -3.0603  1.3830  2.7472
   73MOL   H14244926   5.969   0.456   4.477 -1.2968 -2.1882  0.3961
   73MOL   H14344927   6.025   0.347   4.604  0.6464  0.5909  1.0010
   73MOL   H14444928   6.057   0.594   4.731 -1.5687  1.4433  1.5742
   73MOL   H14544929   5.982   0.657   4.595  1.1054  0.6679 -0.6317
   73MOL   H14644930   5.782   0.502   4.623 -0.5297 -2.4473  1.2639
   73MOL   H14744931   5.855   0.462   4.788  2.7604 -2.3830 -2.4766
   73MOL   H14844932   5.781   0.749   4.698  1.2581  1.3343  1.6138
   73MOL   H14944933   5.815   0.692   4.857  1.1443  1.4989 -0.7393
   73MOL   H15044934   5.598   0.536   4.812 -0.3267 -0.0252  0.9825
   73MOL   H15144935   5.587   0.709   4.868  0.2778 -2.6775  2.5112
   73MOL   H15244936   5.544   0.785   4.641  0.9913 -0.7091 -1.7987
   73MOL   H15344937   5.416   0.673   4.688 -0.8741  0.3910 -5.3200
   73MOL   H15444938   5.544   0.624   4.582  0.4076  0.2207 -0.2106
   73MOL   H15544939   6.214   0.495   4.048 -0.3444  0.1912 -0.8281
   73MOL   H15644940   6.329   0.418   4.147  1.0034 -3.6304  0.0255
   73MOL   C15744941   6.277   0.297   3.983 -0.3017  0.0005 -0.4360
   73MOL   O15844942   6.352   0.186   4.030  0.1687 -0.2366  0.0546
   73MOL   C15944943   6.321   0.059   3.971 -0.3413  0.8324  0.1992
   73MOL   C16044944   6.445   7.743   4.002 -0.1073  0.2548 -0.2157
   73MOL   C16144945   6.436   7.603   3.934  0.1259  0.0632 -0.0621
   73MOL   C16244946   6.330   7.508   3.991  0.1476 -0.8157  0.2816
   73MOL   C16344947   6.344   7.365   3.938  0.1618  0.2591 -0.1792
   73MOL   C16444948   6.237   7.274   4.003  0.8074  0.3917 -0.1885
   73MOL   C16544949   6.223   7.132   3.937  0.5847  0.5487 -0.3740
   73MOL   C16644950   6.107   7.064   4.007  0.0171 -0.4672 -0.1176
   73MOL   C16744951   6.351   0.370   3.871 -1.2430  0.0152 -0.9370
   73MOL   H16844952   6.184   0.259   3.941 -0.6396  2.5703 -2.1414
   73MOL   H16944953   6.314   0.056   3.863 -1.1978 -2.7644  0.2823
   73MOL   H17044954   6.226   0.021   4.009 -0.1947  0.0294 -0.2403
   73MOL   H17144955   6.450   7.733   4.111 -0.5664 -0.5530 -0.2665
   73MOL   H17244956   6.538   0.018   3.974 -0.9180  1.9805  0.0811
   73MOL   H17344957   6.421   7.612   3.826 -0.0159  2.1658  0.1196
   73MOL   H17444958   6.530   7.547   3.934  1.1379  1.7237 -0.6545
   73MOL   H17544959   6.357   7.509   4.097  1.2974  2.8223  0.0216
   73MOL   H17644960   6.224   7.528   3.982  1.0261  4.0163 -0.7325
   73MOL   H17744961   6.329   7.366   3.830  1.3104 -3.5448 -0.4672
   73MOL   H17844962   6.444   7.322   3.945  0.4935  0.8733 -1.0133
   73MOL   H17944963   6.144   7.329   3.994  1.4973  1.5827 -0.2195
   73MOL   H18044964   6.244   7.265   4.112 -2.1623 -3.6231 -0.2607
   73MOL   H18144965   6.208   7.152   3.831 -0.0058  0.3609 -0.3258
   73MOL   H18244966   6.322   7.089   3.952  0.3591  0.6166  1.4338
   73MOL   H18344967   6.017   7.126   4.017 -0.4231 -1.3178  1.4333
   73MOL   H18444968   6.131   7.035   4.109 -0.8855  0.8247  0.4719
   73MOL   H18544969   6.089   6.969   3.956  0.1292  0.1026 -1.2394
   73MOL   H18644970   6.409   0.457   3.900  0.2970 -0.2861 -2.9738
   73MOL   H18744971   6.439   0.312   3.843 -0.3209  0.5910  0.7412
   73MOL   C18844972   6.269   0.404   3.744 -0.2272 -1.0913 -0.9153
   73MOL   O18944973   6.358   0.475   3.654  0.6346  0.3464  0.2165
   73MOL   C19044974   6.446   0.396   3.574 -0.7282 -0.3773 -0.3738
   73MOL   C19144975   6.374   0.381   3.440  0.1265  0.3335  0.0851
   73MOL   C19244976   6.466   0.320   3.322 -0.4523  0.6606  0.5369
   73MOL   C19344977   6.400   0.240   3.208  0.3783  0.1270 -0.5727
   73MOL   C19444978   6.495   0.204   3.086 -0.3974 -0.0839 -0.0269
   73MOL   C19544979   6.523   0.328   3.003  0.4206 -0.2337  0.3345
   73MOL   C19644980   6.628   0.299   2.892 -0.1935  0.1584 -0.8984
   73MOL   C19744981   6.699   0.419   2.841 -0.7314 -0.3574  0.4340
   73MOL   C19844982   6.159   0.511   3.767  0.3777  0.0706  0.1635
   73MOL   H19944983   6.222   0.312   3.711 -0.1005 -0.7330 -2.1291
   73MOL   H20044984   6.533   0.460   3.560 -1.7236  0.4225 -3.4726
   73MOL   H20144985   6.482   0.307   3.626 -0.6818 -0.3957 -0.4371
   73MOL   H20244986   6.335   0.478   3.410  1.1176  0.9609  0.8039
   73MOL   H20344987   6.285   0.317   3.445  1.2511 -1.3397 -0.8954
   73MOL   H20444988   6.515   0.405   3.275  0.4786  2.1720  4.0528
   73MOL   H20544989   6.544   0.263   3.374  0.3818 -0.2751 -1.6750
   73MOL   H20644990   6.372   0.144   3.250  0.0801  1.0439  1.3659
   73MOL   H20744991   6.313   0.291   3.166 -0.7334  2.2033  3.9077
   73MOL   H20844992   6.593   0.186   3.130  0.5700  2.5948 -0.9823
   73MOL   H20944993   6.465   0.119   3.025 -0.7486  0.2365 -0.2997
   73MOL   H21044994   6.557   0.415   3.059 -0.5934 -0.0109  0.6067
   73MOL   H21144995   6.426   0.355   2.961  0.3876 -0.5005  0.2346
   73MOL   H21244996   6.701   0.230   2.935 -1.9580 -1.3066 -0.1802
   73MOL   H21344997   6.582   0.250   2.806 -0.6683  1.6150 -1.4968
   73MOL   H21444998   6.746   0.408   2.743 -1.9739  2.5343 -0.5462
   73MOL   H21544999   6.770   0.471   2.904 -1.6875  0.1134  1.1360
   73MOL   H21645000   6.634   0.507   2.838  0.6952  0.7495  1.2262
   73MOL   H21745001   6.101   0.481   3.854 -1.9426  2.6954 -0.4400
   73MOL   H21845002   6.216   0.603   3.778  0.9037 -0.1480 -0.5928
   73MOL   C21945003   6.065   0.536   3.648 -0.4396  0.0654 -0.4640
   73MOL   O22045004   5.978   0.638   3.697  0.9145 -0.4010 -0.1128
   73MOL   C22145005   6.010   0.768   3.658  0.2930 -0.7255  0.2817
   73MOL   C22245006   5.932   0.871   3.742 -0.1737 -0.2868  0.2125
   73MOL   C22345007   5.978   0.884   3.892  0.7930  0.3275 -0.2039
   73MOL   C22445008   5.910   1.001   3.957 -0.1851 -0.0552 -0.1568
   73MOL   C22545009   5.959   1.041   4.096  0.7641 -0.5625 -0.0563
   73MOL   C22645010   5.961   0.916   4.194  0.4108 -0.0068  0.7479
   73MOL   C22745011   6.037   0.931   4.328  0.7259  0.2106  0.2737
   73MOL   C22845012   5.999   1.055   4.408 -0.4663  0.3651 -0.0329
   73MOL   C22945013   5.977   0.410   3.601 -0.2638 -0.2216  0.1116
   73MOL   H23045014   6.125   0.579   3.568  0.1570  0.8408  0.3908
   73MOL   H23145015   5.993   0.772   3.550 -0.8527 -4.2602  0.2600
   73MOL   H23245016   6.118   0.780   3.655  0.2157  0.0360  0.6234
   73MOL   H23345017   5.826   0.844   3.742 -0.2236 -0.1018 -0.3236
   73MOL   H23445018   5.938   0.967   3.690  1.3805 -0.1210  0.6749
   73MOL   H23545019   5.969   0.786   3.940 -1.1950  0.5878 -0.0396
   73MOL   H23645020   6.085   0.905   3.892  1.2021 -1.5865  1.6420
   73MOL   H23745021   5.929   1.086   3.891  0.6723 -0.9160 -1.0285
   73MOL   H23845022   5.804   0.976   3.953 -0.0258 -0.5666 -1.3525
   73MOL   H23945023   6.053   1.097   4.097 -0.2674  1.2694 -1.9538
   73MOL   H24045024   5.881   1.109   4.130  0.7081 -0.7956  0.2876
   73MOL   H24145025   6.004   0.833   4.138  1.0364 -0.7307  2.2394
   73MOL   H24245026   5.863   0.874   4.217  0.1556 -1.4939 -2.8199
   73MOL   H24345027   6.023   0.843   4.391 -0.4593 -0.3629 -0.7729
   73MOL   H24445028   6.144   0.921   4.310  0.5538 -0.6121 -0.3335
   73MOL   H24545029   6.046   1.072   4.505  0.5734  1.2646 -0.6859
   73MOL   H24645030   5.893   1.050   4.434 -1.2322  3.1087 -2.3977
   73MOL   H24745031   6.007   1.156   4.370  1.5139 -0.4246 -1.8118
   73MOL   H24845032   6.045   0.333   3.564 -0.8803 -0.0482 -1.4246
   73MOL   H24945033   5.938   0.364   3.692 -1.1981 -1.7122 -1.0318
   73MOL   C25045034   5.862   0.440   3.510 -0.3796 -0.2176  0.1500
   73MOL   O25145035   5.789   0.320   3.493  0.1766  0.2283  0.3555
   73MOL   C25245036   5.662   0.331   3.559 -0.0479  0.4349 -0.5131
   73MOL   C25345037   5.603   0.183   3.548  0.2931 -0.4385 -0.0280
   73MOL   C25445038   5.661   0.079   3.650  0.0454 -0.6206 -0.3381
   73MOL   C25545039   5.580   7.720   3.669 -0.6456  0.0274  0.1002
   73MOL   C25645040   5.553   7.641   3.541  0.4364 -0.0720  0.3826
   73MOL   C25745041   5.501   7.504   3.572 -0.2863 -0.3892 -0.5963
   73MOL   C25845042   5.445   7.421   3.452  0.0744 -0.2394  0.0577
   73MOL   C25945043   5.550   7.356   3.369  0.2250 -0.1880 -0.4948
   73MOL   C26045044   5.889   0.491   3.361  0.4402 -0.4646 -0.3866
   73MOL   H26145045   5.795   0.514   3.552 -0.7417  0.0500 -0.8828
   73MOL   H26245046   5.597   0.394   3.498 -1.1586 -2.3818 -2.3651
   73MOL   H26345047   5.673   0.353   3.665 -0.1521 -1.8358 -0.0157
   73MOL   H26445048   5.627   0.141   3.451  1.3079  2.9077 -1.2978
   73MOL   H26545049   5.495   0.194   3.554  0.5160  2.1684 -0.3460
   73MOL   H26645050   5.762   0.056   3.613  0.4990  1.2948 -0.3374
   73MOL   H26745051   5.683   0.132   3.743 -0.9815  1.0315 -1.0188
   73MOL   H26845052   5.632   7.660   3.744  2.1245  1.5110 -0.5506
   73MOL   H26945053   5.481   7.750   3.703 -1.3006 -0.4402 -1.3554
   73MOL   H27045054   5.496   7.704   3.473 -0.2956 -0.2431  0.8303
   73MOL   H27145055   5.648   7.624   3.490  0.7562  1.7710  0.3373
   73MOL   H27245056   5.422   7.523   3.645  2.1504 -0.8734  2.2544
   73MOL   H27345057   5.580   7.450   3.622 -0.6088 -2.1028 -1.8928
   73MOL   H27445058   5.369   7.355   3.491 -1.1420  0.1201 -1.6762
   73MOL   H27545059   5.391   7.483   3.381  0.1737  0.4999  0.6071
   73MOL   H27645060   5.598   7.428   3.303  0.9821 -0.2007  0.0365
   73MOL   H27745061   5.531   7.270   3.304 -0.0851  0.5938 -1.4430
   73MOL   H27845062   5.633   7.330   3.434 -0.2688  2.1954  1.1374
   73MOL   H27945063   5.948   0.581   3.376 -0.1324 -0.2237  0.5009
   73MOL   H28045064   5.959   0.426   3.309  0.3520  0.9532 -2.2973
   73MOL   C28145065   5.769   0.512   3.265  0.2457  0.2397  0.0997
   73MOL   O28245066   5.661   0.577   3.339  0.5956  0.6473 -0.2666
   73MOL   C28345067   5.686   0.710   3.373 -0.3562 -0.7106  0.0518
   73MOL   C28445068   5.557   0.760   3.426  0.0847  0.0811  0.2285
   73MOL   C28545069   5.546   0.906   3.472 -0.3104 -0.3156 -0.2411
   73MOL   C28645070   5.595   0.948   3.608 -0.1243 -0.3190 -0.2006
   73MOL   C28745071   5.532   1.079   3.665  0.1044  0.1763  0.7590
   73MOL   C28845072   5.567   1.104   3.816 -0.4912 -0.2969 -0.0518
   73MOL   C28945073   5.488   1.023   3.918  0.0122  0.0356  0.0339
   73MOL   C29045074   5.348   1.084   3.936  0.1875  0.4951 -0.5377
   73MOL   C29145075   5.715   0.369   3.212 -0.3122 -0.1836  0.1568
   73MOL   H29245076   5.801   0.576   3.182 -0.5018 -0.0426 -0.4093
   73MOL   H29345077   5.723   0.774   3.293 -0.3172 -0.9534 -0.1258
   73MOL   H29445078   5.764   0.728   3.447 -1.7280 -1.1091  1.6277
   73MOL   H29545079   5.531   0.695   3.510  1.4850  0.9427  1.3480
   73MOL   H29645080   5.478   0.745   3.352 -1.0335  1.5815  1.0813
   73MOL   H29745081   5.591   0.969   3.395  1.0697  0.2017  0.9807
   73MOL   H29845082   5.438   0.920   3.469 -0.2189  0.3649 -0.3336
   73MOL   H29945083   5.571   0.868   3.678 -1.3143 -0.5222 -0.8390
   73MOL   H30045084   5.704   0.946   3.609 -0.1314 -3.1428 -2.1263
   73MOL   H30145085   5.591   1.151   3.608 -0.0812 -1.6527 -1.8248
   73MOL   H30245086   5.426   1.099   3.656  0.1205  0.0529  0.2898
   73MOL   H30345087   5.570   1.212   3.827  0.9217 -0.0848 -2.1598
   73MOL   H30445088   5.673   1.080   3.820 -0.3616  0.4576  1.1189
   73MOL   H30545089   5.479   0.918   3.891  1.6196 -0.1258  0.0734
   73MOL   H30645090   5.542   1.016   4.012 -0.6601 -0.1126  0.4101
   73MOL   H30745091   5.291   1.069   3.844  0.2947  0.9703 -0.6829
   73MOL   H30845092   5.374   1.189   3.950  0.7202  0.2227  0.5763
   73MOL   H30945093   5.279   1.057   4.017  0.4476  0.1230 -0.4353
   73MOL   H31045094   5.793   0.302   3.176  0.0520  0.8658 -0.9977
   73MOL   H31145095   5.670   0.309   3.292 -0.4183  0.5544  0.6574
   73MOL   C31245096   5.609   0.406   3.105  0.3463  0.2308 -0.3787
   73MOL   O31345097   5.489   0.332   3.134 -0.5252 -0.5322 -0.2321
   73MOL   C31445098   5.395   0.403   3.217 -0.2857 -0.7408  0.0941
   73MOL   C31545099   5.291   0.485   3.140 -0.8453 -0.4782 -0.8599
   73MOL   C31645100   5.160   0.506   3.218  0.7084  0.1045 -0.2597
   73MOL   C31745101   5.042   0.547   3.120 -1.0439 -0.6546 -0.3053
   73MOL   C31845102   4.915   0.596   3.188 -0.1526 -0.3246  0.6012
   73MOL   C31945103   4.794   0.617   3.089 -0.0059  0.7563  0.2323
   73MOL   C32045104   4.669   0.674   3.158  0.5751 -0.5891 -0.3921
   73MOL   C32145105   4.549   0.658   3.067 -0.7435 -0.0463 -0.1630
   73MOL   C32245106   5.665   0.372   2.968 -0.3041  0.2906  0.1530
   73MOL   H32345107   5.582   0.511   3.104  0.8350  0.3616  0.0334
   73MOL   H32445108   5.432   0.452   3.307  0.2658  0.1781 -0.6243
   73MOL   H32545109   5.338   0.321   3.261 -0.1341 -1.9178 -1.8272
   73MOL   H32645110   5.277   0.439   3.042 -1.6245 -0.3597 -0.8021
   73MOL   H32745111   5.347   0.576   3.119 -1.5294  0.2680  0.5685
   73MOL   H32845112   5.137   0.418   3.278  1.9401  0.1246  0.2516
   73MOL   H32945113   5.169   0.594   3.281 -0.6840  1.0000 -1.2614
   73MOL   H33045114   5.080   0.619   3.048 -1.3252 -0.5113 -0.3109
   73MOL   H33145115   5.020   0.467   3.050 -2.1019  1.5017 -2.4883
   73MOL   H33245116   4.903   0.529   3.273 -1.2805 -0.8458  0.0321
   73MOL   H33345117   4.945   0.692   3.229 -0.7615  1.0282 -1.9912
   73MOL   H33445118   4.778   0.526   3.031  2.2945  0.5176 -0.0556
   73MOL   H33545119   4.824   0.684   3.009 -0.4047  1.0851  0.3560
   73MOL   H33645120   4.644   0.624   3.252  4.1912  0.6905  1.3663
   73MOL   H33745121   4.691   0.778   3.183 -0.8489 -1.0283  2.9281
   73MOL   H33845122   4.460   0.700   3.115 -0.2149  0.5574  0.2951
   73MOL   H33945123   4.526   0.554   3.043 -2.3780 -0.0013  1.1225
   73MOL   H34045124   4.556   0.707   2.970  0.5749  0.3683  0.1304
   73MOL   H34145125   5.712   0.275   2.952  0.6894  1.1046 -2.1843
   73MOL   H34245126   5.577   0.370   2.904  0.8679 -0.3190 -1.4830
   73MOL   C34345127   5.763   0.477   2.903 -0.1234 -0.1883  0.8054
   73MOL   O34445128   5.680   0.594   2.893 -0.5857 -0.3194  0.1653
   73MOL   C34545129   5.742   0.719   2.917  0.5323  0.2137 -0.1057
   73MOL   C34645130   5.643   0.830   2.886  0.0684 -0.0548 -0.0852
   73MOL   C34745131   5.534   0.842   2.990 -0.1542  0.5277 -0.0217
   73MOL   C34845132   5.426   0.953   2.959  0.1920 -0.2941 -0.3048
   73MOL   C34945133   5.336   0.980   3.079 -0.2429 -0.1482 -0.0002
   73MOL   C35045134   5.197   1.036   3.058  1.0674  0.3078 -0.2083
   73MOL   C35145135   5.109   1.052   3.182  0.1829  0.1124  0.0331
   73MOL   C35245136   4.957   1.054   3.145  0.3588 -0.5354  0.2014
   73MOL   C35345137   5.811   0.435   2.767 -0.7150  0.0022 -0.1065
   73MOL   H35445138   5.836   0.501   2.980 -1.5790 -0.0636  2.1550
   73MOL   H35545139   5.825   0.747   2.852 -0.1427  2.4507 -0.0348
   73MOL   H35645140   5.787   0.717   3.016 -0.4608 -0.5769  0.3372
   73MOL   H35745141   5.591   0.809   2.793 -0.0913  0.5758 -0.1368
   73MOL   H35845142   5.682   0.930   2.865 -1.1915  0.3661 -0.4451
   73MOL   H35945143   5.487   0.745   3.006 -0.5820  0.6507 -0.5460
   73MOL   H36045144   5.567   0.874   3.089  0.2343  1.7921 -0.5554
   73MOL   H36145145   5.453   1.055   2.932 -2.3771  0.5262  0.1113
   73MOL   H36245146   5.365   0.914   2.879  0.2052  2.7778 -1.8852
   73MOL   H36345147   5.336   0.885   3.132  1.0024  0.7449  1.6417
   73MOL   H36445148   5.398   1.031   3.152 -0.6454  0.7801 -0.3051
   73MOL   H36545149   5.153   0.971   2.982  1.7099 -0.8327  0.3888
   73MOL   H36645150   5.207   1.134   3.010  1.3569  0.6430  0.5238
   73MOL   H36745151   5.116   0.964   3.245  0.7361  0.2540  0.1760
   73MOL   H36845152   5.156   1.132   3.240  1.3989 -1.6350  1.4967
   73MOL   H36945153   4.917   0.955   3.121  0.2161 -0.7450  1.2431
   73MOL   H37045154   4.938   1.119   3.061 -0.2946 -0.5440  0.3375
   73MOL   H37145155   4.891   1.092   3.223  0.1785 -2.6099  1.1109
   73MOL   H37245156   5.742   0.368   2.717 -0.5188 -1.1837  1.1937
   73MOL   H37345157   5.821   0.522   2.702 -1.8702  0.2212 -0.0027
   73MOL   C37445158   5.945   0.363   2.771 -0.2170 -0.6589  0.0070
   73MOL   O37545159   6.039   0.466   2.796 -0.0433  0.5728 -0.7111
   73MOL   C37645160   6.097   0.453   2.926 -0.6583  0.1092  0.4999
   73MOL   C37745161   6.140   0.589   2.983  0.1709  0.3657  0.1575
   73MOL   C37845162   6.176   0.581   3.130 -0.6805  0.0003 -0.4074
   73MOL   C37945163   6.216   0.722   3.194  0.1980 -0.3947 -0.4101
   73MOL   C38045164   6.357   0.775   3.150  0.6962  0.3484 -0.2883
   73MOL   C38145165   6.480   0.691   3.204  1.0107 -0.2475 -0.2058
   73MOL   C38245166   6.614   0.754   3.187 -0.3514 -0.5679  0.3730
   73MOL   C38345167   6.718   0.664   3.251  0.4244 -0.2753 -0.0516
   73MOL   C38445168   5.987   0.293   2.638 -0.1354  0.5086 -0.2921
   73MOL   H38545169   5.945   0.283   2.845  0.5332 -1.8341 -1.2416
   73MOL   H38645170   6.186   0.391   2.922 -2.2361 -2.1287 -1.0198
   73MOL   H38745171   6.020   0.409   2.989 -0.3147 -0.0387  0.8190
   73MOL   H38845172   6.060   0.659   2.964 -0.7064  0.2877  3.3213
   73MOL   H38945173   6.216   0.628   2.916  0.6554  1.2292  1.1967
   73MOL   H39045174   6.090   0.539   3.181 -1.3296 -0.1692 -1.6148
   73MOL   H39145175   6.264   0.520   3.149  0.0476  0.8814 -0.8895
   73MOL   H39245176   6.137   0.793   3.171  1.6229  1.5321  0.4655
   73MOL   H39345177   6.215   0.718   3.303  1.5723 -0.5095 -0.3923
   73MOL   H39445178   6.355   0.767   3.041  1.3635 -1.4101 -0.1808
   73MOL   H39545179   6.377   0.878   3.179  1.4619  0.5429 -1.4962
   73MOL   H39645180   6.472   0.594   3.155 -0.1484 -0.0911 -0.3531
   73MOL   H39745181   6.468   0.673   3.311 -3.1351  1.3239 -0.3128
   73MOL   H39845182   6.633   0.766   3.080 -0.4112  1.7791  0.6125
   73MOL   H39945183   6.623   0.854   3.228 -0.0176 -1.1210  1.6773
   73MOL   H40045184   6.727   0.565   3.206 -2.0750 -1.2795  1.5768
   73MOL   H40145185   6.694   0.636   3.353  0.3130  0.8752  0.2390
   73MOL   H40245186   6.812   0.712   3.279 -0.2319 -0.2613  2.1792
   73MOL   H40345187   5.922   0.221   2.589 -1.8578  0.6076  1.7921
   73MOL   H40445188   5.984   0.369   2.560 -1.1870  1.7257  0.9264
   73MOL   C40545189   6.126   0.221   2.636 -0.6178 -0.0319 -1.3248
   73MOL   O40645190   6.178   0.256   2.506 -0.3109  0.6737 -0.1335
   73MOL   C40745191   6.320   0.267   2.511 -0.0432  0.3484 -0.2796
   73MOL   C40845192   6.385   0.281   2.373 -0.5469  0.3527 -0.2682
   73MOL   C40945193   6.339   0.414   2.311  0.1640 -0.3942  0.0834
   73MOL   C41045194   6.373   0.434   2.165 -0.4349  0.0446  1.2291
   73MOL   C41145195   6.287   0.547   2.102  0.7046 -0.0214  0.0354
   73MOL   C41245196   6.328   0.589   1.961  0.0546  0.2450 -0.0273
   73MOL   C41345197   6.353   0.475   1.865  0.0852  0.7195 -0.3882
   73MOL   C41445198   6.376   0.526   1.725  0.1612  0.5367  0.0423
   73MOL   C41545199   6.119   0.066   2.648 -0.6494 -0.5645 -0.2068
   73MOL   H41645200   6.189   0.255   2.718 -2.0604  1.9174 -1.0113
   73MOL   H41745201   6.359   0.178   2.561  0.2084  0.3593 -0.4605
   73MOL   H41845202   6.337   0.347   2.583 -0.2778  1.3535 -1.3355
   73MOL   H41945203   6.361   0.191   2.317  0.5828  0.3900 -0.8302
   73MOL   H42045204   6.492   0.285   2.394 -0.3550  1.3513 -1.3658
   73MOL   H42145205   6.231   0.425   2.325 -0.1738 -2.5023 -0.6690
   73MOL   H42245206   6.383   0.500   2.362 -2.4098  0.6097  0.6991
   73MOL   H42345207   6.479   0.454   2.148 -0.7953 -0.6108 -2.0819
   73MOL   H42445208   6.349   0.345   2.107  2.7805  0.5889 -1.0531
   73MOL   H42545209   6.182   0.520   2.104  0.1403  2.0641  0.0411
   73MOL   H42645210   6.290   0.631   2.172  2.7614  0.5037 -0.6495
   73MOL   H42745211   6.413   0.657   1.959  0.5971 -0.4292  0.0169
   73MOL   H42845212   6.243   0.649   1.928 -1.3766 -1.4469  0.4720
   73MOL   H42945213   6.428   0.406   1.905 -0.4037  0.2603 -0.2498
   73MOL   H43045214   6.260   0.418   1.861 -0.1403  1.1928 -2.5635
   73MOL   H43145215   6.455   0.601   1.724  0.6499  0.0928 -4.0962
   73MOL   H43245216   6.289   0.583   1.692 -0.9144 -1.0682  0.0677
   73MOL   H43345217   6.397   0.448   1.652  1.2678  1.1573 -0.3179
   73MOL   H43445218   6.044   0.033   2.576  0.3645 -0.3431 -1.3815
   73MOL   H43545219   6.209   0.012   2.618  0.8308  1.7335  0.0582
   73MOL   C43645220   6.064   0.002   2.784 -0.5307  0.7763 -0.2262
   73MOL   O43745221   5.924   0.034   2.805  0.3641  0.4787  0.1549
   73MOL   C43845222   5.849   7.686   2.809  0.3352 -0.3677 -0.2738
   73MOL   C43945223   5.707   7.702   2.877  0.0999  0.0365  0.1953
   73MOL   C44045224   5.715   7.752   3.018 -0.0283 -0.4237 -0.5039
   73MOL   C44145225   5.576   0.027   3.074 -0.5161 -0.2510 -0.0981
   73MOL   C44245226   5.473   7.686   3.079  0.7647  0.3233  0.0122
   73MOL   C44345227   5.348   7.719   3.166 -0.2606  0.3217  0.4847
   73MOL   C44445228   5.242   7.613   3.158  1.0160  0.5640 -0.0087
   73MOL   C44545229   5.108   7.646   3.228 -0.2297  0.0838 -0.4955
   73MOL   C44645230   6.138   0.040   2.914  0.5990 -0.7884  0.2585
   73MOL   H44745231   6.076   7.669   2.773  1.3520  0.8032  1.3086
   73MOL   H44845232   5.857   7.647   2.708 -0.5906 -2.9823  0.6235
   73MOL   H44945233   5.900   7.612   2.871  0.9226 -1.9186 -2.5429
   73MOL   H45045234   5.671   7.600   2.889 -1.4691  0.4849 -0.5190
   73MOL   H45145235   5.655   7.765   2.804  0.8946  0.2444 -0.1921
   73MOL   H45245236   5.759   7.676   3.082 -1.1454 -0.9877 -0.3972
   73MOL   H45345237   5.773   0.070   3.018  1.2689 -1.2376 -0.4861
   73MOL   H45445238   5.595   0.073   3.171  3.1607 -0.5802 -0.5871
   73MOL   H45545239   5.552   0.112   3.011  0.3223 -0.4239 -0.6553
   73MOL   H45645240   5.449   7.649   2.980  1.2149 -2.1017  0.7697
   73MOL   H45745241   5.513   7.605   3.140 -0.2383 -0.1766  0.0151
   73MOL   H45845242   5.305   0.041   3.136  0.1300  0.7331  1.2345
   73MOL   H45945243   5.379   7.725   3.270  1.6138  1.0298 -0.0974
   73MOL   H46045244   5.233   7.599   3.050  2.2779  0.7460 -0.1346
   73MOL   H46145245   5.284   7.517   3.188 -0.6380 -0.6099 -1.3300
   73MOL   H46245246   5.062   7.736   3.185 -1.2103  0.3637  1.0832
   73MOL   H46345247   5.110   7.656   3.336 -0.3384 -0.5278 -0.4359
   73MOL   H46445248   5.039   7.562   3.224  1.2858 -1.1513 -0.7370
   73MOL   H46545249   6.243   0.066   2.900  0.4075  0.0561  0.3572
   73MOL   H46645250   6.098   0.135   2.948  0.3091 -0.8135 -0.0021
   73MOL   C46745251   6.140   7.703   3.015 -0.8362 -0.1277  0.1297
   73MOL   O46845252   6.139   7.771   3.140 -0.5085 -0.0706 -0.0960
   73MOL   C46945253   6.009   7.770   3.197  0.4177 -0.0184 -0.1704
   73MOL   C47045254   6.022   0.063   3.339 -0.0805  0.6704 -0.0666
   73MOL   C47145255   6.020   7.730   3.443  0.0263  0.0093  0.1655
   73MOL   C47245256   6.058   0.016   3.580 -0.4562 -0.5065 -0.4953
   73MOL   C47345257   6.083   7.681   3.688 -1.1052 -0.3946  0.0612
   73MOL   C47445258   5.967   7.578   3.695  0.6554  0.1132  0.1772
   73MOL   C47545259   5.980   7.485   3.807  0.3083 -0.7715 -0.6039
   73MOL   C47645260   5.859   7.386   3.807 -0.3853  0.2388 -0.1244
   73MOL   C47745261   6.269   7.609   3.007 -1.0058  0.4260 -0.3786
   73MOL   H47845262   6.048   7.646   3.002 -0.9910  0.4424 -1.3854
   73MOL   H47945263   5.958   7.674   3.199  1.1392 -0.3872  1.2165
   73MOL   H48045264   5.947   0.062   3.137  0.7090  1.0241  0.6667
   73MOL   H48145265   5.948   0.143   3.345  1.2329  1.8082  1.1900
   73MOL   H48245266   6.107   0.131   3.341 -0.2904  0.9909 -1.3715
   73MOL   H48345267   5.914   7.704   3.449 -0.1884  1.1408  1.6278
   73MOL   H48445268   6.087   7.648   3.416 -1.4479 -1.3054  0.4271
   73MOL   H48545269   6.146   0.076   3.555  0.1302 -1.0559  0.2292
   73MOL   H48645270   5.975   0.081   3.604 -2.8518 -4.2729  1.9003
   73MOL   H48745271   6.178   7.632   3.666 -1.6131 -1.9868  1.2865
   73MOL   H48845272   6.091   7.729   3.785 -1.1848 -0.3467  0.0441
   73MOL   H48945273   5.973   7.516   3.606 -0.6887  3.9689 -2.7364
   73MOL   H49045274   5.867   7.620   3.705 -0.0879 -0.6973 -3.2838
   73MOL   H49145275   6.077   7.434   3.812  1.6787  1.6438 -1.6538
   73MOL   H49245276   5.978   7.549   3.895 -2.1042 -0.1820 -1.0658
   73MOL   H49345277   5.763   7.434   3.828  0.6733  1.2133  2.6229
   73MOL   H49445278   5.876   7.310   3.883 -0.4194 -1.9114 -2.1829
   73MOL   H49545279   5.844   7.331   3.714  1.9933 -0.5965 -0.0246
   73MOL   H49645280   6.357   7.669   3.028 -2.4181  1.9034  1.4192
   73MOL   H49745281   6.263   7.545   3.095  0.4139  1.4006  0.4440
   73MOL   C49845282   6.279   7.523   2.881 -0.5305  0.7843  0.1420
   73MOL   O49945283   6.153   7.455   2.848  0.0441 -0.1733  0.5780
   73MOL   C50045284   6.151   7.389   2.725  0.1643  0.2625  0.2747
   73MOL   C50145285   6.011   7.354   2.675  0.4921 -0.5293 -0.8773
   73MOL   C50245286   5.942   7.244   2.770  0.2516 -0.0629  0.3068
   73MOL   C50345287   5.804   7.198   2.723 -0.2194  0.2524 -0.2012
   73MOL   C50445288   5.817   7.090   2.610  0.5894 -0.1353  0.0090
   73MOL   C50545289   5.682   7.029   2.565  0.7534 -0.6742  0.1845
   73MOL   C50645290   5.685   6.899   2.479 -0.1810 -0.3279 -0.0014
   73MOL   C50745291   5.687   6.932   2.329 -0.6768 -0.0096 -0.1549
   73MOL   C50845292   6.399   7.430   2.874  0.5023 -0.4309  0.2187
   73MOL   H50945293   6.319   7.592   2.806  0.8144 -1.7813 -1.6036
   73MOL   H51045294   6.205   7.295   2.731 -1.3552 -0.5095  2.0403
   73MOL   H51145295   6.213   7.446   2.655  0.6693 -0.4283  0.1593
   73MOL   H51245296   6.033   7.305   2.580  3.2744 -1.4136  0.1920
   73MOL   H51345297   5.952   7.439   2.642 -0.4280 -1.1990 -0.9897
   73MOL   H51445298   6.002   7.155   2.788 -0.5376 -0.5283  0.6575
   73MOL   H51545299   5.927   7.281   2.871  2.0154 -0.8281  0.8800
   73MOL   H51645300   5.747   7.159   2.807  0.2698 -0.0144  0.0091
   73MOL   H51745301   5.751   7.289   2.697  0.3091  0.7394  0.4146
   73MOL   H51845302   5.865   7.138   2.525 -0.4138  0.8358 -0.0315
   73MOL   H51945303   5.875   7.011   2.657  0.0943  0.8916  2.4445
   73MOL   H52045304   5.615   7.107   2.528  2.2530 -0.6784 -2.7430
   73MOL   H52145305   5.627   7.003   2.655 -0.9096 -0.5153 -0.7639
   73MOL   H52245306   5.774   6.836   2.488  0.5322  0.5715 -0.6937
   73MOL   H52345307   5.597   6.841   2.506  0.2363 -0.5658  0.8794
   73MOL   H52445308   5.781   6.986   2.319  0.0724 -1.6902 -2.7468
   73MOL   H52545309   5.601   6.994   2.300 -1.3984 -0.0562  1.7888
   73MOL   H52645310   5.692   6.841   2.269 -0.5590 -0.5369  0.6472
   73MOL   H52745311   6.388   7.364   2.960  1.7801  0.5385  1.1410
   73MOL   H52845312   6.396   7.367   2.785  4.6988  0.7107 -0.8479
   73MOL   C52945313   6.543   7.490   2.895  0.4434 -0.4037 -0.1220
   73MOL   O53045314   6.576   7.574   2.784 -0.3643  0.3388 -0.4860
   73MOL   C53145315   6.665   7.685   2.813 -0.2630 -0.2243  0.1315
   73MOL   C53245316   6.671   7.773   2.687  0.6028 -0.5083  0.5765
   73MOL   C53345317   6.715   7.709   2.555  0.8238 -0.1178 -0.1690
   73MOL   C53445318   6.686   0.029   2.440  0.2363 -0.4140 -0.0007
   73MOL   C53545319   6.709   7.738   2.309  0.2853 -0.2225  0.1589
   73MOL   C53645320   6.646   0.035   2.189  0.2341  0.4377 -0.9181
   73MOL   C53745321   6.717   0.169   2.170  0.5299 -0.0201 -0.4251
   73MOL   C53845322   6.680   0.234   2.035  0.2061 -0.7017  0.4873
   73MOL   C53945323   6.654   7.383   2.904 -0.4586  0.6208 -0.2237
   73MOL   H54045324   6.543   7.556   2.982 -1.6930  1.2909 -1.3363
   73MOL   H54145325   6.642   7.731   2.909 -1.4557  0.5539 -0.5076
   73MOL   H54245326   6.768   7.649   2.810 -0.4421 -0.9239  2.1229
   73MOL   H54345327   6.738   0.080   2.714  0.0355  0.0003  0.4843
   73MOL   H54445328   6.571   0.041   2.677  0.8994  0.7515  2.5650
   73MOL   H54545329   6.823   7.698   2.559  0.6856 -1.4675 -0.0815
   73MOL   H54645330   6.660   7.616   2.543 -2.6409  1.8984 -0.8344
   73MOL   H54745331   6.580   0.055   2.446  0.5018  0.2467  2.0156
   73MOL   H54845332   6.736   0.125   2.451 -1.5810  0.5024  0.5660
   73MOL   H54945333   6.817   7.735   2.299  0.1753  1.1474 -1.7541
   73MOL   H55045334   6.674   7.634   2.312  3.0040 -1.1186  1.5878
   73MOL   H55145335   6.542   0.057   2.210  0.3837 -0.2270  0.5522
   73MOL   H55245336   6.662   7.751   2.098 -1.4853  1.0573 -1.6402
   73MOL   H55345337   6.689   0.236   2.251  2.3899  1.3640 -0.8983
   73MOL   H55445338   6.824   0.151   2.169  0.8076  1.5858 -1.4778
   73MOL   H55545339   6.574   0.257   2.046  0.2947 -0.3358  0.5870
   73MOL   H55645340   6.704   0.168   1.952  1.9489  1.0721 -0.4505
   73MOL   H55745341   6.742   0.323   2.031 -0.0969 -0.4758  0.8131
   73MOL   H55845342   6.640   7.306   2.828  0.1246  0.3786 -0.0870
   73MOL   H55945343   6.750   7.428   2.881  1.0962 -0.8524  3.0208
   73MOL   C56045344   6.664   7.308   3.036 -0.2421 -0.6539  0.1857
   73MOL   O56145345   6.682   7.410   3.130 -0.2734  0.2367 -0.6876
   73MOL   C56245346   6.582   7.424   3.230  0.2728 -0.2177 -0.3503
   73MOL   C56345347   6.591   7.564   3.285  0.1829  0.4315 -0.3558
   73MOL   C56445348   6.514   7.578   3.412  0.9293 -0.4928 -0.4384
   73MOL   C56545349   6.533   7.709   3.493 -0.1185 -0.0607 -0.4506
   73MOL   C56645350   6.659   7.704   3.590 -0.4098 -0.1246  0.6885
   73MOL   C56745351   6.675   0.060   3.662  0.1428 -0.5741 -0.5068
   73MOL   C56845352   6.812   0.068   3.728 -0.3944 -0.3263  0.4208
   73MOL   C56945353   6.847   0.211   3.780  0.9081  0.1757 -0.5762
   73MOL   C57045354   6.791   7.215   3.040 -0.3611 -0.1474 -0.1877
   73MOL   H57145355   6.577   7.245   3.057 -0.5646 -0.2284  0.1430
   73MOL   H57245356   6.593   7.351   3.311 -0.2772  0.5754  0.4473
   73MOL   H57345357   6.482   7.414   3.188 -0.5892  1.6796  1.1936
   73MOL   H57445358   6.555   7.644   3.220 -2.9556 -0.3401  0.3511
   73MOL   H57545359   6.698   7.569   3.306  0.5470 -0.2058 -1.9444
   73MOL   H57645360   6.410   7.552   3.390  2.0191 -4.3216 -1.5156
   73MOL   H57745361   6.543   7.498   3.479  1.2248  0.8296  1.0423
   73MOL   H57845362   6.536   0.020   3.426  0.1743  0.1170 -0.2146
   73MOL   H57945363   6.442   7.719   3.552 -1.2557 -0.5159 -2.1173
   73MOL   H58045364   6.664   7.622   3.662 -0.1116 -0.6624  0.0642
   73MOL   H58145365   6.745   7.695   3.524  1.0898 -0.2937  2.6325
   73MOL   H58245366   6.607   0.083   3.744  0.7638  1.4027 -0.5104
   73MOL   H58345367   6.665   0.140   3.587 -2.1941  0.7453  1.1601
   73MOL   H58445368   6.814   7.771   3.811  0.6578 -1.0418 -0.2026
   73MOL   H58545369   6.888   0.047   3.652 -0.0167 -1.4599  1.0986
   73MOL   H58645370   6.915   0.238   3.699 -0.6893  0.9744 -1.6767
   73MOL   H58745371   6.922   0.215   3.859  1.0815  0.9634 -0.7791
   73MOL   H58845372   6.760   0.276   3.787  1.1873  0.4930 -0.0399
   73MOL   H58945373   6.884   7.255   3.000  0.2823 -1.7048 -0.2502
   73MOL   H59045374   6.807   7.208   3.148 -1.9178  1.2777  0.1663
   73MOL   C59145375   6.759   7.077   2.977  0.3641 -0.2383 -0.0844
   73MOL   O59245376   6.677   7.010   3.067 -1.0109 -0.8945  0.3269
   73MOL   C59345377   6.593   6.921   3.000 -0.1767  0.0473  0.1564
   73MOL   C59445378   6.514   6.850   3.110 -0.3155  0.6729 -0.4234
   73MOL   C59545379   6.401   6.919   3.189  0.4979 -0.7087 -0.8069
   73MOL   C59645380   6.440   7.057   3.256 -0.0134 -0.1392  0.3871
   73MOL   C59745381   6.331   7.098   3.358  0.1670  0.4563  0.1509
   73MOL   C59845382   6.200   7.134   3.295 -0.2710 -0.8603  0.5757
   73MOL   C59945383   6.189   7.268   3.223 -0.5185  0.8085  0.1933
   73MOL   C60045384   6.046   7.312   3.182  0.3562 -0.8912  0.5810
   73MOL   C60145385   6.886   6.990   2.961  0.3193  0.2937  0.5512
   73MOL   H60245386   6.725   7.085   2.874  1.1062  0.3471 -0.2907
   73MOL   H60345387   6.666   6.858   2.949  0.2856  2.5867 -2.4942
   73MOL   H60445388   6.528   6.968   2.927 -1.6960 -0.3183  1.2421
   73MOL   H60545389   6.588   6.809   3.179 -1.0379  0.4762  0.2458
   73MOL   H60645390   6.491   6.757   3.058  1.0183 -1.4063  2.5728
   73MOL   H60745391   6.321   6.949   3.122  1.2506  3.4151  0.0172
   73MOL   H60845392   6.361   6.844   3.257 -0.2310  1.0127  0.6824
   73MOL   H60945393   6.539   7.048   3.302  0.0986  2.3676  0.6880
   73MOL   H61045394   6.456   7.125   3.173 -1.8732  1.8704  1.6319
   73MOL   H61145395   6.318   7.016   3.429  1.4937  0.2490  0.1543
   73MOL   H61245396   6.361   7.185   3.416 -1.6258  1.6952 -0.7162
   73MOL   H61345397   6.130   7.151   3.377  0.0139  0.3333  0.5741
   73MOL   H61445398   6.166   7.048   3.237  0.9079 -0.6169 -0.5070
   73MOL   H61545399   6.233   7.352   3.277 -1.4664  1.2209  0.3213
   73MOL   H61645400   6.253   7.264   3.135 -2.2810  1.4380 -1.1262
   73MOL   H61745401   6.001   7.220   3.144  0.5270 -1.8480  2.5851
   73MOL   H61845402   6.035   7.389   3.106 -1.4153 -0.5229  1.2047
   73MOL   H61945403   5.992   7.330   3.275 -0.1719  0.9719 -0.0788
   73MOL   H62045404   6.871   6.892   2.918  0.2938 -0.1818  1.6193
   73MOL   H62145405   6.956   7.043   2.897  1.5683 -2.0899 -0.1214
   73MOL   H62245406   6.941   6.979   3.055 -0.5076 -2.0805  0.7782
   74MOL     C145407   6.331   3.442   0.135  0.2458  0.4630 -0.2129
   74MOL     O245408   6.193   3.463   0.163  0.2992  0.0824 -0.1762
   74MOL     C345409   6.161   3.421   0.293  0.0999  0.6271 -0.0623
   74MOL     C445410   6.005   3.388   0.319 -0.4808  0.3087 -0.2008
   74MOL     C545411   5.979   3.372   0.467  0.1159  0.0455 -0.3349
   74MOL     C645412   5.863   3.303   0.520  0.1281  0.3961  0.0845
   74MOL     C745413   5.843   3.333   0.668 -0.3950 -0.1012  0.2117
   74MOL     C845414   5.718   3.257   0.724 -0.3385 -0.0530 -0.7872
   74MOL     C945415   5.705   3.280   0.876  0.1675 -0.1648  0.2461
   74MOL    C1045416   5.660   3.425   0.912  0.0488  0.1470 -0.5207
   74MOL    C1145417   6.360   3.295   0.115 -1.1890 -0.1043 -0.0796
   74MOL    H1245418   6.332   3.486   0.036 -1.4702  0.4400 -0.2630
   74MOL    H1345419   6.195   3.500   0.360  0.4215  1.8156 -1.5892
   74MOL    H1445420   6.218   3.333   0.320 -2.1590 -0.8900 -0.0640
   74MOL    H1545421   5.985   3.287   0.282  1.3143  0.5716 -1.9802
   74MOL    H1645422   5.936   3.457   0.271 -0.8371  0.1014  0.0122
   74MOL    H1745423   6.076   3.338   0.503  0.5124 -0.5696 -1.9225
   74MOL    H1845424   5.976   3.476   0.499  1.8630 -0.4737  1.6654
   74MOL    H1945425   5.774   3.332   0.463  0.9270  0.4273 -1.1634
   74MOL    H2045426   5.874   3.195   0.509  0.3434  0.4190  0.0820
   74MOL    H2145427   5.937   3.310   0.719 -0.4463 -2.4993 -0.7040
   74MOL    H2245428   5.830   3.441   0.678  0.0956  0.0121 -0.3811
   74MOL    H2345429   5.724   3.150   0.706 -0.7472 -0.5648  1.8613
   74MOL    H2445430   5.624   3.288   0.680 -1.2292  0.3635  1.3473
   74MOL    H2545431   5.640   3.203   0.918  0.4604 -1.1652 -1.0750
   74MOL    H2645432   5.806   3.265   0.916  0.9635  0.5906 -1.4264
   74MOL    H2745433   5.730   3.505   0.889  2.1701 -1.9544 -1.6226
   74MOL    H2845434   5.648   3.423   1.020 -0.3678  0.0322 -0.5688
   74MOL    H2945435   5.566   3.465   0.874 -0.0808  1.8886  1.5175
   74MOL    H3045436   6.366   3.241   0.210 -0.2097  1.3700  0.7124
   74MOL    H3145437   6.268   3.259   0.069 -0.0556 -2.6128 -0.4645
   74MOL    H3245438   6.400   3.498   0.199  1.9126 -1.6014 -0.1660
   74MOL    C3345439   6.485   3.267   0.026  0.4789  0.2152  0.4678
   74MOL    O3445440   6.434   3.260   7.668 -0.2803 -0.0315  0.1349
   74MOL    C3545441   6.516   3.310   7.564 -0.6665  0.1937  0.1297
   74MOL    C3645442   6.458   3.270   7.421  0.8451  0.2185 -0.5862
   74MOL    C3745443   6.318   3.321   7.393 -0.2307 -0.1180  0.4559
   74MOL    C3845444   6.260   3.272   7.257 -0.4405 -0.1312 -0.1735
   74MOL    C3945445   6.151   3.356   7.203  0.0090  0.3223 -0.5866
   74MOL    C4045446   6.120   3.307   7.061 -0.4062 -0.1899 -0.0877
   74MOL    C4145447   5.980   3.344   6.999  0.3860  0.0606  0.0101
   74MOL    C4245448   5.862   3.268   7.065 -0.5158 -0.6537 -0.6183
   74MOL    C4345449   6.539   3.123   0.068  0.0120 -0.1591  0.2798
   74MOL    H4445450   6.561   3.343   0.044  1.1267 -0.5048  0.7927
   74MOL    H4545451   6.622   3.289   7.578 -0.5801 -0.5621 -1.4610
   74MOL    H4645452   6.509   3.419   7.563  2.9907  0.4823 -0.2430
   74MOL    H4745453   6.449   3.161   7.413  1.8703 -0.0485  1.6856
   74MOL    H4845454   6.525   3.301   7.341  1.3041  1.6707  0.3456
   74MOL    H4945455   6.253   3.297   7.477 -1.1044 -2.8425 -0.9077
   74MOL    H5045456   6.315   3.429   7.398 -1.4854 -0.1430  0.2801
   74MOL    H5145457   6.344   3.259   7.189  2.6397  0.2657  3.3904
   74MOL    H5245458   6.216   3.172   7.261 -1.5948  0.2697 -2.3814
   74MOL    H5345459   6.065   3.346   7.270  0.2568 -0.9432 -0.4434
   74MOL    H5445460   6.178   3.461   7.208 -0.5180  0.3950  1.1636
   74MOL    H5545461   6.118   3.198   7.068  0.8840 -0.2882 -1.0504
   74MOL    H5645462   6.194   3.345   6.991  0.8470 -0.4775  1.0437
   74MOL    H5745463   5.979   3.453   6.994 -1.3905  0.0495 -0.2995
   74MOL    H5845464   5.991   3.320   6.893  2.4152 -0.0931  0.2334
   74MOL    H5945465   5.890   3.168   7.098 -1.1529 -0.8745 -0.7399
   74MOL    H6045466   5.776   3.260   6.997 -2.0244  1.2290  1.0090
   74MOL    H6145467   5.832   3.325   7.153  0.7570 -1.4421  0.3391
   74MOL    H6245468   6.551   3.129   0.176 -1.0639 -1.3936  0.4823
   74MOL    H6345469   6.459   3.049   0.056 -1.9403  1.9491 -0.1501
   74MOL    C6445470   6.672   3.061   0.003  0.0341 -0.2589  0.3977
   74MOL    O6545471   6.685   2.920   0.031 -0.1861  0.1331  0.2133
   74MOL    C6645472   6.633   2.834   7.708 -0.3766  0.5920  0.6939
   74MOL    C6745473   6.679   2.687   7.736 -0.4170 -0.3214  0.3917
   74MOL    C6845474   6.829   2.688   7.768 -0.1312  0.9160 -0.1342
   74MOL    C6945475   6.898   2.559   0.030 -0.8864  0.4857 -0.6494
   74MOL    C7045476   6.842   2.481   0.150  0.2763 -0.5884 -0.5905
   74MOL    C7145477   6.827   2.560   0.282 -0.2377  0.2821 -0.5389
   74MOL    C7245478   6.761   2.474   0.393 -0.4149 -0.5123 -1.4229
   74MOL    C7345479   6.738   2.546   0.527 -0.5932 -0.6791  0.0415
   74MOL    C7445480   6.790   3.129   0.075  1.1110  0.8082  0.1632
   74MOL    H7545481   6.685   3.081   7.671 -0.1308  0.2956  0.4811
   74MOL    H7645482   6.666   2.853   7.606  1.0656 -1.9364  0.6422
   74MOL    H7745483   6.527   2.812   7.723  0.0166 -1.0933  1.0727
   74MOL    H7845484   6.666   2.632   7.643  0.5566  1.1187 -0.6322
   74MOL    H7945485   6.617   2.648   0.043 -0.9936 -0.2354  0.0008
   74MOL    H8045486   6.879   2.744   7.688 -1.1444  2.2613  0.1453
   74MOL    H8145487   6.836   2.746   0.086 -1.1791 -1.2438  1.3238
   74MOL    H8245488   6.900   2.498   7.714 -0.5599 -1.5675  0.6943
   74MOL    H8345489   7.000   2.592   0.049 -1.2470  0.8251  0.7641
   74MOL    H8445490   6.745   2.442   0.119 -0.5560  1.9606 -1.3476
   74MOL    H8545491   6.894   2.387   0.166  1.8072  0.2737 -0.3341
   74MOL    H8645492   6.764   2.647   0.262  0.5232  0.9420 -0.1140
   74MOL    H8745493   6.925   2.590   0.319  0.1139  0.7894 -1.8424
   74MOL    H8845494   6.662   2.453   0.352 -2.3746  1.1843  2.2129
   74MOL    H8945495   6.826   2.389   0.410 -2.2382 -1.4759  0.8337
   74MOL    H9045496   6.668   2.627   0.506  1.6534  1.2469 -0.2201
   74MOL    H9145497   6.832   2.582   0.570 -0.9859  1.0293 -0.5182
   74MOL    H9245498   6.687   2.479   0.596  0.7561 -0.0975  1.6312
   74MOL    H9345499   6.751   3.228   0.100 -0.7609  0.8068 -2.6182
   74MOL    H9445500   6.792   3.086   0.175  0.9506  0.8570  0.1883
   74MOL    C9545501   6.918   3.121   7.767 -0.3064  0.7197  0.5149
   74MOL    O9645502   7.032   3.145   0.077  0.0338 -0.5259  0.0445
   74MOL    C9745503   7.067   3.036   0.163  0.1990 -0.5684  0.3649
   74MOL    C9845504   7.130   3.097   0.293  0.2246  0.4659  0.2456
   74MOL    C9945505   7.280   3.132   0.293  0.0230  0.6817  0.8659
   74MOL   C10045506   7.344   3.178   0.420 -0.7043 -0.4313  0.1969
   74MOL   C10145507   7.496   3.168   0.414  0.2926 -0.4225 -0.5808
   74MOL   C10245508   7.550   3.032   0.454  0.1968 -0.4012  0.2885
   74MOL   C10345509   7.536   3.004   0.606  0.0729  0.3383  0.7692
   74MOL   C10445510   7.589   2.873   0.664  0.7099 -0.3791 -0.1980
   74MOL   C10545511   6.919   3.218   7.651  0.2218  0.0618 -0.5342
   74MOL   H10645512   6.942   3.023   7.724  1.5298  0.4503  2.1028
   74MOL   H10745513   7.129   2.962   0.112  0.0100 -1.1404  0.9572
   74MOL   H10845514   6.982   2.973   0.188 -0.0162 -0.3642  0.1467
   74MOL   H10945515   7.114   3.036   0.383  2.4180  0.6067  0.7442
   74MOL   H11045516   7.069   3.185   0.314 -1.1779 -0.2937 -0.6041
   74MOL   H11145517   7.330   3.046   0.250  0.6495  1.9472 -1.0162
   74MOL   H11245518   7.296   3.205   0.213 -0.4645 -0.4284 -0.2494
   74MOL   H11345519   7.318   3.279   0.453 -1.0950 -0.9193  1.4304
   74MOL   H11445520   7.315   3.108   0.499 -0.7124 -1.1303 -0.4296
   74MOL   H11545521   7.526   3.181   0.310 -0.6175 -2.3786 -1.1096
   74MOL   H11645522   7.542   3.249   0.470  1.3115 -1.7043  0.4772
   74MOL   H11745523   7.658   3.022   0.439  0.1568 -1.9335  0.8743
   74MOL   H11845524   7.503   2.957   0.390  2.0970 -0.3728 -1.2149
   74MOL   H11945525   7.574   3.092   0.657 -3.6837  2.3880  0.1407
   74MOL   H12045526   7.429   3.000   0.623 -0.0437 -0.1611 -0.0372
   74MOL   H12145527   7.557   2.779   0.617  0.1352 -0.1731 -0.2274
   74MOL   H12245528   7.568   2.866   0.770 -1.2896  2.0119 -0.3841
   74MOL   H12345529   7.697   2.886   0.664  0.3980  2.5016  1.0558
   74MOL   H12445530   6.814   3.247   7.652  0.2015  0.0249 -1.6410
   74MOL   H12545531   6.978   3.307   7.676  1.2182 -0.7764  0.1562
   74MOL   C12645532   6.957   3.165   7.515 -0.6926 -0.0445 -0.2400
   74MOL   O12745533   6.872   3.050   7.476 -0.6027 -0.5954  0.1823
   74MOL   C12845534   6.757   3.068   7.393 -0.0983 -0.0827  0.5695
   74MOL   C12945535   6.784   3.004   7.251 -0.0533  0.8472 -0.0286
   74MOL   C13045536   6.667   3.012   7.148  0.3157 -0.3495  0.0285
   74MOL   C13145537   6.661   3.124   7.049  0.2465  0.1009  0.1729
   74MOL   C13245538   6.553   3.101   6.940 -0.0380  0.1181  0.3565
   74MOL   C13345539   6.530   3.204   6.833 -0.0818  0.0449 -0.4110
   74MOL   C13445540   6.400   3.178   6.754  0.2258  0.2393  0.2107
   74MOL   C13545541   6.367   3.273   6.647  0.0616 -0.4049  0.3780
   74MOL   C13645542   7.109   3.127   7.491  0.3089 -0.0286  0.3344
   74MOL   H13745543   6.932   3.236   7.436 -1.2724  0.2597  0.2129
   74MOL   H13845544   6.722   3.171   7.395  0.9998  0.3321 -0.9549
   74MOL   H13945545   6.683   3.009   7.447  0.5570  0.3781  1.9869
   74MOL   H14045546   6.817   2.900   7.260 -0.3701  0.9363  2.7278
   74MOL   H14145547   6.860   3.068   7.206 -1.2236  1.8956 -0.5225
   74MOL   H14245548   6.687   2.926   7.085 -0.9991 -0.7024  0.0858
   74MOL   H14345549   6.576   3.021   7.207  0.7652  2.4673  0.3815
   74MOL   H14445550   6.637   3.224   7.085 -2.4443 -0.9105  1.2762
   74MOL   H14545551   6.756   3.140   6.998  1.4125 -1.9514  1.6599
   74MOL   H14645552   6.565   3.009   6.883 -0.9734 -1.0252  1.9916
   74MOL   H14745553   6.457   3.078   6.986 -1.0563 -1.3127 -2.3436
   74MOL   H14845554   6.619   3.198   6.771  0.1867 -1.8960  0.1334
   74MOL   H14945555   6.547   3.301   6.880  0.5518 -0.4548  0.4051
   74MOL   H15045556   6.402   3.077   6.713  1.3580 -0.1247  1.1555
   74MOL   H15145557   6.312   3.177   6.818 -0.5852 -0.1562 -0.8973
   74MOL   H15245558   6.380   3.377   6.678  2.1319 -0.5240 -0.0429
   74MOL   H15345559   6.261   3.257   6.626 -0.1860  0.2639  1.0510
   74MOL   H15445560   6.433   3.272   6.561 -0.9685  0.5852 -0.4416
   74MOL   H15545561   7.175   3.208   7.523  1.6520 -2.1691  3.1075
   74MOL   H15645562   7.120   3.047   7.564  2.7939  0.5553  0.6479
   74MOL   C15745563   7.151   3.091   7.348  1.0272  0.1098 -0.1996
   74MOL   O15845564   7.289   3.040   7.343  0.3290  0.4012  0.3194
   74MOL   C15945565   7.303   2.904   7.384  0.3676  0.7180  0.7159
   74MOL   C16045566   7.416   2.860   7.288  0.2397 -0.2975  0.2301
   74MOL   C16145567   7.552   2.917   7.343  0.1464 -0.2555  0.5228
   74MOL   C16245568   7.676   2.875   7.259  0.1143  0.3140  0.5926
   74MOL   C16345569   7.681   2.928   7.115 -0.2172 -0.3641  0.0822
   74MOL   C16445570   0.035   2.894   7.043 -0.2851  0.4797 -0.3321
   74MOL   C16545571   0.015   2.899   6.894  0.4909  0.2177  0.2063
   74MOL   C16645572   0.131   2.848   6.820 -0.1478  0.4708 -0.2101
   74MOL   C16745573   7.144   3.216   7.257  0.5530  0.1386 -0.9425
   74MOL   H16845574   7.089   3.013   7.302  1.8151 -0.1326 -0.8738
   74MOL   H16945575   7.213   2.844   7.371 -0.7007  1.6607  3.4522
   74MOL   H17045576   7.320   2.915   7.492 -2.6937 -0.1643  1.3305
   74MOL   H17145577   7.397   2.905   7.191 -0.1172 -0.5159  0.2006
   74MOL   H17245578   7.421   2.751   7.281  1.4014 -0.1958 -0.5892
   74MOL   H17345579   7.555   3.026   7.343 -2.0404 -0.1786  1.4941
   74MOL   H17445580   7.570   2.900   7.449  0.6282 -0.3115  0.4336
   74MOL   H17545581   7.757   2.927   7.309  2.2998 -0.7671 -1.7526
   74MOL   H17645582   7.694   2.767   7.259  1.1872  0.4302 -3.0277
   74MOL   H17745583   7.593   2.891   7.062 -0.3142 -0.3467  0.2308
   74MOL   H17845584   7.677   3.036   7.118  2.4148 -0.2405 -0.0397
   74MOL   H17945585   0.080   2.801   7.078  0.7665  1.6748  1.5740
   74MOL   H18045586   0.119   2.962   7.058 -0.1280  0.3518 -0.6224
   74MOL   H18145587   7.707   2.834   6.864  0.4902 -0.2488  1.1828
   74MOL   H18245588   7.769   3.001   6.862  0.4953  0.1064 -0.1459
   74MOL   H18345589   0.138   2.740   6.834  1.4572  0.6332  0.3700
   74MOL   H18445590   0.226   2.893   6.849 -0.0097  2.0296 -3.0091
   74MOL   H18545591   0.115   2.877   6.717  1.9468 -0.8995 -0.9443
   74MOL   H18645592   7.041   3.253   7.253  0.9873  1.2639 -2.2585
   74MOL   H18745593   7.205   3.288   7.310 -1.0204 -0.9859  2.5509
   74MOL   C18845594   7.184   3.188   7.113 -0.1685 -0.4110  0.1309
   74MOL   O18945595   7.181   3.313   7.037  0.3117  0.5943 -0.2207
   74MOL   C19045596   7.283   3.406   7.065  0.9113  0.5889  0.7829
   74MOL   C19145597   7.291   3.501   6.941 -0.8018 -0.3570  0.5557
   74MOL   C19245598   7.326   3.422   6.810 -0.0197 -0.0387  0.6253
   74MOL   C19345599   7.302   3.514   6.687 -0.6840 -0.1541 -1.3281
   74MOL   C19445600   7.321   3.435   6.551  0.2032  0.3230 -0.8835
   74MOL   C19545601   7.212   3.329   6.512 -0.5823 -0.0300 -0.1252
   74MOL   C19645602   7.237   3.252   6.383  0.3780  0.1647 -0.5919
   74MOL   C19745603   7.116   3.164   6.355 -0.1152 -0.4147 -0.1558
   74MOL   C19845604   7.093   3.096   7.042 -0.0454  0.5292  0.3547
   74MOL   H19945605   7.280   3.137   7.104  0.5573  1.3487 -2.9929
   74MOL   H20045606   7.263   3.459   7.158  0.5586  0.5992  0.7006
   74MOL   H20145607   7.377   3.352   7.079  1.2484  1.2408  1.0354
   74MOL   H20245608   7.375   3.567   6.962 -1.1498  0.4816 -0.6586
   74MOL   H20345609   7.201   3.562   6.937  0.1724  1.0270 -0.5158
   74MOL   H20445610   7.429   3.385   6.809  0.2724  0.7475 -1.0430
   74MOL   H20545611   7.255   3.341   6.793 -0.0278  0.2244 -0.6390
   74MOL   H20645612   7.203   3.560   6.689 -1.0791 -0.9917  1.9717
   74MOL   H20745613   7.371   3.599   6.684 -0.3267 -0.4011 -0.2306
   74MOL   H20845614   7.322   3.512   6.474 -1.4797  2.2011  0.8984
   74MOL   H20945615   7.420   3.389   6.551  1.5398  3.1145 -0.0590
   74MOL   H21045616   7.115   3.378   6.501 -0.9840 -0.9274 -0.5842
   74MOL   H21145617   7.196   3.259   6.594  0.2859  1.5283  1.4192
   74MOL   H21245618   7.266   3.315   6.298 -0.0713 -2.0256 -2.4072
   74MOL   H21345619   7.325   3.189   6.394 -1.5971 -2.3045  1.3865
   74MOL   H21445620   7.088   3.112   6.447 -1.1868  0.5339  0.0705
   74MOL   H21545621   7.120   3.079   6.287  0.4411  0.0788 -0.7398
   74MOL   H21645622   7.030   3.219   6.319  0.2506  1.2426  1.4472
   74MOL   H21745623   7.063   3.008   7.099  1.9632  0.5245  1.4236
   74MOL   H21845624   6.999   3.145   7.013  0.4403  0.0908 -2.0693
   74MOL   C21945625   7.147   3.042   6.906 -0.7183  0.8541 -0.8713
   74MOL   O22045626   7.047   2.957   6.860 -0.9092 -0.3571  0.1142
   74MOL   C22145627   6.966   3.020   6.765 -0.0524 -0.5000  0.0282
   74MOL   C22245628   6.872   2.919   6.697  0.1588 -0.1117  0.3643
   74MOL   C22345629   6.811   2.967   6.561  0.6276 -0.0721 -0.0372
   74MOL   C22445630   6.709   2.867   6.506  1.0099 -0.4024  0.4237
   74MOL   C22545631   6.651   2.892   6.359 -0.8076 -0.3433 -0.0400
   74MOL   C22645632   6.738   2.858   6.240  0.3449  0.0154 -0.2621
   74MOL   C22745633   6.774   2.711   6.216  0.0004  0.3057 -0.0336
   74MOL   C22845634   6.823   2.686   6.073  0.3515 -0.3134 -0.1807
   74MOL   C22945635   7.264   2.949   6.930  0.1641  0.1794 -0.1315
   74MOL   H23045636   7.172   3.124   6.838  2.3534  0.3355 -0.4432
   74MOL   H23145637   7.020   3.066   6.682  3.0324  0.9562  2.7511
   74MOL   H23245638   6.903   3.097   6.809 -1.4534 -0.5415 -1.8173
   74MOL   H23345639   6.803   2.883   6.773  0.6279  0.1911  0.9416
   74MOL   H23445640   6.939   2.834   6.677 -1.2992 -1.4370  1.0144
   74MOL   H23545641   6.765   3.065   6.575  3.7356  1.3266  0.9283
   74MOL   H23645642   6.892   2.969   6.488 -0.1229 -0.0847 -0.8757
   74MOL   H23745643   6.760   2.771   6.496  0.5393 -0.5048 -1.1065
   74MOL   H23845644   6.632   2.856   6.582  0.5821  2.8360  0.4864
   74MOL   H23945645   6.561   2.832   6.348 -0.8765 -1.1118  3.9306
   74MOL   H24045646   6.615   2.994   6.349  1.0791  0.2592 -0.9470
   74MOL   H24145647   6.829   2.918   6.243  1.1598 -1.2390  1.0799
   74MOL   H24245648   6.696   2.884   6.144 -0.9872 -0.7229  0.1045
   74MOL   H24345649   6.854   2.679   6.283  1.2851  2.5798 -0.4156
   74MOL   H24445650   6.692   2.642   6.237  0.4722 -0.7489 -1.5021
   74MOL   H24545651   6.872   2.588   6.075  1.3024  0.0935 -2.0667
   74MOL   H24645652   6.899   2.759   6.046  0.9816 -0.6634  0.6264
   74MOL   H24745653   6.738   2.697   6.006  0.8502  2.5132 -0.4172
   74MOL   H24845654   7.349   2.999   6.977  0.2746  0.1055 -0.2538
   74MOL   H24945655   7.238   2.875   7.006  0.8109  0.1816  0.0929
   74MOL   C25045656   7.308   2.871   6.809  1.3144  0.4620 -0.1887
   74MOL   O25145657   7.435   2.815   6.831 -0.0972 -0.4802  0.1636
   74MOL   C25245658   7.432   2.681   6.890 -0.1983 -0.9040 -0.5720
   74MOL   C25345659   7.437   2.575   6.787  0.3145 -0.3770  0.5464
   74MOL   C25445660   7.482   2.445   6.857 -0.4820  0.0959  0.2383
   74MOL   C25545661   7.633   2.440   6.886  0.6125  0.3087  0.0376
   74MOL   C25645662   7.668   2.294   6.942 -0.2551  0.2252  0.0350
   74MOL   C25745663   0.036   2.288   6.985 -0.3177  0.4080  0.0353
   74MOL   C25845664   0.088   2.147   7.019  0.6399  0.3302 -0.5924
   74MOL   C25945665   0.235   2.137   7.063  0.2632 -0.0926 -0.4008
   74MOL   C26045666   7.319   2.965   6.682 -0.1931  0.1107  0.0741
   74MOL   H26145667   7.239   2.788   6.791 -1.0924  1.5054  3.5498
   74MOL   H26245668   7.348   2.664   6.957  0.7395  0.0795  0.8858
   74MOL   H26345669   7.515   2.679   6.960 -0.9603 -1.2387  0.3348
   74MOL   H26445670   7.494   2.605   6.699  0.7431  1.0909  1.3102
   74MOL   H26545671   7.333   2.574   6.755 -0.2115 -0.3343  2.2178
   74MOL   H26645672   7.419   2.414   6.941  2.1805  1.1326  2.7094
   74MOL   H26745673   7.462   2.363   6.788 -1.7461  1.6541 -1.2682
   74MOL   H26845674   7.681   2.462   6.790  1.0721  1.6052  0.5534
   74MOL   H26945675   7.671   2.518   6.952  0.9980 -0.2840  0.5098
   74MOL   H27045676   7.606   2.281   7.030 -0.0069  1.1833  0.3547
   74MOL   H27145677   7.641   2.219   6.867  0.7225 -0.7047  0.6014
   74MOL   H27245678   0.062   2.358   7.064 -0.1017 -0.9351  1.1753
   74MOL   H27345679   0.098   2.323   6.903 -1.5440 -0.1908 -1.1592
   74MOL   H27445680   0.025   2.116   7.103  1.1317  0.8286 -0.0347
   74MOL   H27545681   0.069   2.081   6.934  0.9502 -1.6020  0.7980
   74MOL   H27645682   0.253   2.236   7.105  1.1420 -0.8556  1.0634
   74MOL   H27745683   0.285   2.128   6.966  0.2811 -1.1382 -0.3000
   74MOL   H27845684   0.258   2.066   7.141  1.1700  1.1273  0.4711
   74MOL   H27945685   7.238   3.034   6.657 -0.6353  0.0873  1.4433
   74MOL   H28045686   7.392   3.034   6.724 -1.3578  1.2612  0.2418
   74MOL   C28145687   7.361   2.887   6.558 -0.1110  0.4185  0.3891
   74MOL   O28245688   7.446   2.985   6.484  0.3141  0.1269 -0.4280
   74MOL   C28345689   7.586   2.971   6.505 -0.0245  0.3782  0.5005
   74MOL   C28445690   7.649   3.097   6.451 -0.2091  0.4388 -0.8036
   74MOL   C28545691   0.030   3.087   6.467  0.1734  0.1422 -0.0560
   74MOL   C28645692   0.121   3.211   6.452  0.3111 -0.2903  0.0649
   74MOL   C28745693   0.113   3.328   6.559 -0.2599 -0.4070 -0.6860
   74MOL   C28845694   0.165   3.281   6.702 -0.2612 -0.9025  0.0460
   74MOL   C28945695   0.119   3.382   6.809  0.4663 -0.5085  0.1637
   74MOL   C29045696   0.182   3.522   6.811  0.0049 -0.0701 -0.0149
   74MOL   C29145697   7.246   2.828   6.475  0.0614  0.2332  0.4835
   74MOL   H29245698   7.430   2.807   6.585  1.1398  1.9272  1.7338
   74MOL   H29345699   7.623   2.888   6.444 -0.1586  1.3713 -0.9530
   74MOL   H29445700   7.609   2.953   6.610 -1.8424 -0.8914  0.7184
   74MOL   H29545701   7.599   3.179   6.502  0.0186 -0.7437  1.4188
   74MOL   H29645702   7.627   3.118   6.347  1.0544  0.7227 -1.0297
   74MOL   H29745703   0.047   3.031   6.559  2.1865  0.5243 -0.1813
   74MOL   H29845704   0.069   3.009   6.402  0.4865  0.4855 -0.2781
   74MOL   H29945705   0.225   3.180   6.454  0.7113  1.0264  0.5473
   74MOL   H30045706   0.098   3.255   6.355 -0.3007  1.8006  1.1130
   74MOL   H30145707   0.158   3.420   6.521 -2.6011  1.7964  1.6737
   74MOL   H30245708   0.006   3.342   6.572 -0.0052  2.9390 -1.6020
   74MOL   H30345709   0.274   3.281   6.710 -0.2730  0.2242  0.3120
   74MOL   H30445710   0.109   3.189   6.722 -1.5195 -0.3346 -0.8045
   74MOL   H30545711   0.012   3.398   6.794  0.4412 -0.9467 -0.1399
   74MOL   H30645712   0.124   3.331   6.905 -0.0537  0.4938  0.7362
   74MOL   H30745713   0.204   3.555   6.710 -0.1322 -1.2306 -0.4378
   74MOL   H30845714   0.273   3.520   6.870 -0.3847 -3.1847  0.5734
   74MOL   H30945715   0.122   3.596   6.864  0.0255  0.6875 -1.0328
   74MOL   H31045716   7.197   2.750   6.533 -0.8363  1.1700  1.0259
   74MOL   H31145717   7.167   2.903   6.465  0.1450  0.1953 -0.4607
   74MOL   C31245718   7.300   2.788   6.334 -0.2463  0.1124 -0.6381
   74MOL   O31345719   7.304   2.906   6.263 -0.1366 -0.3058 -0.1388
   74MOL   C31445720   7.382   2.903   6.137 -0.1579  0.5000 -0.4312
   74MOL   C31545721   7.373   3.037   6.072 -0.0241  0.1745  0.4905
   74MOL   C31645722   7.464   3.134   6.151  0.1781  0.7480 -0.3732
   74MOL   C31745723   7.458   3.278   6.097 -0.6943  0.4872  0.2302
   74MOL   C31845724   7.564   3.373   6.169  0.1953  0.6284  0.5157
   74MOL   C31945725   7.598   3.506   6.100  0.3481  0.5765  0.2910
   74MOL   C32045726   7.477   3.596   6.084  0.2473 -0.2031 -0.7564
   74MOL   C32145727   7.524   3.723   6.005  0.0025  0.7409 -0.3449
   74MOL   C32245728   7.207   2.677   6.279 -0.1308 -0.2458  0.3427
   74MOL   H32345729   7.404   2.757   6.342 -0.7126 -1.3941 -0.2295
   74MOL   H32445730   7.343   2.831   6.065  1.3739  1.4122 -2.2053
   74MOL   H32545731   7.486   2.882   6.163 -0.0436 -0.0287 -1.2701
   74MOL   H32645732   7.266   3.056   6.065  0.1834  0.9533 -0.6472
   74MOL   H32745733   7.407   3.036   5.969  1.8298 -0.3932  1.0760
   74MOL   H32845734   7.444   3.117   6.257  0.9355 -0.8879 -0.4717
   74MOL   H32945735   7.566   3.100   6.135 -0.8540 -2.4088 -0.6629
   74MOL   H33045736   7.486   3.276   5.992  1.1825  1.5024  0.6797
   74MOL   H33145737   7.356   3.315   6.093 -0.3127  1.5718  0.3124
   74MOL   H33245738   7.511   3.398   6.261 -0.2444  0.5503  0.2883
   74MOL   H33345739   7.660   3.333   6.201 -0.3415 -1.9722 -1.0160
   74MOL   H33445740   7.644   3.510   6.001  2.0161  1.3285  1.0807
   74MOL   H33545741   7.681   3.549   6.156 -0.8101 -0.1408  2.6018
   74MOL   H33645742   7.401   3.540   6.030 -0.6142 -0.2824  0.5194
   74MOL   H33745743   7.425   3.625   6.175  1.1998  1.4153 -0.7135
   74MOL   H33845744   7.624   3.761   6.026  0.1474  0.1922 -0.0311
   74MOL   H33945745   7.459   3.810   6.009 -2.2005 -0.7092 -2.7515
   74MOL   H34045746   7.527   3.690   5.901 -1.4129 -1.0326  0.1430
   74MOL   H34145747   7.107   2.717   6.260 -0.3329 -0.7839  0.2621
   74MOL   H34245748   7.240   2.646   6.179  0.3655  0.5258  0.2644
   74MOL   C34345749   7.180   2.550   6.362 -0.1824  0.5985 -1.0713
   74MOL   O34445750   7.088   2.579   6.461 -0.4195  0.0183 -0.2103
   74MOL   C34545751   7.004   2.474   6.499 -0.1806  0.2981  0.4030
   74MOL   C34645752   6.921   2.518   6.619  0.2230  0.1829  0.4528
   74MOL   C34745753   7.012   2.553   6.743 -0.3507 -0.2943  0.1970
   74MOL   C34845754   6.926   2.580   6.867 -0.3769 -0.0564  0.0191
   74MOL   C34945755   7.018   2.577   6.992  0.4236  0.0711 -0.8341
   74MOL   C35045756   6.938   2.618   7.121  0.2189 -0.5087 -0.2122
   74MOL   C35145757   7.009   2.618   7.258  0.6436 -0.2189  0.7567
   74MOL   C35245758   6.912   2.637   7.378  0.3328  0.2182  0.3581
   74MOL   C35345759   7.311   2.478   6.412 -0.2985 -0.3226 -0.3789
   74MOL   H35445760   7.130   2.481   6.295 -1.8309 -0.5946  1.3272
   74MOL   H35545761   7.059   2.382   6.520 -0.6679 -0.4977 -1.6190
   74MOL   H35645762   6.939   2.458   6.413 -0.8360 -0.6552  1.0708
   74MOL   H35745763   6.864   2.428   6.646 -2.4121  0.9444 -2.2365
   74MOL   H35845764   6.856   2.602   6.595  0.8037  0.8061  1.0478
   74MOL   H35945765   7.094   2.482   6.758  1.6542  1.6232 -1.2975
   74MOL   H36045766   7.066   2.644   6.717  2.1827 -2.0501 -0.9808
   74MOL   H36145767   6.883   2.680   6.858  0.9284  0.5299  0.2026
   74MOL   H36245768   6.859   2.495   6.877 -1.3186  0.6798  0.0915
   74MOL   H36345769   7.068   2.480   7.004 -0.2672 -0.0625  1.0489
   74MOL   H36445770   7.104   2.644   6.982  0.5850 -0.0061  0.0577
   74MOL   H36545771   6.856   2.546   7.126  0.0432 -0.1902  1.7650
   74MOL   H36645772   6.910   2.722   7.103 -0.4476 -0.7900 -0.8228
   74MOL   H36745773   7.061   2.523   7.256 -1.8291 -1.6249  0.9306
   74MOL   H36845774   7.077   2.703   7.250 -0.3019  0.3925 -1.5433
   74MOL   H36945775   6.957   2.706   7.449  0.8332  0.5559 -0.2767
   74MOL   H37045776   6.879   2.543   7.423  0.5819  0.2091  0.5225
   74MOL   H37145777   6.818   2.675   7.340  2.4111  3.2650 -2.0084
   74MOL   H37245778   7.372   2.559   6.451 -2.4018  1.9034 -1.6269
   74MOL   H37345779   7.295   2.418   6.502  1.5711  0.0744  0.2566
   74MOL   C37445780   7.395   2.395   6.314 -0.0845 -0.4759 -0.5342
   74MOL   O37545781   7.423   2.487   6.207  0.5887 -0.7496  0.2711
   74MOL   C37645782   7.561   2.503   6.193  0.5720 -0.2527 -0.0616
   74MOL   C37745783   7.597   2.573   6.066 -0.4497 -0.5289 -0.1453
   74MOL   C37845784   7.553   2.491   5.946  0.9889  0.1042 -0.3460
   74MOL   C37945785   7.608   2.530   5.810 -0.3952 -0.5662  0.1303
   74MOL   C38045786   7.562   2.446   5.690 -0.0287 -1.0533  0.0252
   74MOL   C38145787   7.570   2.295   5.708 -0.1358  0.1923  0.3637
   74MOL   C38245788   7.520   2.231   5.570 -0.1682 -0.1805  0.0694
   74MOL   C38345789   7.559   2.086   5.554 -0.3094 -0.4640 -0.0745
   74MOL   C38445790   7.320   2.265   6.266 -0.9033  0.3044  0.3778
   74MOL   H38545791   7.485   2.362   6.366 -1.1463  1.9564  2.9979
   74MOL   H38645792   7.611   2.407   6.204 -1.0397 -0.7108  4.1419
   74MOL   H38745793   7.580   2.572   6.275 -0.2668  1.0573 -0.9451
   74MOL   H38845794   7.706   2.584   6.064 -0.4664 -0.0710  0.8148
   74MOL   H38945795   7.544   2.668   6.062  0.1448 -0.2395 -1.7652
   74MOL   H39045796   7.583   2.388   5.966 -2.0133 -0.8667 -0.6109
   74MOL   H39145797   7.444   2.488   5.936  1.0858  0.2377 -1.4705
   74MOL   H39245798   7.563   2.629   5.797  1.8531  0.2955 -1.3457
   74MOL   H39345799   7.716   2.537   5.808 -0.2674 -2.4314 -0.7701
   74MOL   H39445800   7.453   2.450   5.683  0.0027 -1.7483 -0.9811
   74MOL   H39545801   7.591   2.482   5.591 -1.3168 -0.2837 -0.0828
   74MOL   H39645802   7.514   2.254   5.792  0.0369  0.1306  0.4498
   74MOL   H39745803   7.673   2.264   5.725  0.1132  1.6569  1.5776
   74MOL   H39845804   7.411   2.239   5.571 -0.2159 -0.4016 -1.7768
   74MOL   H39945805   7.554   2.294   5.488 -0.7432  0.9407  0.6850
   74MOL   H40045806   7.545   2.035   5.649  1.2020 -0.6400  0.0687
   74MOL   H40145807   7.665   2.083   5.528 -0.3306  0.8118 -0.3541
   74MOL   H40245808   7.511   2.034   5.472 -0.8765 -0.1601  0.0681
   74MOL   H40345809   7.215   2.293   6.256 -1.3166 -0.8002  1.5707
   74MOL   H40445810   7.368   2.234   6.173  1.8429  3.1185  0.7863
   74MOL   C40545811   7.317   2.157   6.378 -0.4757 -0.6228 -0.4233
   74MOL   O40645812   7.453   2.127   6.400  0.5649 -0.7271 -0.4711
   74MOL   C40745813   7.470   2.092   6.541 -0.1041 -0.3337 -0.0565
   74MOL   C40845814   7.598   2.016   6.572 -0.4405 -0.5607 -0.5168
   74MOL   C40945815   7.719   2.112   6.564  0.0946  0.3788 -0.9672
   74MOL   C41045816   0.077   2.042   6.583  0.5517  0.0585 -0.4276
   74MOL   C41145817   0.196   2.141   6.573 -0.1746  0.2066 -0.4536
   74MOL   C41245818   0.335   2.072   6.598  0.0042 -0.1198 -0.6287
   74MOL   C41345819   0.453   2.149   6.538  0.5575 -0.9633  0.2056
   74MOL   C41445820   0.458   2.172   6.388  0.4465 -0.3994 -0.3680
   74MOL   C41545821   7.252   2.025   6.318 -0.1628 -0.3440  0.1809
   74MOL   H41645822   7.278   2.196   6.472  2.5571  0.5724  0.3930
   74MOL   H41745823   7.394   2.024   6.579 -1.0496 -0.6139 -2.3867
   74MOL   H41845824   7.459   2.187   6.594  1.0228 -0.4913  0.4775
   74MOL   H41945825   7.612   1.932   6.504  1.6046 -0.7360  0.0890
   74MOL   H42045826   7.579   1.975   6.671 -2.3966  1.5634  0.0309
   74MOL   H42145827   7.718   2.165   6.469  0.6538  0.4127 -0.9560
   74MOL   H42245828   7.715   2.189   6.641 -0.4748  0.4198 -1.0380
   74MOL   H42345829   0.084   1.985   6.675 -2.3086 -2.6457 -1.8035
   74MOL   H42445830   0.086   1.972   6.500 -0.3848 -0.3028 -0.2280
   74MOL   H42545831   0.192   2.177   6.470 -1.0095 -1.6715 -1.0920
   74MOL   H42645832   0.183   2.233   6.630 -0.7658 -0.6239  0.7648
   74MOL   H42745833   0.340   1.972   6.554 -0.4369 -0.4335  0.0320
   74MOL   H42845834   0.347   2.061   6.706  1.4504  0.3566 -0.7317
   74MOL   H42945835   0.448   2.252   6.574 -1.2305 -1.1823  0.6579
   74MOL   H43045836   0.549   2.112   6.574  0.1616 -0.4449  1.8605
   74MOL   H43145837   0.364   2.204   6.343  2.2439  0.6130 -3.5275
   74MOL   H43245838   0.497   2.087   6.333  0.8351 -0.5801  0.1856
   74MOL   H43345839   0.525   2.257   6.376  0.8068 -0.6145  0.1064
   74MOL   H43445840   7.309   2.008   6.226 -2.3867 -1.6412 -0.9972
   74MOL   H43545841   7.277   1.935   6.374 -1.1114 -0.3337  0.6332
   74MOL   C43645842   7.099   2.036   6.296 -1.0539  0.0836 -0.8373
   74MOL   O43745843   7.057   2.156   6.234  0.0912 -0.1624  0.1638
   74MOL   C43845844   6.914   2.174   6.217 -0.3880  0.0657 -0.1577
   74MOL   C43945845   6.882   2.270   6.106  0.1384  0.4469 -0.0081
   74MOL   C44045846   6.735   2.293   6.075 -0.4937 -0.6386 -0.5789
   74MOL   C44145847   6.715   2.349   5.935  0.4790  0.2106 -0.3359
   74MOL   C44245848   6.729   2.240   5.822  1.1095 -0.3333 -0.9118
   74MOL   C44345849   6.674   2.301   5.689 -0.4000  0.2921 -0.3260
   74MOL   C44445850   6.692   2.220   5.559 -0.3448 -0.2935  0.0753
   74MOL   C44545851   6.589   2.113   5.528  0.4473  0.2331  0.5816
   74MOL   C44645852   7.029   2.027   6.437 -0.8383 -0.3350 -0.0259
   74MOL   H44745853   7.081   1.943   6.243 -0.0113  0.3867 -1.7294
   74MOL   H44845854   6.871   2.083   6.175 -3.3676  1.3167  0.1183
   74MOL   H44945855   6.864   2.199   6.310 -1.7747  0.9115 -1.1198
   74MOL   H45045856   6.933   2.237   6.016 -2.0104 -0.2390 -1.0085
   74MOL   H45145857   6.934   2.362   6.135 -1.2735  0.8549  1.3477
   74MOL   H45245858   6.682   2.198   6.077 -2.7789  0.5721 -1.5409
   74MOL   H45345859   6.687   2.353   6.152 -0.7252 -0.1441 -1.0963
   74MOL   H45445860   6.624   2.408   5.941  1.7104  1.9571  1.8824
   74MOL   H45545861   6.800   2.413   5.913  0.9263 -0.6654 -1.2118
   74MOL   H45645862   6.835   2.215   5.817  1.3187  0.1415  0.9557
   74MOL   H45745863   6.659   2.160   5.845 -0.8433  1.1090 -1.6867
   74MOL   H45845864   6.741   2.385   5.672 -0.0916  0.0693 -0.2016
   74MOL   H45945865   6.572   2.341   5.694 -0.0917  1.2394 -1.3469
   74MOL   H46045866   6.713   2.292   5.480  0.3873 -1.4021 -0.7523
   74MOL   H46145867   6.794   2.182   5.566 -0.4187 -0.3542  0.9408
   74MOL   H46245868   6.606   2.061   5.433 -1.3795 -0.8862  0.8381
   74MOL   H46345869   6.491   2.161   5.525 -0.1910 -1.1557 -1.8129
   74MOL   H46445870   6.584   2.046   5.614 -0.0406  0.4442  0.7151
   74MOL   H46545871   7.047   2.116   6.497 -1.0874  0.0951 -0.5906
   74MOL   H46645872   6.922   2.028   6.416 -0.2748 -0.4876 -3.0802
   74MOL   C46745873   7.060   1.898   6.520  0.5354 -0.0066 -0.0809
   74MOL   O46845874   7.063   1.790   6.435  0.6394  0.0220  0.4903
   74MOL   C46945875   7.136   1.682   6.470 -0.5248  0.0439 -0.2601
   74MOL   C47045876   7.137   1.583   6.356 -0.3728  0.6631 -0.1083
   74MOL   C47145877   7.013   1.499   6.363 -0.0184 -0.0966  0.1581
   74MOL   C47245878   7.010   1.386   6.467 -0.2796 -0.0667  0.3573
   74MOL   C47345879   7.117   1.274   6.442 -0.1991  0.2284 -0.1850
   74MOL   C47445880   7.102   1.196   6.315  0.0155  0.1150 -0.2883
   74MOL   C47545881   7.220   1.089   6.299  0.6756  0.1321 -0.3202
   74MOL   C47645882   7.358   1.157   6.271 -0.6285  0.6179 -0.7251
   74MOL   C47745883   6.958   1.870   6.634  0.6482  0.2770  0.2935
   74MOL   H47845884   7.155   1.922   6.567 -0.3062 -0.6655  2.0055
   74MOL   H47945885   7.090   1.638   6.558  1.6916 -1.2013  0.3048
   74MOL   H48045886   7.241   1.702   6.490  0.0249 -1.3144 -1.7341
   74MOL   H48145887   7.231   1.531   6.373  0.1111  1.2421 -0.9537
   74MOL   H48245888   7.144   1.644   6.265  0.1250 -1.6160 -1.6411
   74MOL   H48345889   6.931   1.570   6.373 -0.1372 -0.4143  1.4750
   74MOL   H48445890   6.990   1.467   6.261 -1.7848 -1.3969  0.9209
   74MOL   H48545891   7.040   1.437   6.558 -0.6554  2.7672 -1.0464
   74MOL   H48645892   6.910   1.348   6.488  0.0665 -1.1894  0.0232
   74MOL   H48745893   7.214   1.323   6.446 -0.0880 -0.1303  3.0443
   74MOL   H48845894   7.118   1.206   6.527 -0.2278  0.5971  0.1110
   74MOL   H48945895   7.100   1.267   6.233 -1.1858  0.8882  0.4125
   74MOL   H49045896   7.002   1.153   6.313 -0.2149  0.6152  0.2297
   74MOL   H49145897   7.238   1.022   6.382  0.2024 -0.3202 -0.5783
   74MOL   H49245898   7.190   1.016   6.224 -2.8977  1.1763 -0.0226
   74MOL   H49345899   7.438   1.088   6.244  0.0695  0.4223  1.7452
   74MOL   H49445900   7.399   1.207   6.358 -0.1264 -1.4043  0.2372
   74MOL   H49545901   7.354   1.223   6.184  2.9755  0.6141 -0.9636
   74MOL   H49645902   6.856   1.853   6.598  0.0450  1.7426  1.2724
   74MOL   H49745903   6.979   1.778   6.689 -1.5443 -1.7338 -2.0630
   74MOL   C49845904   6.945   1.986   6.725 -0.3857 -0.1675 -0.6011
   74MOL   O49945905   7.075   2.023   6.774 -1.1796 -0.5178 -0.3490
   74MOL   C50045906   7.094   2.164   6.794  1.1853  0.1146  0.3483
   74MOL   C50145907   7.224   2.185   6.872 -0.1765 -0.9872  0.7938
   74MOL   C50245908   7.200   2.129   7.010 -0.0987 -0.1230 -0.6804
   74MOL   C50345909   7.321   2.178   7.101  0.5325 -0.1684 -0.5060
   74MOL   C50445910   7.316   2.108   7.238  0.6417 -0.6835  0.3457
   74MOL   C50545911   7.426   2.164   7.340 -0.4061  0.2692  0.1052
   74MOL   C50645912   7.402   2.091   7.463  0.3425 -0.3401  0.0154
   74MOL   C50745913   7.334   2.167   7.567  0.2500 -0.5434 -0.6133
   74MOL   C50845914   6.851   1.963   6.843 -0.5045 -0.0929 -0.1284
   74MOL   H50945915   6.894   2.068   6.674 -0.8845 -0.6894 -0.9432
   74MOL   H51045916   7.018   2.202   6.862 -0.7999 -0.9202 -1.2677
   74MOL   H51145917   7.092   2.224   6.703 -1.7374 -1.2084 -0.5026
   74MOL   H51245918   7.254   2.290   6.884 -0.6750 -0.8457  0.7966
   74MOL   H51345919   7.309   2.135   6.826 -0.5715 -1.6428  0.7838
   74MOL   H51445920   7.106   2.168   7.049  0.5990 -0.5025  1.4135
   74MOL   H51545921   7.186   2.021   7.001  1.4468 -0.4572  0.8432
   74MOL   H51645922   7.419   2.164   7.056  0.8374  0.6509 -0.1050
   74MOL   H51745923   7.312   2.285   7.116 -1.5780 -0.4940  0.8531
   74MOL   H51845924   7.217   2.128   7.280  1.0953  1.7138  0.3641
   74MOL   H51945925   7.326   2.001   7.222 -0.8991 -1.0164  1.4688
   74MOL   H52045926   7.414   2.270   7.359 -4.2615 -0.1550  0.4702
   74MOL   H52145927   7.526   2.148   7.299 -0.4747 -0.9381  0.3835
   74MOL   H52245928   7.357   1.995   7.441  0.1423 -0.0024 -1.0568
   74MOL   H52345929   7.499   2.069   7.509  0.0127  0.2124  0.9949
   74MOL   H52445930   7.383   2.258   7.601  0.4298  0.2144 -2.8698
   74MOL   H52545931   7.302   2.103   7.650  0.2288 -2.0354 -1.7709
   74MOL   H52645932   7.241   2.215   7.537  0.5169  1.1922  1.1655
   74MOL   H52745933   6.875   1.865   6.886 -0.2478 -0.4254 -1.0094
   74MOL   H52845934   6.882   2.031   6.923 -0.2306 -1.0302  0.5770
   74MOL   C52945935   6.693   1.975   6.809 -0.1411 -0.8402  0.1913
   74MOL   O53045936   6.659   2.112   6.786 -0.2311  0.1199  0.3256
   74MOL   C53145937   6.521   2.148   6.773 -0.3434  0.5339 -0.0746
   74MOL   C53245938   6.518   2.285   6.704 -0.0751  0.1323 -0.4641
   74MOL   C53345939   6.570   2.279   6.559  0.3420 -0.4647  0.2335
   74MOL   C53445940   6.553   2.411   6.480  0.3183  0.2474  0.0723
   74MOL   C53545941   6.408   2.454   6.462 -0.9686 -0.1733  0.0251
   74MOL   C53645942   6.376   2.577   6.374  0.0740 -0.4228 -0.3650
   74MOL   C53745943   6.390   2.560   6.225 -0.6107 -0.8583 -0.7979
   74MOL   C53845944   6.389   2.695   6.152  0.4461  0.9130  0.4565
   74MOL   C53945945   6.609   1.906   6.921  0.2622 -0.0966 -0.1570
   74MOL   H54045946   6.654   1.924   6.720 -0.1320 -1.0436  0.3050
   74MOL   H54145947   6.468   2.079   6.707  0.7504  0.0531 -0.4423
   74MOL   H54245948   6.475   2.153   6.872  0.0677 -1.4920  0.2315
   74MOL   H54345949   6.570   2.360   6.764  0.4221  0.0996 -0.8442
   74MOL   H54445950   6.413   2.311   6.701 -0.1564  0.1217  1.5121
   74MOL   H54545951   6.677   2.273   6.577  0.1899 -2.3283  0.7140
   74MOL   H54645952   6.547   2.186   6.507 -0.4782 -0.3000  0.2992
   74MOL   H54745953   6.609   2.488   6.533 -1.1633  0.6149  1.1429
   74MOL   H54845954   6.606   2.391   6.387  0.6643  1.9410 -0.1052
   74MOL   H54945955   6.361   2.363   6.423 -0.1859 -0.7483  0.4149
   74MOL   H55045956   6.378   2.487   6.561 -0.5710  0.7982 -0.1738
   74MOL   H55145957   6.438   2.657   6.413 -1.0456  0.5866 -0.6191
   74MOL   H55245958   6.278   2.624   6.386  0.7640  0.5604  1.6556
   74MOL   H55345959   6.483   2.505   6.210  0.6684  1.2614 -0.7567
   74MOL   H55445960   6.307   2.501   6.186 -1.5369  0.5425 -0.9739
   74MOL   H55545961   6.487   2.741   6.158  1.5030 -1.1330 -0.4037
   74MOL   H55645962   6.328   2.767   6.206  1.2385  1.0849  1.1186
   74MOL   H55745963   6.366   2.699   6.045 -0.2115  1.5011  0.6157
   74MOL   H55845964   6.632   1.960   7.013  2.6827  0.7114 -1.1948
   74MOL   H55945965   6.503   1.928   6.911  0.4110  1.4503  1.5157
   74MOL   C56045966   6.636   1.755   6.941 -0.5664 -0.0461  0.2000
   74MOL   O56145967   6.564   1.684   6.838 -0.1176 -0.0349 -0.4396
   74MOL   C56245968   6.646   1.604   6.756  0.2590  0.1550 -0.1057
   74MOL   C56345969   6.561   1.563   6.636  0.0403 -0.0999  0.2806
   74MOL   C56445970   6.619   1.462   6.537 -0.5375 -0.0592 -0.0933
   74MOL   C56545971   6.534   1.430   6.419  0.4787 -0.0202 -0.6676
   74MOL   C56645972   6.608   1.353   6.305  0.3154  0.1608  0.9274
   74MOL   C56745973   6.537   1.333   6.174 -0.0034 -0.1362  0.1267
   74MOL   C56845974   6.614   1.265   6.063  0.5801  0.3670  0.1145
   74MOL   C56945975   6.677   1.137   6.104 -0.0793 -0.8460  0.0166
   74MOL   C57045976   6.564   1.716   7.073  0.1401  0.3985 -0.3134
   74MOL   H57145977   6.741   1.727   6.945 -0.9110 -1.1339  3.0834
   74MOL   H57245978   6.677   1.521   6.818  1.2966  0.7516  0.1877
   74MOL   H57345979   6.740   1.658   6.745  0.4428  0.5728  2.9787
   74MOL   H57445980   6.527   1.650   6.580  0.9825 -1.1443 -1.9738
   74MOL   H57545981   6.467   1.529   6.679 -0.1689  0.6432  0.4129
   74MOL   H57645982   6.717   1.481   6.494 -0.5001 -0.0790 -0.0160
   74MOL   H57745983   6.635   1.370   6.594 -1.7897 -0.8499 -0.9801
   74MOL   H57845984   6.439   1.381   6.439 -0.0898  0.1552 -2.7611
   74MOL   H57945985   6.492   1.527   6.391 -0.7696 -0.1462  0.7136
   74MOL   H58045986   6.709   1.395   6.297 -0.0823  0.5809 -2.5229
   74MOL   H58145987   6.634   1.255   6.345 -0.2399 -0.4048 -0.0775
   74MOL   H58245988   6.507   1.431   6.136  1.3660  0.6219  0.9637
   74MOL   H58345989   6.441   1.287   6.201 -0.1783 -1.6284 -2.8843
   74MOL   H58445990   6.569   1.247   5.966  1.3671  1.3566 -0.4579
   74MOL   H58545991   6.697   1.335   6.049 -0.5054  1.6854  0.1256
   74MOL   H58645992   6.767   1.157   6.161  0.1001 -2.3743  0.2631
   74MOL   H58745993   6.706   1.071   6.023 -1.0995  0.1219 -1.1675
   74MOL   H58845994   6.608   1.076   6.163  0.0263 -0.4837  0.5190
   74MOL   H58945995   6.576   1.795   7.147  2.0329  0.8627 -1.1113
   74MOL   H59045996   6.455   1.709   7.064  0.1724  1.1483 -1.3818
   74MOL   C59145997   6.625   1.600   7.153 -0.1838 -1.0214  0.1589
   74MOL   O59245998   6.594   1.482   7.083 -0.0991 -0.0969  0.7015
   74MOL   C59345999   6.680   1.378   7.119  0.1135  0.8285  0.7457
   74MOL   C59446000   6.630   1.253   7.041  0.8964 -0.4266 -0.1716
   74MOL   C59546001   6.704   1.131   7.088  0.3456  0.4207 -0.2877
   74MOL   C59646002   6.637   0.998   7.036  0.1007 -0.3716 -0.0314
   74MOL   C59746003   6.741   0.891   7.011 -0.0129  0.1464 -0.3483
   74MOL   C59846004   6.668   0.764   6.966 -0.1723  0.1774 -0.7324
   74MOL   C59946005   6.754   0.637   6.950 -0.3299 -0.6615 -1.3481
   74MOL   C60046006   6.753   0.557   7.077 -0.2274  0.4520 -1.0520
   74MOL   C60146007   6.577   1.602   7.298 -0.5049 -0.0641  0.0151
   74MOL   H60246008   6.732   1.611   7.171 -0.6642  1.7772  1.6110
   74MOL   H60346009   6.675   1.359   7.226 -0.8656 -1.9166  0.2473
   74MOL   H60446010   6.785   1.393   7.094  0.2368 -2.1077 -0.7631
   74MOL   H60546011   6.657   1.259   6.935 -0.9250 -0.1014 -0.6468
   74MOL   H60646012   6.522   1.255   7.057  0.7516  1.2524 -1.1306
   74MOL   H60746013   6.809   1.135   7.062  0.2668 -1.3028 -0.9379
   74MOL   H60846014   6.688   1.118   7.196  0.5240  1.9009 -0.0676
   74MOL   H60946015   6.560   0.964   7.105 -0.4501 -1.3398 -1.0931
   74MOL   H61046016   6.606   1.031   6.937  0.7033 -1.2500 -0.5220
   74MOL   H61146017   6.813   0.924   6.936  1.3103 -3.0918 -0.5795
   74MOL   H61246018   6.797   0.877   7.103 -1.4027 -1.0932  0.3281
   74MOL   H61346019   6.645   0.789   6.862  0.1314 -2.9204 -1.6197
   74MOL   H61446020   6.571   0.746   7.014 -0.7128  1.5181 -1.3035
   74MOL   H61546021   6.704   0.575   6.875 -2.2637  1.2816 -1.6882
   74MOL   H61646022   6.851   0.663   6.907 -0.3024 -0.3708 -1.1071
   74MOL   H61746023   6.648   0.550   7.104 -0.2072  1.3689 -0.7244
   74MOL   H61846024   6.792   0.622   7.155 -1.1179  0.4264 -0.5828
   74MOL   H61946025   6.800   0.459   7.067  0.6865  0.9435 -1.6184
   74MOL   H62046026   6.588   1.695   7.354  1.5185 -0.9299  1.1016
   74MOL   H62146027   6.471   1.578   7.284 -0.5687  0.0413  0.3272
   74MOL   H62246028   6.627   1.521   7.351  0.5752  0.0967 -0.7614
   75MOL     C146029   3.402   6.797   7.713 -0.0661  0.8882 -0.4302
   75MOL     O246030   3.494   6.710   7.645  0.1676  0.2338 -0.5558
   75MOL     C346031   3.425   6.597   7.597  0.2850 -0.0454 -0.2292
   75MOL     C446032   3.519   6.527   7.502 -0.8166  0.0925 -0.1986
   75MOL     C546033   3.450   6.418   7.434 -0.2253  0.0363  0.2901
   75MOL     C646034   3.528   6.357   7.318  0.4167 -0.5642  0.0012
   75MOL     C746035   3.446   6.253   7.253 -0.2954  0.6639 -0.1065
   75MOL     C846036   3.463   6.119   7.329  0.2420 -0.0865 -0.5899
   75MOL     C946037   3.368   6.017   7.272 -0.1782  0.5330 -0.3347
   75MOL    C1046038   3.357   5.888   7.341  0.5883 -0.7319  0.3538
   75MOL    C1146039   3.491   6.928   7.716 -0.2108 -0.7309  0.1510
   75MOL    H1246040   3.307   6.814   7.661 -0.1050 -0.5062 -0.8322
   75MOL    H1346041   3.335   6.631   7.546  2.5602  1.8807 -3.0260
   75MOL    H1446042   3.377   6.542   7.678  0.2682 -2.3879 -1.7937
   75MOL    H1546043   3.610   6.496   7.555 -0.9563  0.9176  0.5402
   75MOL    H1646044   3.542   6.606   7.430 -0.7571 -0.5074 -0.8369
   75MOL    H1746045   3.438   6.337   7.506  0.4940 -0.1991  0.1536
   75MOL    H1846046   3.351   6.448   7.399 -0.8416  0.2277  2.1481
   75MOL    H1946047   3.554   6.434   7.246 -1.0208  0.3863  0.4739
   75MOL    H2046048   3.620   6.318   7.361 -0.6565 -0.3622  2.5636
   75MOL    H2146049   3.343   6.291   7.251 -0.3583  0.5118  0.2972
   75MOL    H2246050   3.476   6.227   7.151 -0.7402  0.7966 -0.2761
   75MOL    H2346051   3.436   6.134   7.434 -2.6904  2.0134 -1.5530
   75MOL    H2446052   3.561   6.077   7.308 -0.7769 -2.5951 -0.4268
   75MOL    H2546053   3.266   6.055   7.274 -1.9113 -3.7001 -1.7326
   75MOL    H2646054   3.381   5.993   7.166  0.3559 -2.1956  0.3039
   75MOL    H2746055   3.457   5.848   7.356  0.9034  0.2235  0.8134
   75MOL    H2846056   3.301   5.824   7.273 -0.2096  2.2960 -1.9498
   75MOL    H2946057   3.302   5.895   7.435  1.2508 -0.7079  0.7426
   75MOL    H3046058   3.589   6.904   7.758 -1.6707 -3.1862  2.2126
   75MOL    H3146059   3.517   6.958   7.614 -0.7306  1.4361  0.6255
   75MOL    H3246060   3.375   6.767   0.039 -1.1364  1.5575 -0.5089
   75MOL    C3346061   3.427   7.036   0.022 -0.1007 -0.1862 -0.1188
   75MOL    O3446062   3.307   7.086   7.724 -0.2144  0.1521  0.7836
   75MOL    C3546063   3.205   7.147   0.029 -0.0574 -0.1893  0.3325
   75MOL    C3646064   3.083   7.183   7.713  0.2860  0.3784 -0.6619
   75MOL    C3746065   3.130   7.280   7.601  0.0949 -0.2773  0.5567
   75MOL    C3846066   3.041   7.293   7.482 -0.1292  0.3154 -0.5497
   75MOL    C3946067   3.056   7.421   7.394  0.2691 -0.2698 -0.1016
   75MOL    C4046068   3.031   7.551   7.463  0.0872  1.1728 -0.0607
   75MOL    C4146069   2.895   7.552   7.550 -0.1045  0.1262 -0.2326
   75MOL    C4246070   2.887   7.696   7.607  0.0961 -0.4973 -0.3852
   75MOL    C4346071   3.515   7.157   0.071 -0.3527 -0.4921 -0.2583
   75MOL    H4446072   3.395   6.987   0.114  0.9144 -2.2837 -0.8644
   75MOL    H4546073   3.244   7.238   0.074 -0.9513  1.4731 -2.1696
   75MOL    H4646074   3.169   7.075   0.103 -1.3867  0.3489  0.2137
   75MOL    H4746075   2.995   7.228   7.759 -0.0817 -0.8896 -0.1096
   75MOL    H4846076   3.050   7.090   7.667 -1.0346 -0.2474  1.5080
   75MOL    H4946077   3.155   7.369   7.658  0.6593  0.2429 -0.4946
   75MOL    H5046078   3.230   7.247   7.570 -0.0990  1.0660 -1.5168
   75MOL    H5146079   3.042   7.204   7.419  0.1241  1.0747 -1.6484
   75MOL    H5246080   2.937   7.295   7.514  0.5008 -1.3022  1.6700
   75MOL    H5346081   3.151   7.421   7.340  0.2656  0.6038 -0.1142
   75MOL    H5446082   2.989   7.418   7.308  2.3902  2.2558 -1.9207
   75MOL    H5546083   3.031   7.624   7.382  0.6094  1.2894  0.0442
   75MOL    H5646084   3.115   7.565   7.531 -0.1756 -1.3298  0.8242
   75MOL    H5746085   2.807   7.515   7.497  0.0761 -0.3510 -0.2043
   75MOL    H5846086   2.898   7.489   7.639 -1.1004  1.1225  0.5135
   75MOL    H5946087   2.889   0.004   7.535  0.4050 -0.0132  0.1744
   75MOL    H6046088   2.962   7.711   7.685  0.8740 -3.2324 -0.5693
   75MOL    H6146089   2.796   7.704   7.666  0.9952 -1.0834  1.1055
   75MOL    H6246090   3.460   7.205   0.152 -0.1738  0.7271 -0.8468
   75MOL    H6346091   3.599   7.115   0.126 -0.8564 -0.6505  0.4002
   75MOL    C6446092   3.561   7.263   7.742 -0.1055  0.4249  0.3349
   75MOL    O6546093   3.683   7.225   7.680  0.5995 -0.2640 -0.1435
   75MOL    C6646094   3.682   7.219   7.535  0.3392  0.4302 -0.3946
   75MOL    C6746095   3.828   7.195   7.500  0.4225  0.4981 -0.0305
   75MOL    C6846096   3.861   7.280   7.377 -0.3193 -0.2941 -0.4526
   75MOL    C6946097   4.008   7.275   7.354  0.4736  0.0880  1.1352
   75MOL    C7046098   4.053   7.336   7.223  0.6344  0.4299 -0.1930
   75MOL    C7146099   4.194   7.392   7.233 -0.1791 -0.2287  0.3375
   75MOL    C7246100   4.306   7.289   7.269  0.1997  0.4339 -0.4402
   75MOL    C7346101   4.443   7.352   7.257 -0.3220  0.0166  0.2723
   75MOL    C7446102   3.572   7.404   0.027  0.3973 -0.1438 -0.5095
   75MOL    H7546103   3.483   7.255   7.666  1.8652 -0.7217 -1.6261
   75MOL    H7646104   3.656   7.317   7.494 -1.0502  0.5867  0.7929
   75MOL    H7746105   3.612   7.142   7.503 -0.4026  1.6367 -1.7041
   75MOL    H7846106   3.840   7.089   7.478 -1.7907  0.8016 -2.9884
   75MOL    H7946107   3.891   7.233   7.580  0.4245  1.5535 -0.5176
   75MOL    H8046108   3.805   7.248   7.289  0.1114  0.1473 -0.8923
   75MOL    H8146109   3.837   7.385   7.391 -0.6526 -0.5974  1.4342
   75MOL    H8246110   4.049   7.341   7.431 -0.8755  0.1139  1.8469
   75MOL    H8346111   4.055   7.182   7.384  0.2865  0.4217  2.5434
   75MOL    H8446112   4.044   7.266   7.140  0.5040  1.8774 -1.4138
   75MOL    H8546113   3.982   7.414   7.199  1.7684  1.7791  0.7612
   75MOL    H8646114   4.195   7.477   7.301  0.6832  0.2123 -0.2161
   75MOL    H8746115   4.219   7.424   7.132  1.1063  0.2630  0.8008
   75MOL    H8846116   4.286   7.260   7.372  1.4697 -2.7382 -1.0329
   75MOL    H8946117   4.290   7.202   7.206 -1.5853  1.4209 -1.4129
   75MOL    H9046118   4.465   7.358   7.150  1.8666 -2.8506  0.5108
   75MOL    H9146119   4.523   7.283   7.286 -0.9908 -1.0416 -0.3682
   75MOL    H9246120   4.454   7.452   7.298 -0.5551  0.1395  0.0436
   75MOL    H9346121   3.489   7.426   0.094  0.4973 -2.0930  0.2713
   75MOL    H9446122   3.648   7.402   0.105  0.3974  0.1236 -0.5023
   75MOL    C9546123   3.609   7.516   7.706  0.2906 -0.1687 -0.1453
   75MOL    O9646124   3.626   7.630   0.012  0.3566 -0.7218  0.0218
   75MOL    C9746125   3.760   7.654   0.060  0.6618 -0.7222 -0.3456
   75MOL    C9846126   3.782   0.010   0.143  0.3304  0.3845 -0.0232
   75MOL    C9946127   3.715   0.138   0.094  0.4160  0.7309  0.4607
   75MOL   C10046128   3.699   0.261   0.180 -0.6569 -0.6079  0.0331
   75MOL   C10146129   3.635   0.384   0.112 -0.6445 -0.5409  0.2056
   75MOL   C10246130   3.639   0.511   0.204 -0.1200 -0.0369  0.4309
   75MOL   C10346131   3.569   0.632   0.139 -0.6605  0.7790 -0.1802
   75MOL   C10446132   3.421   0.626   0.161  0.4843  0.3074  0.0233
   75MOL   C10546133   3.490   7.550   7.611  0.0134  0.9156  0.1546
   75MOL   H10646134   3.699   7.486   7.652  0.4905 -0.3617  0.2942
   75MOL   H10746135   3.817   7.656   7.742  0.9626  1.9898 -0.1337
   75MOL   H10846136   3.793   7.571   0.122 -2.7339 -0.9180  1.3094
   75MOL   H10946137   3.890   0.027   0.143  0.5110 -0.7554  0.3395
   75MOL   H11046138   3.738   7.767   0.241 -1.0466 -0.6424 -0.8019
   75MOL   H11146139   3.758   0.169   7.773  0.7581  1.5985  0.8901
   75MOL   H11246140   3.612   0.117   0.068  0.6835 -1.0078  0.7465
   75MOL   H11346141   3.644   0.223   0.266  0.8196  0.4150  1.4712
   75MOL   H11446142   3.799   0.294   0.209 -0.0103 -2.3160 -0.2031
   75MOL   H11546143   3.690   0.408   0.021 -0.2940 -0.9591  0.3072
   75MOL   H11646144   3.532   0.353   0.090 -0.9113  1.5463 -1.7359
   75MOL   H11746145   3.742   0.537   0.229 -0.5720  0.6406  1.6609
   75MOL   H11846146   3.588   0.484   0.297  1.0832 -2.6983  0.3483
   75MOL   H11946147   3.617   0.720   0.182  0.7780  0.9257 -2.0699
   75MOL   H12046148   3.601   0.634   0.035 -1.0029 -0.8832 -0.3337
   75MOL   H12146149   3.370   0.538   0.122  1.1259 -0.6478  1.3205
   75MOL   H12246150   3.368   0.720   0.141  0.1326  0.0523 -0.2433
   75MOL   H12346151   3.411   0.632   0.269 -0.2480  1.5611 -0.0981
   75MOL   H12446152   3.443   7.453   7.600 -1.6387  1.6790  0.4119
   75MOL   H12546153   3.414   7.604   7.668 -0.7910 -2.2015  2.2139
   75MOL   C12646154   3.536   7.600   7.473 -0.2919 -0.5274 -0.2064
   75MOL   O12746155   3.545   7.743   7.468  0.4831 -0.0556  0.5614
   75MOL   C12846156   3.681   0.012   7.476  0.6471  0.0021 -0.1180
   75MOL   C12946157   3.696   0.153   7.413 -0.7413 -0.5570 -0.0429
   75MOL   C13046158   3.607   0.252   7.492  0.3990 -0.0949 -0.3337
   75MOL   C13146159   3.638   0.395   7.458  0.1062  0.6913  0.5253
   75MOL   C13246160   3.540   0.494   7.523 -0.2250  0.4600 -0.3923
   75MOL   C13346161   3.579   0.636   7.510  0.2403  0.0097  0.4666
   75MOL   C13446162   3.466   0.738   7.548 -0.5178  1.0400 -0.2808
   75MOL   C13546163   3.513   0.882   7.574 -0.1630  0.1321 -0.1137
   75MOL   C13646164   3.434   7.554   7.361  0.4172  0.3252 -0.6378
   75MOL   H13746165   3.633   7.552   7.456 -0.0985  0.4148 -1.8331
   75MOL   H13846166   3.753   7.722   7.424  3.1685  1.4746  1.4443
   75MOL   H13946167   3.699   0.019   7.583  4.3193 -0.6729 -0.6165
   75MOL   H14046168   3.669   0.165   7.308  1.5445 -1.6684 -0.7722
   75MOL   H14146169   3.802   0.176   7.412 -0.6201 -1.0380  0.7745
   75MOL   H14246170   3.508   0.223   7.456 -0.2468 -0.6172  1.7862
   75MOL   H14346171   3.617   0.219   7.595  1.8149 -2.5004 -1.2156
   75MOL   H14446172   3.742   0.417   7.480  0.2977 -0.2027  0.5390
   75MOL   H14546173   3.625   0.406   7.351 -1.4979  0.0005  0.6342
   75MOL   H14646174   3.445   0.477   7.472 -1.2793 -0.3857  1.7923
   75MOL   H14746175   3.528   0.477   7.630 -0.1261 -1.5934 -0.6879
   75MOL   H14846176   3.593   0.669   7.407  0.3388  2.0733  1.1169
   75MOL   H14946177   3.664   0.659   7.573  2.1592 -0.5499 -1.8225
   75MOL   H15046178   3.387   0.728   7.474 -1.6605  3.3716  0.5691
   75MOL   H15146179   3.417   0.708   7.641  0.9912  0.5789  0.3705
   75MOL   H15246180   3.543   0.898   7.678 -0.4416  1.9015 -0.2886
   75MOL   H15346181   3.434   0.950   7.544 -1.5591 -1.5019 -0.1925
   75MOL   H15446182   3.596   0.895   7.504  0.4038  0.1173  0.5482
   75MOL   H15546183   3.410   7.448   7.371 -1.7500  0.8560  0.0908
   75MOL   H15646184   3.339   7.602   7.382  2.2030  3.0593  1.5935
   75MOL   C15746185   3.462   7.584   7.211 -0.2318  0.3056 -0.8878
   75MOL   O15846186   3.362   7.531   7.124  0.1921  0.1636  0.3146
   75MOL   C15946187   3.239   7.605   7.124 -0.4213  0.3715 -0.1499
   75MOL   C16046188   3.144   7.531   7.034  0.2332 -0.0434  0.5383
   75MOL   C16146189   3.022   7.606   6.982 -0.2943  0.9845 -0.1748
   75MOL   C16246190   2.963   7.528   6.861  0.3222  0.2552 -0.2760
   75MOL   C16346191   2.838   7.605   6.812 -0.3694  0.2897  0.3532
   75MOL   C16446192   2.813   7.556   6.669  0.0747 -0.0274  0.1708
   75MOL   C16546193   2.708   7.644   6.590  0.5865 -0.0611 -0.0776
   75MOL   C16646194   2.707   7.606   6.444  0.2563 -0.1174 -0.5224
   75MOL   C16746195   3.596   7.526   7.163 -0.0290 -0.6060 -0.0900
   75MOL   H16846196   3.462   7.693   7.201  0.5594  0.4014  0.0790
   75MOL   H16946197   3.255   7.706   7.088 -1.2631  0.2988 -0.7424
   75MOL   H17046198   3.207   7.609   7.228 -2.8251 -0.5449 -0.8286
   75MOL   H17146199   3.105   7.444   7.087 -1.2682  0.8337  0.8668
   75MOL   H17246200   3.194   7.489   6.946  0.0275  1.2120 -0.1914
   75MOL   H17346201   2.944   7.604   7.059 -1.3382  0.9279 -1.2315
   75MOL   H17446202   3.052   7.706   6.952  1.1685  0.1324 -1.5870
   75MOL   H17546203   3.031   7.499   6.781 -0.1750 -1.0366 -0.2398
   75MOL   H17646204   2.936   7.428   6.896 -1.2093  0.3986 -1.0145
   75MOL   H17746205   2.751   7.595   6.877  0.5294  1.6790  1.8234
   75MOL   H17846206   2.856   7.712   6.801  0.4706  0.2274  1.1054
   75MOL   H17946207   2.788   7.450   6.679  3.2639 -1.0061 -1.6055
   75MOL   H18046208   2.907   7.556   6.614  0.0046 -1.6714  0.0227
   75MOL   H18146209   2.605   7.643   6.625  0.1469  0.2060 -1.3332
   75MOL   H18246210   2.733   7.750   6.594 -1.6164  0.7361 -4.8162
   75MOL   H18346211   2.626   7.663   6.398 -1.0789 -0.7664  0.9766
   75MOL   H18446212   2.684   7.499   6.436  0.3515 -0.1735 -0.0360
   75MOL   H18546213   2.805   7.630   6.403 -0.0053 -0.0158 -1.1011
   75MOL   H18646214   3.674   7.560   7.231 -1.1228  1.5401  0.1610
   75MOL   H18746215   3.587   7.418   7.174  1.3976 -1.0058 -2.5440
   75MOL   C18846216   3.642   7.565   7.021  0.2369 -0.3024  0.1425
   75MOL   O18946217   3.750   7.478   6.982 -0.0474 -0.0189  0.2337
   75MOL   C19046218   3.705   7.348   6.944  0.1897 -0.3745  0.0642
   75MOL   C19146219   3.797   7.233   6.975 -0.5414  0.8355 -0.7093
   75MOL   C19246220   3.736   7.092   6.964  0.1461  0.5720 -0.5379
   75MOL   C19346221   3.837   6.982   6.994  0.1884  0.5280 -0.1939
   75MOL   C19446222   3.764   6.846   7.004 -0.1563 -0.3445 -0.0573
   75MOL   C19546223   3.631   6.842   7.075 -0.0077  0.5451 -0.0629
   75MOL   C19646224   3.586   6.704   7.090  0.1712  0.2300  0.3462
   75MOL   C19746225   3.428   6.695   7.101 -0.4455  0.4107 -0.0431
   75MOL   C19846226   3.706   7.704   7.010  0.0748 -0.3510  1.0499
   75MOL   H19946227   3.562   7.563   6.947  0.7960  1.2981 -0.5392
   75MOL   H20046228   3.604   7.322   6.975  0.6946 -0.5548  1.6464
   75MOL   H20146229   3.704   7.343   6.836 -0.9260  1.4764 -0.0407
   75MOL   H20246230   3.833   7.251   7.076  0.7167 -2.4263 -0.5215
   75MOL   H20346231   3.883   7.233   6.908 -1.4173  0.0227 -1.8657
   75MOL   H20446232   3.653   7.092   7.035  0.8757 -0.3286  0.3230
   75MOL   H20546233   3.696   7.074   6.864  2.9485  0.6590 -1.7226
   75MOL   H20646234   3.915   6.990   6.918  0.4569 -1.0704 -0.1025
   75MOL   H20746235   3.884   7.008   7.089 -2.0592 -1.5397  1.5511
   75MOL   H20846236   3.753   6.811   6.901  0.9410  0.2083 -0.3731
   75MOL   H20946237   3.831   6.772   7.047 -1.2489 -1.8406 -0.8866
   75MOL   H21046238   3.560   6.896   7.012 -0.2817  0.6823  0.3572
   75MOL   H21146239   3.640   6.897   7.169  0.1416  2.1583 -0.9969
   75MOL   H21246240   3.617   6.647   7.003  0.1839 -0.1845  0.6209
   75MOL   H21346241   3.630   6.652   7.174 -1.3058  0.7571  1.4780
   75MOL   H21446242   3.386   6.595   7.102  1.4586 -0.4405 -1.4112
   75MOL   H21546243   3.400   6.726   7.000 -2.5856 -1.5276 -0.0853
   75MOL   H21646244   3.376   6.748   7.180 -1.5034 -1.6305  0.6704
   75MOL   H21746245   3.628   0.000   7.039  0.7512  0.2463  1.4320
   75MOL   H21846246   3.788   7.722   7.078  1.2396  0.5392 -0.5543
   75MOL   C21946247   3.741   7.757   6.867 -0.3696  0.3770  0.0811
   75MOL   O22046248   3.883   7.751   6.853 -0.8363  0.2298 -0.1297
   75MOL   C22146249   3.939   7.652   6.768  0.2916 -0.4853  0.5434
   75MOL   C22246250   4.088   7.658   6.754  0.0951  0.3887  0.0577
   75MOL   C22346251   4.147   7.562   6.655  0.2489 -0.8388 -0.0170
   75MOL   C22446252   4.271   7.634   6.600 -0.4311  0.0286  0.2418
   75MOL   C22546253   4.353   7.552   6.504 -0.1342 -0.1256  0.4141
   75MOL   C22646254   4.468   7.627   6.432 -0.0421 -0.0309  0.7204
   75MOL   C22746255   4.426   7.715   6.315 -0.2103  0.0596  0.3407
   75MOL   C22846256   4.395   7.641   6.189 -0.5995  0.0556  0.8566
   75MOL   C22946257   3.682   0.126   6.841  0.4405  0.6702 -0.3396
   75MOL   H23046258   3.693   7.694   6.792  0.5745  0.5810 -0.7012
   75MOL   H23146259   3.890   7.660   6.671 -0.3531  0.1838  0.9189
   75MOL   H23246260   3.923   7.550   6.803 -0.9145  0.1261  1.8144
   75MOL   H23346261   4.125   7.637   6.854  0.0593  1.0854  0.2196
   75MOL   H23446262   4.104   7.763   6.729 -1.2760  0.5233 -0.2869
   75MOL   H23546263   4.165   7.466   6.704 -0.0447 -0.7422  0.2819
   75MOL   H23646264   4.077   7.535   6.575 -0.0557 -1.5468  0.4833
   75MOL   H23746265   4.253   7.728   6.549  3.5409  0.4477 -0.5590
   75MOL   H23846266   4.333   7.666   6.684  0.6158 -1.3116 -0.0029
   75MOL   H23946267   4.404   7.479   6.567  1.1228  1.7003  1.5621
   75MOL   H24046268   4.295   7.498   6.429  0.4976  1.6776 -1.4228
   75MOL   H24146269   4.544   7.557   6.396 -0.2503  0.0435  0.1319
   75MOL   H24246270   4.521   7.691   6.501 -2.8980  3.1027  0.1608
   75MOL   H24346271   4.338   7.762   6.359 -0.5477 -1.8785  1.7764
   75MOL   H24446272   4.490   0.025   6.289  1.0392 -1.3369 -1.2350
   75MOL   H24546273   4.481   7.585   6.154  0.2867 -0.0440  3.1163
   75MOL   H24646274   4.370   7.710   6.108  1.3060  0.4398  0.5776
   75MOL   H24746275   4.310   7.575   6.207 -1.7213  0.7984 -1.4900
   75MOL   H24846276   3.718   0.195   6.918  1.3514  3.4948 -3.2052
   75MOL   H24946277   3.734   0.162   6.753  1.7396 -0.2124  0.0499
   75MOL   C25046278   3.531   0.145   6.826 -0.8375 -0.0941 -0.4294
   75MOL   O25146279   3.502   0.063   6.709 -0.5002  0.0191 -0.1681
   75MOL   C25246280   3.395   7.748   6.723 -0.6114  0.6041 -0.1390
   75MOL   C25346281   3.370   7.675   6.591  0.3214 -0.7805 -0.0506
   75MOL   C25446282   3.247   7.584   6.597 -0.1374 -0.7952 -0.3771
   75MOL   C25546283   3.206   7.504   6.473 -0.1309  0.3090  0.5732
   75MOL   C25646284   3.157   7.592   6.359 -0.5680 -0.2637  0.2431
   75MOL   C25746285   3.108   7.511   6.238 -0.2790  0.7192 -0.2295
   75MOL   C25846286   3.217   7.427   6.172 -0.1228  0.2195 -0.4461
   75MOL   C25946287   3.156   7.349   6.060  0.6026  0.4366  0.5220
   75MOL   C26046288   3.502   0.288   6.785  0.7807 -0.0753 -0.0032
   75MOL   H26146289   3.484   0.119   6.921  0.2627  0.4785  0.2896
   75MOL   H26246290   3.312   0.035   6.758 -0.9416 -0.7023  1.4329
   75MOL   H26346291   3.425   7.666   6.788 -1.0324 -0.2200 -0.9656
   75MOL   H26446292   3.456   7.617   6.560  0.5460 -0.3957 -0.1517
   75MOL   H26546293   3.351   7.750   6.514  1.6530 -0.0214  0.3514
   75MOL   H26646294   3.261   7.522   6.686  2.2015  0.8459  0.4487
   75MOL   H26746295   3.166   7.654   6.616 -1.5540 -1.7769 -2.6987
   75MOL   H26846296   3.292   7.441   6.452  0.1156  0.6254  0.6364
   75MOL   H26946297   3.121   7.443   6.503 -1.0505  0.3358 -1.8072
   75MOL   H27046298   3.067   7.642   6.396 -0.7241  0.3647 -0.9750
   75MOL   H27146299   3.234   7.666   6.336 -1.1154  0.7849  1.7071
   75MOL   H27246300   3.061   7.582   6.170 -1.2101  2.9608  2.6319
   75MOL   H27346301   3.018   7.458   6.269 -2.0965  2.1447 -2.8458
   75MOL   H27446302   3.295   7.485   6.123 -0.6472  1.7883  0.5633
   75MOL   H27546303   3.256   7.357   6.246  1.2736  2.4326  0.9515
   75MOL   H27646304   3.067   7.296   6.095 -0.8316  1.4793 -1.4911
   75MOL   H27746305   3.223   7.272   6.020 -0.8288 -0.4023 -0.3098
   75MOL   H27846306   3.128   7.412   5.976  0.3502  0.2668  0.4775
   75MOL   H27946307   3.556   0.313   6.694  0.4526 -0.5140 -0.3195
   75MOL   H28046308   3.396   0.303   6.763  1.0094  0.7027 -0.6028
   75MOL   C28146309   3.516   0.388   6.903 -0.5409 -0.7808 -0.0448
   75MOL   O28246310   3.412   0.362   6.992  0.5831  0.5128  0.3120
   75MOL   C28346311   3.400   0.398   7.126  0.0798  0.4037  0.2802
   75MOL   C28446312   3.259   0.354   7.182  0.6902  0.7240  0.0212
   75MOL   C28546313   3.228   0.200   7.161  0.1150 -0.4435 -0.9046
   75MOL   C28646314   3.102   0.149   7.231  0.6450 -0.8073 -0.8502
   75MOL   C28746315   2.975   0.205   7.163 -0.6508 -0.0287  0.6641
   75MOL   C28846316   2.851   0.150   7.231 -1.4634  0.0087  0.3596
   75MOL   C28946317   2.753   0.266   7.258  0.0389  0.7245 -0.7109
   75MOL   C29046318   2.610   0.216   7.286 -0.3068 -0.2520 -0.3030
   75MOL   C29146319   3.484   0.534   6.847  0.0810  0.1078  0.5315
   75MOL   H29246320   3.613   0.394   6.953  0.1423  0.2317 -1.4344
   75MOL   H29346321   3.419   0.503   7.146  1.5867 -0.5289  4.0846
   75MOL   H29446322   3.477   0.343   7.180 -0.7672  0.0750  1.1565
   75MOL   H29546323   3.187   0.420   7.133  0.4142  0.5627  0.2066
   75MOL   H29646324   3.253   0.383   7.287 -0.2448 -1.2896  0.5726
   75MOL   H29746325   3.212   0.181   7.055 -0.3772  1.2157 -1.1308
   75MOL   H29846326   3.306   0.128   7.187  0.0044 -0.2042  0.0908
   75MOL   H29946327   3.088   0.041   7.235 -0.0275 -0.6198  2.9702
   75MOL   H30046328   3.096   0.180   7.335 -0.2003 -1.3751 -0.7190
   75MOL   H30146329   2.980   0.314   7.169  2.2514 -0.0668 -0.2642
   75MOL   H30246330   2.968   0.174   7.059 -0.0045 -0.9308  0.8785
   75MOL   H30346331   2.874   0.095   7.322 -1.5625 -0.1885  0.2660
   75MOL   H30446332   2.807   0.073   7.168 -0.1935  0.4634 -1.1353
   75MOL   H30546333   2.784   0.324   7.345 -1.3359 -0.4380  0.5702
   75MOL   H30646334   2.737   0.334   7.173 -4.3171 -1.7921 -2.0474
   75MOL   H30746335   2.564   0.147   7.216 -2.0094  0.7378 -0.1906
   75MOL   H30846336   2.544   0.303   7.280 -1.4356 -1.1339 -0.8056
   75MOL   H30946337   2.605   0.177   7.388  0.3611 -0.6613 -0.4207
   75MOL   H31046338   3.400   0.530   6.778 -0.0848  0.1655  0.7302
   75MOL   H31146339   3.449   0.598   6.927  3.6259  2.4364  0.3521
   75MOL   C31246340   3.594   0.608   6.774 -0.5407  0.2410 -0.1160
   75MOL   O31346341   3.711   0.614   6.864  0.2213  0.5523 -0.2209
   75MOL   C31446342   3.816   0.530   6.817 -0.0646 -0.0818  0.1504
   75MOL   C31546343   3.936   0.548   6.913  0.0690 -0.2439  0.3220
   75MOL   C31646344   4.047   0.440   6.899 -0.3387 -0.4019  0.8837
   75MOL   C31746345   4.137   0.452   6.772 -0.2390 -0.1357 -0.7509
   75MOL   C31846346   4.262   0.366   6.774  0.0319  0.2188 -0.6977
   75MOL   C31946347   4.340   0.387   6.649  0.2597 -0.0611  0.0902
   75MOL   C32046348   4.485   0.341   6.654  0.4727 -0.4847 -0.3101
   75MOL   C32146349   4.579   0.411   6.764  0.7737  0.1071 -0.1700
   75MOL   C32246350   3.559   0.753   6.737  0.3574  0.3547 -0.2872
   75MOL   H32346351   3.621   0.552   6.684 -0.4649 -1.1801  0.7690
   75MOL   H32446352   3.854   0.555   6.718 -0.8934 -0.0247 -0.1543
   75MOL   H32546353   3.786   0.426   6.830  1.2624 -0.6246 -1.0875
   75MOL   H32646354   3.901   0.539   7.016  0.5903 -1.5871  0.3970
   75MOL   H32746355   3.969   0.650   6.895  0.3431 -0.5688 -1.0166
   75MOL   H32846356   4.105   0.452   6.990 -0.7987 -0.2354  1.1604
   75MOL   H32946357   4.018   0.336   6.908 -1.3668 -0.1985  0.1148
   75MOL   H33046358   4.074   0.430   6.686  0.0608  0.1311 -1.0407
   75MOL   H33146359   4.158   0.558   6.764 -0.8900  0.1088  0.5613
   75MOL   H33246360   4.320   0.382   6.865 -1.0490  1.5569 -0.2168
   75MOL   H33346361   4.232   0.262   6.786 -4.2623  1.5851  1.6417
   75MOL   H33446362   4.357   0.492   6.629 -1.6923  0.0965 -0.8922
   75MOL   H33546363   4.282   0.343   6.568 -0.5654  2.9605 -1.0192
   75MOL   H33646364   4.485   0.234   6.673 -0.4462 -0.4825 -0.2869
   75MOL   H33746365   4.522   0.342   6.552  1.7378 -0.1406  0.1414
   75MOL   H33846366   4.558   0.517   6.779  1.8790  0.0850  1.6534
   75MOL   H33946367   4.683   0.402   6.733  0.4432 -1.2824 -0.9459
   75MOL   H34046368   4.578   0.368   6.864 -1.7094 -2.5247 -1.2342
   75MOL   H34146369   3.544   0.822   6.820  0.1586  1.1293 -0.9642
   75MOL   H34246370   3.652   0.789   6.693  0.4619  1.1464  0.5644
   75MOL   C34346371   3.469   0.759   6.610 -0.7865 -0.0278  0.2388
   75MOL   O34446372   3.530   0.674   6.508 -0.9044 -0.2219 -0.0159
   75MOL   C34546373   3.443   0.579   6.446  0.1009 -0.0727 -0.2696
   75MOL   C34646374   3.529   0.509   6.342 -0.0037  0.5262  0.2396
   75MOL   C34746375   3.649   0.448   6.398 -0.0378  0.1063 -0.5286
   75MOL   C34846376   3.719   0.376   6.280 -0.7172  0.0940  0.0802
   75MOL   C34946377   3.847   0.307   6.308 -0.8594  0.3091 -1.2568
   75MOL   C35046378   3.870   0.236   6.443  0.4224 -0.2372  0.9017
   75MOL   C35146379   4.007   0.163   6.465  0.4733  0.2930  0.5170
   75MOL   C35246380   4.053   0.079   6.336 -0.0726  0.1096  0.6187
   75MOL   C35346381   3.452   0.894   6.545 -0.2165 -0.5307 -0.0648
   75MOL   H35446382   3.365   0.738   6.634 -0.3866 -1.7034  0.5555
   75MOL   H35546383   3.359   0.630   6.400  0.6426 -1.0298 -2.3607
   75MOL   H35646384   3.405   0.506   6.518  0.2683  0.4336  0.3433
   75MOL   H35746385   3.563   0.580   6.267  1.4578 -0.4618 -0.0344
   75MOL   H35846386   3.469   0.431   6.295  0.4864  0.5785 -0.4880
   75MOL   H35946387   3.722   0.516   6.442 -0.1592  0.5028 -0.9476
   75MOL   H36046388   3.621   0.371   6.470  1.0017  1.1244  1.0179
   75MOL   H36146389   3.657   0.304   6.227 -0.8862  0.2066  0.1231
   75MOL   H36246390   3.728   0.454   6.204  0.1134  2.0669  2.1451
   75MOL   H36346391   3.857   0.246   6.218  1.9566  0.9878 -1.4510
   75MOL   H36446392   3.934   0.369   6.288  0.7733 -2.4435 -2.8986
   75MOL   H36546393   3.793   0.160   6.455 -0.2244 -0.1925 -2.4430
   75MOL   H36646394   3.853   0.307   6.524  0.0142 -0.7686  1.2884
   75MOL   H36746395   4.082   0.236   6.495  0.2255  0.0118  1.8366
   75MOL   H36846396   3.999   0.089   6.545 -1.7774  0.2008  0.2372
   75MOL   H36946397   4.140   0.019   6.361  0.7741  0.2218 -1.9055
   75MOL   H37046398   4.095   0.150   6.265  0.9458  0.1304  1.2301
   75MOL   H37146399   3.973   0.024   6.286  0.2933 -0.5994  0.8091
   75MOL   H37246400   3.553   0.925   6.521  0.3105 -1.0346  1.4518
   75MOL   H37346401   3.405   0.888   6.447 -0.1089  0.6740 -0.1868
   75MOL   C37446402   3.379   0.992   6.638 -0.1090 -0.4311  0.3465
   75MOL   O37546403   3.247   0.954   6.652 -0.4042 -0.6243  0.6570
   75MOL   C37646404   3.210   0.934   6.784  0.3622  0.2697 -0.1345
   75MOL   C37746405   3.060   0.915   6.797  0.6729 -0.1897 -0.1005
   75MOL   C37846406   3.005   0.798   6.710  0.3254  0.3068 -0.1019
   75MOL   C37946407   3.060   0.655   6.751  0.3835  0.7717  0.4491
   75MOL   C38046408   3.027   0.550   6.650 -0.5983  0.6961 -0.7442
   75MOL   C38146409   3.081   0.411   6.687  0.1196 -0.5573  0.7707
   75MOL   C38246410   3.061   0.319   6.565  0.4170  0.3121 -0.7703
   75MOL   C38346411   3.068   0.165   6.603  0.1917 -0.6938 -0.3377
   75MOL   C38446412   3.373   1.129   6.564  0.1085  0.0496 -0.0972
   75MOL   H38546413   3.442   1.001   6.727  0.2096 -0.0956  0.0836
   75MOL   H38646414   3.245   1.016   6.847  0.3398 -0.7236  1.2025
   75MOL   H38746415   3.261   0.844   6.818 -1.0850  0.2738  2.1249
   75MOL   H38846416   3.005   1.004   6.766 -1.6778 -2.2996 -2.0696
   75MOL   H38946417   3.039   0.892   6.902  1.8700 -0.2025  0.1510
   75MOL   H39046418   2.898   0.801   6.731  0.4561  0.6338  0.5277
   75MOL   H39146419   3.028   0.813   6.605 -0.0130  0.8524 -0.0987
   75MOL   H39246420   3.168   0.658   6.765  0.4710 -1.0656  0.3584
   75MOL   H39346421   3.026   0.621   6.849 -1.0063 -1.8148 -0.8649
   75MOL   H39446422   2.920   0.548   6.632 -0.6972 -1.3210 -0.0673
   75MOL   H39546423   3.075   0.572   6.555 -1.5015 -0.4776 -1.4841
   75MOL   H39646424   3.017   0.376   6.768  1.1545 -3.1198  0.5319
   75MOL   H39746425   3.185   0.423   6.715  0.2050 -0.5277  0.4475
   75MOL   H39846426   2.965   0.334   6.518 -0.0987  0.6314  0.3617
   75MOL   H39946427   3.145   0.342   6.499  3.0101 -2.3040  1.4187
   75MOL   H40046428   3.167   0.158   6.649  0.4701 -0.6676 -0.9245
   75MOL   H40146429   3.070   0.112   6.507 -1.3062 -1.7532  0.2016
   75MOL   H40246430   2.993   0.118   6.666 -0.3697  0.1940 -0.3414
   75MOL   H40346431   3.473   1.160   6.534 -0.1036 -0.2952 -1.1932
   75MOL   H40446432   3.311   1.136   6.475 -0.3032  0.1922  0.1979
   75MOL   C40546433   3.310   1.247   6.647 -0.6303  0.4699  0.0817
   75MOL   O40646434   3.317   1.357   6.556  0.0276 -0.3035 -0.4301
   75MOL   C40746435   3.222   1.461   6.581 -0.0117 -0.4251  0.2995
   75MOL   C40846436   3.199   1.547   6.451  0.7568  0.2586  0.7010
   75MOL   C40946437   3.147   1.469   6.324 -0.1456  0.2476 -0.2940
   75MOL   C41046438   3.155   1.552   6.194 -0.6143  0.3592  0.2905
   75MOL   C41146439   3.084   1.468   6.082 -0.1956 -0.3559 -0.2026
   75MOL   C41246440   3.112   1.521   5.942 -0.3727  0.0349  0.0491
   75MOL   C41346441   3.044   1.437   5.835 -0.6209  0.0201  0.1496
   75MOL   C41446442   3.045   1.515   5.700 -0.1077 -0.1318  0.2918
   75MOL   C41546443   3.378   1.278   6.782 -0.0914  0.0639  0.3737
   75MOL   H41646444   3.205   1.221   6.660 -0.7709 -1.3021 -3.9443
   75MOL   H41746445   3.254   1.518   6.669 -0.3603 -0.6735  0.5843
   75MOL   H41846446   3.126   1.425   6.617 -0.3853  0.0883 -0.1799
   75MOL   H41946447   3.293   1.594   6.422  1.6884 -1.9310  0.0811
   75MOL   H42046448   3.134   1.631   6.476  1.5679  0.8906  0.7040
   75MOL   H42146449   3.212   1.385   6.299 -0.3237 -0.1398  0.5395
   75MOL   H42246450   3.046   1.433   6.343 -0.2302  0.8283  0.3491
   75MOL   H42346451   3.110   1.652   6.197  0.5177  0.9937 -2.2517
   75MOL   H42446452   3.259   1.575   6.170  0.0070 -0.0759  2.4555
   75MOL   H42546453   3.117   1.364   6.082  1.8931  0.2886 -0.2634
   75MOL   H42646454   2.976   1.471   6.099 -0.1879 -0.5628 -0.1167
   75MOL   H42746455   3.219   1.509   5.925 -0.2149 -0.2771  1.1996
   75MOL   H42846456   3.088   1.627   5.933  0.2264  0.1639 -0.0379
   75MOL   H42946457   3.095   1.341   5.823  0.2686  0.4308  0.5714
   75MOL   H43046458   2.941   1.416   5.862 -0.8236  0.6299 -0.1517
   75MOL   H43146459   3.002   1.615   5.706 -2.4479 -1.1667  1.5146
   75MOL   H43246460   2.995   1.454   5.625 -0.0046 -0.2050  0.2833
   75MOL   H43346461   3.142   1.533   5.653 -1.0694  3.5174 -0.4668
   75MOL   H43446462   3.322   1.360   6.826 -0.8758 -1.2767  1.9035
   75MOL   H43546463   3.359   1.193   6.848  0.5422  0.1185  0.6314
   75MOL   C43646464   3.529   1.316   6.765  0.0516  0.2069 -0.0205
   75MOL   O43746465   3.607   1.263   6.870  0.3452 -1.0692  0.1660
   75MOL   C43846466   3.651   1.131   6.866  0.3359 -0.1233  0.0932
   75MOL   C43946467   3.754   1.099   6.979  0.7556  0.2196  0.1649
   75MOL   C44046468   3.787   0.948   6.993  0.3826  0.2420 -0.0999
   75MOL   C44146469   3.896   0.906   7.093 -0.3138  0.0898  0.6944
   75MOL   C44246470   3.854   0.812   7.205  0.0774 -0.2576  0.1746
   75MOL   C44346471   3.976   0.798   7.291 -0.1983 -0.5813 -0.3039
   75MOL   C44446472   3.998   0.671   7.357 -0.1005  0.3244 -0.8088
   75MOL   C44546473   4.138   0.666   7.429 -0.2631  0.8227 -0.5919
   75MOL   C44646474   3.545   1.463   6.742 -0.1128  0.3530  0.6277
   75MOL   H44746475   3.579   1.275   6.677  1.4494 -1.3768  1.4786
   75MOL   H44846476   3.565   1.066   6.884 -0.4583  0.7306 -0.5878
   75MOL   H44946477   3.693   1.117   6.767 -0.9689  1.6608 -0.7414
   75MOL   H45046478   3.723   1.144   7.073  0.5498  2.4624 -0.9413
   75MOL   H45146479   3.852   1.136   6.947  0.2334  0.9383 -0.6526
   75MOL   H45246480   3.699   0.891   7.022  0.3175  1.5363  2.3653
   75MOL   H45346481   3.822   0.908   6.898  0.6666  1.0434 -0.3352
   75MOL   H45446482   3.977   0.849   7.045 -0.9868 -0.1265 -0.1990
   75MOL   H45546483   3.941   1.002   7.119  0.2969 -0.9759  3.8348
   75MOL   H45646484   3.774   0.852   7.267  1.4309  0.4199  1.5107
   75MOL   H45746485   3.821   0.717   7.162  0.7145 -0.3833 -0.0396
   75MOL   H45846486   3.968   0.880   7.363  0.7360  0.5300 -1.4434
   75MOL   H45946487   4.068   0.816   7.236 -0.6431 -0.2980 -0.9553
   75MOL   H46046488   3.917   0.640   7.424 -1.0637  3.5421 -0.3663
   75MOL   H46146489   3.996   0.603   7.272  1.1441 -0.1081 -0.4916
   75MOL   H46246490   4.151   0.737   7.511 -1.0062  1.1008 -0.7084
   75MOL   H46346491   4.214   0.658   7.351 -1.3241  0.1627 -1.5711
   75MOL   H46446492   4.169   0.572   7.474 -4.1570  0.2422  1.1207
   75MOL   H46546493   3.491   1.484   6.649 -1.4765 -0.4864  1.2124
   75MOL   H46646494   3.477   1.505   6.816 -1.7311 -0.4064 -0.3867
   75MOL   C46746495   3.684   1.529   6.750 -0.3129 -0.1323 -0.2782
   75MOL   O46846496   3.661   1.670   6.739 -0.2665  0.4620 -0.4510
   75MOL   C46946497   3.647   1.739   6.870 -0.3004  0.1416  0.3210
   75MOL   C47046498   3.587   1.878   6.848  0.2723 -0.0004  0.8899
   75MOL   C47146499   3.572   1.950   6.988 -0.6168 -0.8439 -0.0137
   75MOL   C47246500   3.514   2.090   6.992  0.4629  0.1175 -0.5237
   75MOL   C47346501   3.597   2.180   6.908  0.3319 -0.0214  0.3349
   75MOL   C47446502   3.733   2.210   6.953 -0.5330 -0.1648 -0.2936
   75MOL   C47546503   3.807   2.307   6.854 -0.0681  0.3501  0.1567
   75MOL   C47646504   3.952   2.334   6.890  0.2941  0.6342  0.4337
   75MOL   C47746505   3.772   1.485   6.633  0.4598 -0.8947  0.6497
   75MOL   H47846506   3.741   1.506   6.840  0.7750 -1.0327 -1.1792
   75MOL   H47946507   3.744   1.737   6.921  0.9405 -1.4455 -1.9968
   75MOL   H48046508   3.576   1.675   6.923 -0.2516 -1.5779 -1.6427
   75MOL   H48146509   3.487   1.865   6.806 -0.7230  1.6495  2.6428
   75MOL   H48246510   3.643   1.934   6.773 -0.2856  0.4801  0.8287
   75MOL   H48346511   3.503   1.891   7.047  0.2565 -0.3158  1.5585
   75MOL   H48446512   3.667   1.927   7.038 -0.3796 -0.5987 -0.3466
   75MOL   H48546513   3.409   2.094   6.963  0.6583 -2.5169 -1.6817
   75MOL   H48646514   3.516   2.118   7.097 -0.0012  1.5845 -0.8901
   75MOL   H48746515   3.602   2.155   6.802  0.3741 -0.1670  0.3720
   75MOL   H48846516   3.557   2.281   6.893  0.6052  0.0863  0.3394
   75MOL   H48946517   3.789   2.118   6.972  1.3088  1.1303  0.7558
   75MOL   H49046518   3.713   2.257   7.050 -1.2351  2.1099 -1.5092
   75MOL   H49146519   3.825   2.259   6.758 -0.2327  1.8090 -0.6143
   75MOL   H49246520   3.757   2.402   6.837  1.4975  0.9319 -1.2663
   75MOL   H49346521   4.012   2.346   6.801 -1.5808  0.5965 -0.8729
   75MOL   H49446522   4.007   2.258   6.945 -0.1319  0.4352  0.5951
   75MOL   H49546523   3.955   2.425   6.949 -2.6433 -0.4181  2.3429
   75MOL   H49646524   3.741   1.388   6.593 -2.3642  0.1176  0.2974
   75MOL   H49746525   3.738   1.539   6.545  1.8029 -2.6950 -1.0295
   75MOL   C49846526   3.923   1.477   6.666 -0.4283  0.4072  0.1826
   75MOL   O49946527   4.000   1.482   6.550  0.0152 -0.7028  0.7347
   75MOL   C50046528   4.020   1.608   6.484 -0.6657  0.1998  0.2826
   75MOL   C50146529   4.010   1.578   6.335  0.7679 -0.6382  0.7735
   75MOL   C50246530   4.055   1.696   6.249 -0.4779 -0.1520 -0.2294
   75MOL   C50346531   4.204   1.726   6.253 -0.3672 -0.2094 -0.2026
   75MOL   C50446532   4.246   1.827   6.151 -1.3187 -0.4471 -0.6633
   75MOL   C50546533   4.272   1.771   6.014  0.2918 -0.1174 -0.5278
   75MOL   C50646534   4.353   1.866   5.921  0.2178  0.1449 -0.1745
   75MOL   C50746535   4.370   1.804   5.786  0.6005  0.4868 -0.2986
   75MOL   C50846536   3.951   1.337   6.715 -0.0589  0.0215  0.7223
   75MOL   H50946537   3.958   1.544   6.745 -1.7184 -1.2081  2.1866
   75MOL   H51046538   4.111   1.661   6.513 -1.4791  0.4588  2.4604
   75MOL   H51146539   3.945   1.682   6.512 -0.0657  1.0073 -0.2113
   75MOL   H51246540   3.908   1.543   6.317  0.1411  1.2586  0.6008
   75MOL   H51346541   4.068   1.486   6.332  2.7362  0.6248 -2.0522
   75MOL   H51446542   4.025   1.666   6.148  1.1033 -0.0561 -0.7406
   75MOL   H51546543   4.008   1.793   6.268 -0.0077  0.0012  0.1487
   75MOL   H51646544   4.216   1.773   6.351 -2.4756  0.2186 -0.1221
   75MOL   H51746545   4.266   1.636   6.243  1.0889  0.8360 -0.7734
   75MOL   H51846546   4.177   1.912   6.148 -3.2723 -1.7080  4.0179
   75MOL   H51946547   4.343   1.866   6.181 -1.2211 -1.4054  0.2806
   75MOL   H52046548   4.172   1.760   5.971 -0.8505 -0.0748  2.0275
   75MOL   H52146549   4.321   1.674   6.016 -1.3615 -0.9275  1.6022
   75MOL   H52246550   4.306   1.964   5.916  0.0403  0.1009  0.5360
   75MOL   H52346551   4.450   1.887   5.966  0.2572  0.9784 -0.6488
   75MOL   H52446552   4.272   1.790   5.741  0.9369  0.2246 -0.9701
   75MOL   H52546553   4.437   1.718   5.797  0.6534  0.8071  2.1440
   75MOL   H52646554   4.429   1.867   5.720 -0.6224  2.9901  0.9519
   75MOL   H52746555   3.884   1.315   6.799  0.4310 -1.3004  0.7818
   75MOL   H52846556   3.926   1.270   6.632 -0.9473  0.0579  0.9562
   75MOL   C52946557   4.102   1.334   6.758  0.4118  0.2940  0.2441
   75MOL   O53046558   4.157   1.206   6.746  0.4529 -0.3426 -0.4599
   75MOL   C53146559   4.220   1.181   6.628  0.1055 -0.3707  0.4701
   75MOL   C53246560   4.298   1.048   6.647  0.6435  0.2183 -0.3651
   75MOL   C53346561   4.383   1.009   6.521  0.0033  0.6565  0.3661
   75MOL   C53446562   4.450   0.876   6.536 -0.2105 -0.1391 -0.3166
   75MOL   C53546563   4.550   0.846   6.425  0.8960 -0.0417  0.1546
   75MOL   C53646564   4.622   0.708   6.449  0.3665 -0.3104  0.7120
   75MOL   C53746565   4.704   0.656   6.335 -0.7521 -0.6738  0.0405
   75MOL   C53846566   4.754   0.513   6.361 -0.0903  0.3030 -0.2301
   75MOL   C53946567   4.126   1.347   6.906 -0.4927 -0.4712 -0.8818
   75MOL   H54046568   4.168   1.401   6.703  0.5905 -0.4630 -0.4721
   75MOL   H54146569   4.145   1.171   6.550 -0.7873  1.0864  1.1185
   75MOL   H54246570   4.285   1.262   6.598 -0.7709 -0.2011 -1.0094
   75MOL   H54346571   4.228   0.969   6.672 -0.1093  1.3561  1.2848
   75MOL   H54446572   4.343   1.048   6.747 -0.7842 -1.2269  0.2897
   75MOL   H54546573   4.322   1.001   6.431  2.2208 -0.0683 -1.1266
   75MOL   H54646574   4.455   1.086   6.495 -0.6734  0.9144 -0.7677
   75MOL   H54746575   4.504   0.873   6.630 -2.1465  1.2725  0.8654
   75MOL   H54846576   4.369   0.803   6.547  1.1098 -1.8215 -1.4198
   75MOL   H54946577   4.509   0.839   6.325  0.2200  1.3318  0.3212
   75MOL   H55046578   4.622   0.928   6.413  1.7982 -0.9054 -0.3638
   75MOL   H55146579   4.548   0.633   6.473 -1.7978  1.3235 -0.6496
   75MOL   H55246580   4.679   0.706   6.542 -0.0512  0.6556  0.9938
   75MOL   H55346581   4.647   0.672   6.243 -2.8789  1.7261  1.6907
   75MOL   H55446582   4.797   0.709   6.314 -0.6155 -0.6202  0.7784
   75MOL   H55546583   4.826   0.499   6.280  1.4347 -0.1689  1.1922
   75MOL   H55646584   4.681   0.432   6.361  2.4531 -2.0817  2.2662
   75MOL   H55746585   4.819   0.496   6.447  0.8702  1.5071 -0.7010
   75MOL   H55846586   4.057   1.422   6.944  0.3912 -0.8911  1.6974
   75MOL   H55946587   4.097   1.255   6.957 -1.7039 -0.4546 -1.5264
   75MOL   C56046588   4.275   1.375   6.942  0.5538 -0.0447  0.0606
   75MOL   O56146589   4.268   1.357   7.083 -0.2057 -0.2102  0.5334
   75MOL   C56246590   4.308   1.231   7.128 -0.0995 -0.6082 -0.4873
   75MOL   C56346591   4.454   1.229   7.165 -0.2087  0.9940  0.9395
   75MOL   C56446592   4.486   1.099   7.233  0.5853 -0.5765 -0.3509
   75MOL   C56546593   4.422   1.072   7.367  0.1653  0.4421 -0.4620
   75MOL   C56646594   4.512   0.975   7.454  0.3340 -0.0363  0.0374
   75MOL   C56746595   4.462   0.951   7.598 -0.4354 -0.0029 -0.6265
   75MOL   C56846596   4.567   0.885   7.692 -0.5617  0.1255 -0.3148
   75MOL   C56946597   4.584   0.728   7.666  0.3848 -0.2990  0.5413
   75MOL   C57046598   4.310   1.526   6.911  0.3922  0.5172 -0.1005
   75MOL   H57146599   4.347   1.312   6.892 -0.6745 -0.7204 -0.8745
   75MOL   H57246600   4.304   1.160   7.046  0.7321 -2.1726  0.7890
   75MOL   H57346601   4.243   1.195   7.207 -0.1291 -1.5910 -0.9549
   75MOL   H57446602   4.463   1.305   7.243  2.6271  2.2383 -0.5025
   75MOL   H57546603   4.526   1.253   7.087  1.4022 -1.2175  1.6803
   75MOL   H57646604   4.464   1.017   7.166  0.9546 -0.6083 -0.4315
   75MOL   H57746605   4.595   1.099   7.241  0.5945 -1.8457 -0.4705
   75MOL   H57846606   4.388   1.157   7.426  0.8279  0.1096  0.4075
   75MOL   H57946607   4.326   1.024   7.346 -1.1429  2.8385 -0.1314
   75MOL   H58046608   4.529   0.880   7.403  1.2029  0.0838  0.1033
   75MOL   H58146609   4.606   1.027   7.469  0.2734 -0.1148  0.7037
   75MOL   H58246610   4.368   0.897   7.606 -1.0917  1.0304 -1.0972
   75MOL   H58346611   4.434   1.048   7.641  1.1609 -0.5693  1.7475
   75MOL   H58446612   4.661   0.935   7.669  1.4972 -1.8461  3.3640
   75MOL   H58546613   4.555   0.898   0.025  1.1240 -0.2088 -0.0746
   75MOL   H58646614   4.606   0.702   7.563 -0.7245 -0.0808  0.2404
   75MOL   H58746615   4.487   0.687   7.692  0.0221  1.0231  1.3485
   75MOL   H58846616   4.670   0.690   7.721  1.6435 -0.0081 -1.1729
   75MOL   H58946617   4.222   1.589   6.895 -0.1761 -0.4884 -1.0107
   75MOL   H59046618   4.364   1.573   6.993 -2.2204  0.4912  1.7070
   75MOL   C59146619   4.402   1.544   6.786 -0.2148  0.1644 -0.5872
   75MOL   O59246620   4.535   1.502   6.828 -0.6959 -0.3273  0.4629
   75MOL   C59346621   4.586   1.382   6.769  0.4874 -0.0807  0.3138
   75MOL   C59446622   4.719   1.337   6.831  0.2884 -0.5469 -0.5397
   75MOL   C59546623   4.767   1.201   6.791 -0.1098 -0.1155  0.4401
   75MOL   C59646624   4.692   1.083   6.843  0.0651  0.3081  0.3118
   75MOL   C59746625   4.766   0.951   6.810  0.2684 -0.3035  0.0567
   75MOL   C59846626   4.886   0.904   6.901  0.1072  0.1906  0.1007
   75MOL   C59946627   4.933   0.774   6.840 -0.1347 -0.0853 -0.2680
   75MOL   C60046628   4.845   0.649   6.861 -0.4399  0.3555 -0.0664
   75MOL   C60146629   4.396   1.681   6.725 -0.1828 -0.1352  0.1880
   75MOL   H60246630   4.367   1.473   6.711 -1.5251 -0.9041  0.9911
   75MOL   H60346631   4.583   1.388   6.660  0.7952  0.1284  0.3161
   75MOL   H60446632   4.519   1.298   6.787  0.3499 -0.1581 -0.5361
   75MOL   H60546633   4.716   1.344   6.940 -0.9376 -0.5839 -0.5677
   75MOL   H60646634   4.794   1.413   6.808  1.0615 -1.3223 -0.5831
   75MOL   H60746635   4.772   1.201   6.682 -0.4453  1.5651  0.4126
   75MOL   H60846636   4.865   1.176   6.831 -0.1560 -0.0267  0.6067
   75MOL   H60946637   4.678   1.096   6.951  1.4955  1.8150  0.3298
   75MOL   H61046638   4.592   1.077   6.801  0.1848  2.2650 -0.2925
   75MOL   H61146639   4.690   0.873   6.808 -1.0350  0.9062  1.0356
   75MOL   H61246640   4.791   0.952   6.704 -3.7302 -1.2848 -0.9954
   75MOL   H61346641   4.855   0.889   7.005  0.2142 -2.1239 -0.1789
   75MOL   H61446642   4.968   0.976   6.900  0.8249 -0.6227 -1.9095
   75MOL   H61546643   4.953   0.788   6.734 -0.0694  0.4154 -0.1920
   75MOL   H61646644   5.034   0.758   6.879 -0.5444  2.0613  1.7342
   75MOL   H61746645   4.891   0.568   6.804  0.2946 -0.3026  1.4334
   75MOL   H61846646   4.740   0.659   6.833 -0.1979 -0.7760 -1.4544
   75MOL   H61946647   4.839   0.612   6.963 -2.2811 -0.5085 -0.4550
   75MOL   H62046648   4.300   1.690   6.674 -0.9963 -2.4989  1.2398
   75MOL   H62146649   4.396   1.761   6.800 -0.0122  1.1019 -1.1211
   75MOL   H62246650   4.477   1.698   6.655 -0.0984 -1.7240 -0.1140
   76MOL     C146651   5.595   3.466   6.239 -0.3160  0.6692  0.5024
   76MOL     O246652   5.494   3.441   6.334 -0.2171  0.3707 -0.0493
   76MOL     C346653   5.397   3.339   6.291  0.0899  0.0907 -0.5249
   76MOL     C446654   5.275   3.358   6.380 -0.0609 -0.2575  0.3561
   76MOL     C546655   5.149   3.278   6.334 -0.0543 -0.1699 -0.3351
   76MOL     C646656   5.040   3.267   6.438  0.1786 -0.8886 -0.3438
   76MOL     C746657   4.893   3.283   6.385 -0.7465  0.2217 -0.1833
   76MOL     C846658   4.834   3.141   6.348 -0.1114  0.1893  0.4136
   76MOL     C946659   4.678   3.127   6.346 -0.7941  0.3029  0.2328
   76MOL    C1046660   4.641   2.991   6.284  0.7688  0.2289  0.1805
   76MOL    C1146661   5.707   3.522   6.322  0.1944  0.3607 -0.7836
   76MOL    H1246662   5.627   3.379   6.182 -3.8129 -0.9165  0.8605
   76MOL    H1346663   5.435   3.237   6.287  0.2236  0.1314 -0.2888
   76MOL    H1446664   5.376   3.368   6.188 -0.9013  0.6658 -0.1775
   76MOL    H1546665   5.247   3.463   6.390 -1.0189 -0.5436  0.7920
   76MOL    H1646666   5.302   3.329   6.482  0.2633  0.8143  0.5715
   76MOL    H1746667   5.121   3.330   6.242 -0.9931  0.4885  0.3242
   76MOL    H1846668   5.181   3.179   6.300  1.2090 -0.2630  1.0528
   76MOL    H1946669   5.053   3.180   6.503 -0.3006 -1.4258 -0.9628
   76MOL    H2046670   5.059   3.349   6.507  0.5029  0.4996 -2.0444
   76MOL    H2146671   4.821   3.322   6.456  0.1889  1.0245  0.3399
   76MOL    H2246672   4.876   3.350   6.301  0.6642  0.6307 -0.1614
   76MOL    H2346673   4.873   3.075   6.426  0.7567  0.8679  0.5632
   76MOL    H2446674   4.870   3.119   6.248  1.1398  1.2732  0.6123
   76MOL    H2546675   4.634   3.151   6.442 -1.7408  0.4187 -0.2193
   76MOL    H2646676   4.642   3.199   6.273 -0.9415  0.9203  0.9143
   76MOL    H2746677   4.695   2.969   6.191 -0.3630  1.9115 -0.8835
   76MOL    H2846678   4.535   2.980   6.260  1.1781  2.0122 -2.7337
   76MOL    H2946679   4.674   2.916   6.356  1.8124 -0.2447 -0.7697
   76MOL    H3046680   5.676   3.608   6.381 -0.7497 -0.2346 -0.4055
   76MOL    H3146681   5.743   3.448   6.394 -1.4718 -1.4498 -1.7614
   76MOL    H3246682   5.556   3.534   6.163 -1.5159  0.2967  0.7677
   76MOL    C3346683   5.836   3.562   6.238  0.1695 -0.5455 -0.5532
   76MOL    O3446684   5.940   3.599   6.335  0.4428  0.0137  0.3238
   76MOL    C3546685   6.024   3.492   6.379  0.8744  0.9114  0.2934
   76MOL    C3646686   6.124   3.554   6.476 -0.5451 -0.3036  0.0577
   76MOL    C3746687   6.052   3.599   6.605  0.6478 -0.2885  0.4479
   76MOL    C3846688   6.118   3.689   6.717 -0.3759 -0.6013 -0.5584
   76MOL    C3946689   6.232   3.614   6.784 -0.2052 -0.4390  0.1037
   76MOL    C4046690   6.280   3.664   6.917  0.5135  0.5505 -0.3371
   76MOL    C4146691   6.407   3.594   6.970  0.1246 -0.7276  0.2483
   76MOL    C4246692   6.477   3.669   7.088  0.7098  0.3865 -0.0230
   76MOL    C4346693   5.822   3.652   6.122 -0.0880 -0.1521  0.0139
   76MOL    H4446694   5.871   3.477   6.180  0.3612  0.6901 -2.2762
   76MOL    H4546695   6.077   3.451   6.294  0.0718 -3.1519  1.6192
   76MOL    H4646696   5.954   3.433   6.439  1.9617  0.0051  0.6997
   76MOL    H4746697   6.173   3.642   6.434  0.4804 -0.8401  0.1117
   76MOL    H4846698   6.195   3.472   6.486 -1.3359 -1.0256 -0.1280
   76MOL    H4946699   5.967   3.664   6.583  1.1261  0.1529 -0.1047
   76MOL    H5046700   6.007   3.515   6.656 -0.8825  0.3386  0.1558
   76MOL    H5146701   6.166   3.782   6.688 -0.2114 -0.1987  0.9523
   76MOL    H5246702   6.039   3.707   6.790  2.8665  1.0272  2.7491
   76MOL    H5346703   6.208   3.509   6.800 -0.8432 -0.0228  2.0419
   76MOL    H5446704   6.320   3.621   6.720  0.1030  0.3723  0.6136
   76MOL    H5546705   6.205   3.640   6.992  0.8461  0.9709  0.1417
   76MOL    H5646706   6.284   3.773   6.907 -0.5662  0.7361  1.0461
   76MOL    H5746707   6.379   3.491   6.997  1.5808 -1.0986  0.3857
   76MOL    H5846708   6.487   3.583   6.897 -1.2904 -0.4689 -1.3664
   76MOL    H5946709   6.561   3.608   7.121 -0.5083 -1.1308  0.3173
   76MOL    H6046710   6.406   3.671   7.171  0.7593 -1.6659  0.0903
   76MOL    H6146711   6.519   3.769   7.074  2.2403 -0.3371 -0.7908
   76MOL    H6246712   5.924   3.661   6.083 -0.4993 -1.4621 -1.3927
   76MOL    H6346713   5.758   3.607   6.047  0.0897  1.4525 -1.1382
   76MOL    C6446714   5.770   3.790   6.162  0.3130 -0.1220 -0.0778
   76MOL    O6546715   5.633   3.779   6.124 -0.0618  0.6085 -0.2777
   76MOL    C6646716   5.547   3.852   6.216 -0.5654 -0.5924 -0.2030
   76MOL    C6746717   5.406   3.886   6.155  0.5414  0.0013 -0.3027
   76MOL    C6846718   5.325   3.753   6.147  0.4195 -0.6515 -0.2666
   76MOL    C6946719   5.200   3.772   6.063  1.1237  0.3787 -0.0606
   76MOL    C7046720   5.111   3.639   6.074 -0.1620 -0.4586 -0.0156
   76MOL    C7146721   5.016   3.614   5.953 -0.1648  0.5793  0.0337
   76MOL    C7246722   4.903   3.518   5.988 -0.6540  0.5755  0.3181
   76MOL    C7346723   4.946   3.372   5.979  0.5011  0.0459  0.1294
   76MOL    C7446724   5.845   3.912   6.101 -0.0218 -0.0374  0.4699
   76MOL    H7546725   5.770   3.809   6.270 -0.0528  1.0819 -0.2896
   76MOL    H7646726   5.595   3.945   6.246 -0.3732 -1.3649  1.9379
   76MOL    H7746727   5.525   3.803   6.311  0.7443 -0.3180  0.2513
   76MOL    H7846728   5.408   3.938   6.059  1.7775  1.4563  0.4913
   76MOL    H7946729   5.349   3.957   6.215 -0.8490  0.6330 -2.3347
   76MOL    H8046730   5.388   3.679   6.098  0.6983 -0.5774 -0.0192
   76MOL    H8146731   5.292   3.733   6.249  0.8393  0.7008  0.1447
   76MOL    H8246732   5.140   3.862   6.073 -2.3038 -1.7279 -0.5873
   76MOL    H8346733   5.224   3.789   5.958  0.7543 -4.3149 -1.0370
   76MOL    H8446734   5.171   3.549   6.088  1.3370  0.7484  1.5474
   76MOL    H8546735   5.063   3.629   6.171 -1.0241 -1.2401 -0.5069
   76MOL    H8646736   5.080   3.568   5.877 -0.3670  2.2167 -1.1592
   76MOL    H8746737   4.976   3.709   5.916  2.9089  1.4356 -1.2981
   76MOL    H8846738   4.853   3.542   6.081  0.1777  2.0975  0.3940
   76MOL    H8946739   4.827   3.534   5.911  2.4220 -0.3801 -3.0646
   76MOL    H9046740   4.990   3.344   5.883 -0.3991 -0.2006 -0.2232
   76MOL    H9146741   4.856   3.313   5.994  0.4897 -0.1931 -0.8631
   76MOL    H9246742   5.027   3.355   6.049  0.4037  2.4131  0.8595
   76MOL    H9346743   5.830   3.902   5.993 -1.9571  0.3590  0.6768
   76MOL    H9446744   5.786   4.002   6.117  1.0711  0.7040  0.3868
   76MOL    C9546745   5.992   3.931   6.145  0.1263  0.0743  0.6167
   76MOL    O9646746   5.989   3.990   6.275  0.1244 -0.2188 -0.8059
   76MOL    C9746747   6.075   3.925   6.364  0.4478 -0.6394 -0.2439
   76MOL    C9846748   6.080   4.031   6.475 -0.4944 -0.0761  0.1137
   76MOL    C9946749   5.940   4.037   6.555  1.0363  0.0692  0.5056
   76MOL   C10046750   5.937   4.145   6.665 -0.5005  0.9494  0.1079
   76MOL   C10146751   5.805   4.147   6.744 -0.1421 -0.5344  0.0499
   76MOL   C10246752   5.800   4.270   6.838 -0.2445  0.0294 -0.3863
   76MOL   C10346753   5.663   4.301   6.907 -0.2080 -0.2496  0.3250
   76MOL   C10446754   5.679   4.415   7.006  0.4349  0.1470  0.0090
   76MOL   C10546755   6.080   4.023   6.056 -0.5394  0.3518  1.1310
   76MOL   H10646756   6.042   3.834   6.142 -1.1322 -0.5524 -2.4091
   76MOL   H10746757   6.169   3.903   6.314  0.0291  0.2618 -1.4351
   76MOL   H10846758   6.027   3.833   6.397 -0.0440 -0.9440 -1.7945
   76MOL   H10946759   6.103   4.134   6.447  0.5492 -0.4113 -0.2567
   76MOL   H11046760   6.159   4.013   6.548  0.6553  1.5604 -0.7104
   76MOL   H11146761   5.856   4.047   6.485  1.1501  0.2733  0.3980
   76MOL   H11246762   5.928   3.938   6.600 -1.5540  0.8339  1.5676
   76MOL   H11346763   6.020   4.125   6.733 -2.2760 -1.1792  1.6823
   76MOL   H11446764   5.954   4.242   6.617  1.6710  0.3382 -0.4189
   76MOL   H11546765   5.725   4.159   6.670 -0.9012  2.1083  1.2561
   76MOL   H11646766   5.777   4.056   6.797  2.4133 -0.3630  1.7520
   76MOL   H11746767   5.835   4.363   6.792  1.8798  0.2047  1.5153
   76MOL   H11846768   5.878   4.252   6.911 -0.4718  0.1652 -0.1107
   76MOL   H11946769   5.587   4.322   6.832  0.7612 -0.2000 -0.6552
   76MOL   H12046770   5.631   4.210   6.959  1.3760 -1.1735 -0.3069
   76MOL   H12146771   5.728   4.392   7.101 -0.1717 -0.0388  0.2791
   76MOL   H12246772   5.578   4.454   7.017 -1.0643 -3.3384 -0.7667
   76MOL   H12346773   5.734   4.494   6.955  2.6682 -2.1595 -1.2319
   76MOL   H12446774   6.047   4.127   6.055 -1.2062  0.1350  0.3026
   76MOL   H12546775   6.181   4.021   6.099 -0.3129 -0.4590  0.5788
   76MOL   C12646776   6.100   3.974   5.914 -0.0932  0.6701  0.1204
   76MOL   O12746777   6.120   3.835   5.912 -0.1744  0.1916 -1.2833
   76MOL   C12846778   6.088   3.756   5.797 -0.6916  0.3854 -0.1100
   76MOL   C12946779   6.078   3.609   5.838  0.0583  0.1042 -0.0429
   76MOL   C13046780   6.196   3.562   5.932 -0.2531 -0.2144  0.4548
   76MOL   C13146781   6.160   3.437   6.012 -0.1233 -0.0776 -0.2634
   76MOL   C13246782   6.282   3.378   6.094  0.3967  0.1062 -0.0173
   76MOL   C13346783   6.252   3.241   6.169  0.5513  0.1084 -0.5016
   76MOL   C13446784   6.375   3.183   6.231 -0.1324 -0.3193 -0.1182
   76MOL   C13546785   6.347   3.102   6.359 -0.7114  0.6252 -0.2018
   76MOL   C13646786   6.219   4.040   5.839  0.4336 -0.8889 -0.2095
   76MOL   H13746787   6.005   3.991   5.865 -0.0411 -2.1503 -1.0425
   76MOL   H13846788   6.179   3.766   5.738 -0.0479  1.9076  1.0718
   76MOL   H13946789   5.996   3.789   5.750 -1.0971 -0.1692  0.2854
   76MOL   H14046790   6.079   3.541   5.753 -1.3051  0.5391 -0.4136
   76MOL   H14146791   5.978   3.604   5.881  0.1959 -2.1890  0.1153
   76MOL   H14246792   6.280   3.525   5.873 -0.1764 -0.6099  0.8135
   76MOL   H14346793   6.232   3.649   5.987 -0.0861 -0.1527  0.2492
   76MOL   H14446794   6.077   3.459   6.080  2.3529 -0.1576  2.9249
   76MOL   H14546795   6.120   3.372   5.934 -2.6270  1.8886 -0.6982
   76MOL   H14646796   6.366   3.375   6.024  0.2716 -0.9864 -0.1277
   76MOL   H14746797   6.320   3.446   6.171  0.1473 -2.6932  2.6364
   76MOL   H14846798   6.221   3.183   6.083  1.0220  1.0660 -1.3242
   76MOL   H14946799   6.163   3.248   6.232 -1.0191 -0.6069 -2.6150
   76MOL   H15046800   6.430   3.125   6.157 -2.1204 -2.2396 -0.1529
   76MOL   H15146801   6.431   3.271   6.265  1.2459 -1.7738  1.4798
   76MOL   H15246802   6.438   3.090   6.418 -0.2567 -0.5086 -1.1178
   76MOL   H15346803   6.322   2.999   6.334  0.7099 -0.2354  1.8076
   76MOL   H15446804   6.269   3.132   6.429  0.2756  2.2844  0.2027
   76MOL   H15546805   6.314   4.020   5.887 -0.5932  0.0940  2.3786
   76MOL   H15646806   6.220   4.009   5.735  0.5811 -0.6466 -0.2788
   76MOL   C15746807   6.217   4.196   5.840 -0.0295  0.8356  0.1705
   76MOL   O15846808   6.103   4.248   5.772  0.0268 -0.2555 -0.3699
   76MOL   C15946809   6.077   4.385   5.782 -0.0361 -0.0169 -0.5899
   76MOL   C16046810   5.943   4.415   5.711  0.7917 -0.0842  0.3976
   76MOL   C16146811   5.817   4.351   5.784  0.0236 -0.0611 -0.1109
   76MOL   C16246812   5.744   4.447   5.878  0.0637 -0.4370 -0.0615
   76MOL   C16346813   5.667   4.386   5.989 -0.2395  0.3481 -0.1469
   76MOL   C16446814   5.538   4.326   5.946 -0.7752  0.3639  0.5105
   76MOL   C16546815   5.448   4.292   6.061  0.2792 -0.4367 -0.1490
   76MOL   C16646816   5.300   4.243   6.027 -0.4392  0.6807  0.2683
   76MOL   C16746817   6.341   4.258   5.774 -0.9845 -0.1105  0.7141
   76MOL   H16846818   6.225   4.232   5.943  2.1921  0.5785  0.1189
   76MOL   H16946819   6.150   4.454   5.740  0.5214 -0.7481 -0.8318
   76MOL   H17046820   6.078   4.409   5.888 -0.0769 -1.1994 -0.3186
   76MOL   H17146821   5.946   4.376   5.609  0.0608 -0.5713  0.5537
   76MOL   H17246822   5.924   4.522   5.712  0.9497 -0.0599  2.4173
   76MOL   H17346823   5.746   4.316   5.710 -0.7722 -0.5344  0.8636
   76MOL   H17446824   5.861   4.274   5.848  2.6280  0.9039 -0.6530
   76MOL   H17546825   5.822   4.511   5.920  1.5618 -2.9187  1.0343
   76MOL   H17646826   5.685   4.511   5.812  2.3492 -0.2404 -2.0057
   76MOL   H17746827   5.731   4.320   6.046  0.9764  1.4683 -0.1842
   76MOL   H17846828   5.638   4.468   6.056  0.0099 -0.6048  1.1325
   76MOL   H17946829   5.563   4.233   5.896 -0.9533  1.3321 -1.4225
   76MOL   H18046830   5.484   4.396   5.883 -0.7650  0.5793  0.7382
   76MOL   H18146831   5.497   4.213   6.118  1.3201  1.0279  1.0466
   76MOL   H18246832   5.446   4.376   6.130 -0.3686 -0.7144  0.1677
   76MOL   H18346833   5.247   4.313   5.963 -0.6108  0.1056 -0.2255
   76MOL   H18446834   5.248   4.233   6.122 -0.6103  1.9013  0.3047
   76MOL   H18546835   5.311   4.140   5.993  2.0432  0.8445  0.4969
   76MOL   H18646836   6.338   4.361   5.808 -0.5167  0.4562 -0.9327
   76MOL   H18746837   6.436   4.216   5.805 -0.7942 -0.7351 -0.6563
   76MOL   C18846838   6.350   4.256   5.616 -0.3813  0.0988 -0.2227
   76MOL   O18946839   6.389   4.125   5.584  0.0881  0.0680 -0.5243
   76MOL   C19046840   6.315   4.078   5.461  0.1741 -0.1669 -0.0953
   76MOL   C19146841   6.380   3.948   5.416 -0.3457 -0.8364 -0.3009
   76MOL   C19246842   6.509   3.975   5.338 -0.1530  0.6135 -0.0642
   76MOL   C19346843   6.571   3.863   5.258 -0.2301  0.1249 -0.1823
   76MOL   C19446844   6.701   3.916   5.197  1.2326  0.2850  0.3254
   76MOL   C19546845   6.772   3.806   5.116 -0.0249  0.4268 -0.2850
   76MOL   C19646846   6.895   3.872   5.048 -0.4613  0.0796  0.1556
   76MOL   C19746847   6.965   3.766   4.966 -0.7121 -0.5354  0.5330
   76MOL   C19846848   6.474   4.337   5.567  0.0296  0.1471 -0.9479
   76MOL   H19946849   6.251   4.279   5.579 -0.4021 -0.2079 -0.3585
   76MOL   H20046850   6.210   4.076   5.493  0.4289 -0.5838  0.7405
   76MOL   H20146851   6.315   4.151   5.381 -1.1939 -0.6596 -0.5555
   76MOL   H20246852   6.312   3.904   5.344 -0.2197 -2.4513  0.5573
   76MOL   H20346853   6.399   3.883   5.502  0.4957  1.0711  1.0096
   76MOL   H20446854   6.484   4.047   5.262  1.0435 -0.3499 -1.4082
   76MOL   H20546855   6.583   4.029   5.397  1.7446 -0.5606 -1.2738
   76MOL   H20646856   6.584   3.776   5.324  1.4338  0.6045  0.1354
   76MOL   H20746857   6.504   3.839   5.176  2.3276 -1.6637 -1.8277
   76MOL   H20846858   6.686   3.999   5.129  0.8807 -0.2710 -0.2819
   76MOL   H20946859   6.765   3.950   5.278 -0.4720  2.6726  0.7279
   76MOL   H21046860   6.711   3.758   5.039  1.2238 -1.3133 -0.2144
   76MOL   H21146861   6.815   3.728   5.179  0.5651  0.6647 -0.3950
   76MOL   H21246862   6.859   3.952   4.983  1.0084  0.6057 -0.0314
   76MOL   H21346863   6.966   3.922   5.115  0.9911 -1.3295 -0.3008
   76MOL   H21446864   7.033   3.806   4.891 -0.3552 -0.3443  0.9546
   76MOL   H21546865   6.891   3.723   4.899  0.4621  1.0161 -1.8637
   76MOL   H21646866   7.005   3.683   5.024 -0.9589  0.0152  1.5147
   76MOL   H21746867   6.568   4.292   5.600  0.8471  1.2084 -1.8011
   76MOL   H21846868   6.478   4.325   5.459 -0.4808  0.7761 -1.0344
   76MOL   C21946869   6.463   4.485   5.601 -0.0513  0.0133  0.3550
   76MOL   O22046870   6.339   4.526   5.539 -0.0231 -0.4809  0.0810
   76MOL   C22146871   6.287   4.657   5.579  0.6554  0.0142  0.7410
   76MOL   C22246872   6.162   4.679   5.496  0.9181 -1.4372 -0.0637
   76MOL   C22346873   6.069   4.799   5.533 -0.2650 -0.3563  0.2724
   76MOL   C22446874   5.921   4.790   5.470 -0.1440  0.2942 -0.1636
   76MOL   C22546875   5.920   4.806   5.321 -0.2472 -0.4398  0.8883
   76MOL   C22646876   5.796   4.751   5.264 -0.2553 -0.3477  0.6614
   76MOL   C22746877   5.773   4.785   5.117  0.1003  0.1495 -0.2694
   76MOL   C22846878   5.647   4.721   5.056  0.2176  0.1673 -0.4023
   76MOL   C22946879   6.584   4.565   5.548  0.7642  0.3768 -0.1488
   76MOL   H23046880   6.457   4.513   5.707  2.7407  0.5921  0.4073
   76MOL   H23146881   6.362   4.736   5.575 -0.0082  0.5186 -2.5725
   76MOL   H23246882   6.250   4.658   5.682 -0.1806 -2.5385  0.4997
   76MOL   H23346883   6.104   4.587   5.501 -1.1177 -0.2018 -0.1146
   76MOL   H23446884   6.196   4.691   5.393  0.3373  1.8835  0.0619
   76MOL   H23546885   6.049   4.795   5.640 -0.3836 -0.8665  0.2320
   76MOL   H23646886   6.115   4.891   5.495  1.6210 -1.2052  0.4579
   76MOL   H23746887   5.872   4.699   5.503 -0.8371  0.8462  0.3456
   76MOL   H23846888   5.861   4.871   5.514  1.1133  1.4665 -0.5700
   76MOL   H23946889   5.931   4.911   5.295 -0.1990 -0.9852 -1.3636
   76MOL   H24046890   6.005   4.760   5.271  1.0033  2.3973  0.3242
   76MOL   H24146891   5.702   4.783   5.309 -0.3445 -1.2946  1.1461
   76MOL   H24246892   5.790   4.645   5.286 -3.3949 -0.3158  0.2054
   76MOL   H24346893   5.765   4.892   5.104 -0.5933 -0.0104 -1.2026
   76MOL   H24446894   5.864   4.761   5.063  0.5745 -0.6197  0.8492
   76MOL   H24546895   5.580   4.805   5.039 -1.9607 -1.1948  1.0665
   76MOL   H24646896   5.599   4.643   5.116 -0.6939  1.6793  0.8718
   76MOL   H24746897   5.662   4.682   4.955  1.2873  0.1949 -0.2534
   76MOL   H24846898   6.575   4.572   5.440 -2.4585  1.0399  0.1181
   76MOL   H24946899   6.569   4.664   5.591  1.0261  0.4633 -0.2579
   76MOL   C25046900   6.729   4.519   5.572  0.4446  0.8993  0.6678
   76MOL   O25146901   6.740   4.457   5.703 -0.2166 -0.3417 -0.6146
   76MOL   C25246902   6.857   4.372   5.722  0.5202 -0.0506 -0.1901
   76MOL   C25346903   6.835   4.278   5.841  0.1131  0.0082  0.3726
   76MOL   C25446904   6.838   4.348   5.978 -0.5605 -0.5143 -0.2949
   76MOL   C25546905   6.824   4.253   6.102  0.7635 -0.0441 -0.0105
   76MOL   C25646906   6.682   4.192   6.101  0.2251  0.2764 -1.0382
   76MOL   C25746907   6.574   4.292   6.100  0.1249  0.5543  0.0188
   76MOL   C25846908   6.431   4.231   6.124 -0.7264 -0.1931  0.0900
   76MOL   C25946909   6.401   4.197   6.272 -0.3465 -0.2599 -0.1204
   76MOL   C26046910   6.826   4.631   5.566  0.2696  0.6248 -0.4874
   76MOL   H26146911   6.751   4.442   5.498  3.2447 -0.2062  2.5328
   76MOL   H26246912   6.947   4.429   5.744  0.8238 -0.6645  0.1988
   76MOL   H26346913   6.882   4.309   5.636 -2.1199 -0.4665 -0.6747
   76MOL   H26446914   6.901   4.191   5.836 -1.6361 -1.5117  2.3582
   76MOL   H26546915   6.738   4.228   5.830 -0.2741  0.7901  0.1921
   76MOL   H26646916   6.934   4.397   5.990  1.0982 -3.4253 -1.2673
   76MOL   H26746917   6.759   4.423   5.980  0.4923  0.6783 -1.9972
   76MOL   H26846918   6.904   4.179   6.094  0.1518 -0.4816 -2.4530
   76MOL   H26946919   6.844   4.320   6.186  0.5037 -0.1113  0.1054
   76MOL   H27046920   6.664   4.123   6.018 -0.2004 -1.8031  0.7521
   76MOL   H27146921   6.687   4.127   6.188 -2.2927  0.2590 -0.8877
   76MOL   H27246922   6.562   4.345   6.006 -0.6267 -0.2929 -0.3706
   76MOL   H27346923   6.592   4.358   6.184  0.5578 -0.3782  0.6739
   76MOL   H27446924   6.356   4.303   6.092 -0.3942  0.1594  0.0949
   76MOL   H27546925   6.428   4.143   6.060 -1.3445 -1.0300  1.2464
   76MOL   H27646926   6.468   4.121   6.314 -0.7218 -0.2397  0.5258
   76MOL   H27746927   6.298   4.165   6.287  0.2390 -1.9833  0.3765
   76MOL   H27846928   6.424   4.289   6.327 -1.8724  0.3955 -0.5687
   76MOL   H27946929   6.779   4.704   5.630  0.8757  0.0151  0.6663
   76MOL   H28046930   6.929   4.619   5.600  1.6392 -1.5161 -4.9113
   76MOL   C28146931   6.848   4.680   5.417  1.1374  0.1668  1.1843
   76MOL   O28246932   6.912   4.574   5.346 -0.5453  0.3285 -0.0489
   76MOL   C28346933   6.881   4.571   5.207  0.2378  0.1642  0.5177
   76MOL   C28446934   6.920   4.446   5.137 -0.6196 -0.0738 -0.0598
   76MOL   C28546935   6.868   4.316   5.209 -0.1870 -0.1748 -0.0587
   76MOL   C28646936   6.711   4.303   5.213 -0.0087 -0.2501 -0.2886
   76MOL   C28746937   6.637   4.324   5.081 -0.8461  0.2186  0.2632
   76MOL   C28846938   6.487   4.335   5.098 -0.4611  0.4274  0.0165
   76MOL   C28946939   6.442   4.474   5.133  0.4086 -0.0447  0.2845
   76MOL   C29046940   6.289   4.484   5.166  0.3125  0.1185 -0.0355
   76MOL   C29146941   6.939   4.800   5.400  0.0675 -0.1995  0.3708
   76MOL   H29246942   6.758   4.703   5.360  0.0070 -0.3228  2.7153
   76MOL   H29346943   6.928   4.659   5.163  1.3921  0.9439  3.1725
   76MOL   H29446944   6.774   4.580   5.187  0.2477  0.7004  0.6797
   76MOL   H29546945   7.027   4.423   5.144 -0.3340  0.3161 -2.5035
   76MOL   H29646946   6.891   4.437   5.032  0.8039 -1.8832 -0.3196
   76MOL   H29746947   6.908   4.239   5.143  0.2900 -0.2312  0.2881
   76MOL   H29846948   6.911   4.316   5.309 -0.7361  0.2065  0.1770
   76MOL   H29946949   6.690   4.201   5.244  1.7634 -0.4238  0.4253
   76MOL   H30046950   6.667   4.363   5.293 -0.9974  0.2673 -1.2033
   76MOL   H30146951   6.659   4.413   5.022 -2.9182  1.1744  0.8988
   76MOL   H30246952   6.660   4.240   5.015 -3.0443 -1.2852  1.3618
   76MOL   H30346953   6.453   4.265   5.174 -1.7648 -0.9553 -1.8090
   76MOL   H30446954   6.435   4.303   5.007  0.2933 -0.0776 -0.2461
   76MOL   H30546955   6.488   4.527   5.217 -0.3677 -1.8296  1.8606
   76MOL   H30646956   6.453   4.545   5.052  0.1253  0.1983  0.4566
   76MOL   H30746957   6.259   4.421   5.250 -0.1463 -0.0561 -0.3255
   76MOL   H30846958   6.230   4.448   5.082  1.5124  0.1322 -0.8974
   76MOL   H30946959   6.263   4.588   5.185 -0.1232 -0.0849  0.5150
   76MOL   H31046960   7.031   4.781   5.457 -0.0535  0.2797  0.7244
   76MOL   H31146961   6.972   4.815   5.298  0.9852  0.7249  0.7971
   76MOL   C31246962   6.877   4.936   5.448  0.2499  0.2642 -0.3563
   76MOL   O31346963   6.763   4.958   5.365 -0.7008 -0.0494 -0.0021
   76MOL   C31446964   6.642   5.007   5.422  0.1456  0.5118 -0.1356
   76MOL   C31546965   6.510   4.955   5.350  0.4288 -0.0365  0.0325
   76MOL   C31646966   6.481   5.020   5.215 -0.6865 -0.2279  0.4630
   76MOL   C31746967   6.337   5.005   5.153  0.4437  0.2652  0.0324
   76MOL   C31846968   6.304   4.876   5.077  0.7034 -0.3114  0.4658
   76MOL   C31946969   6.174   4.889   4.997  0.3209 -0.3319  0.7324
   76MOL   C32046970   6.150   4.773   4.904  0.0058 -0.2258 -0.1739
   76MOL   C32146971   6.022   4.785   4.824  1.0280 -0.4678 -0.5051
   76MOL   C32246972   6.964   5.060   5.436 -0.1073 -0.3295 -0.0712
   76MOL   H32346973   6.845   4.917   5.551 -0.7951  0.0257 -0.7197
   76MOL   H32446974   6.635   5.116   5.419  3.5554  0.8673  2.0458
   76MOL   H32546975   6.627   4.983   5.527  0.7685 -0.0386 -0.1668
   76MOL   H32646976   6.432   4.979   5.422  1.4083 -3.3857  2.3409
   76MOL   H32746977   6.513   4.849   5.326  4.3923  0.0652 -0.3379
   76MOL   H32846978   6.505   5.126   5.228 -0.0716 -0.2890 -0.1501
   76MOL   H32946979   6.544   4.996   5.130 -2.1237 -1.5101 -0.2808
   76MOL   H33046980   6.261   5.020   5.230  0.4790 -0.0103  0.1208
   76MOL   H33146981   6.323   5.089   5.086  3.4312  1.4116  0.7660
   76MOL   H33246982   6.389   4.852   5.013  0.3996 -2.2929  0.7512
   76MOL   H33346983   6.300   4.801   5.156 -1.9230 -1.0872 -0.3431
   76MOL   H33446984   6.182   4.982   4.940 -0.8872  0.0309  1.1410
   76MOL   H33546985   6.092   4.908   5.065  0.1465  2.4163 -0.1858
   76MOL   H33646986   6.230   4.769   4.829 -1.2439 -1.3287 -1.4632
   76MOL   H33746987   6.150   4.672   4.943 -1.1148 -0.0127  0.3932
   76MOL   H33846988   5.962   4.695   4.838 -1.0388  0.9473 -0.0220
   76MOL   H33946989   6.051   4.781   4.719  0.3769  0.9311 -0.7559
   76MOL   H34046990   5.970   4.878   4.850  0.0947 -1.0224 -0.3468
   76MOL   H34146991   7.071   5.039   5.431 -0.0364 -0.2564  1.0828
   76MOL   H34246992   6.939   5.108   5.341  0.5278  0.6829  0.2569
   76MOL   C34346993   6.962   5.173   5.542  0.8675 -0.2821 -0.1087
   76MOL   O34446994   6.848   5.245   5.518  0.0968  0.1867 -0.3112
   76MOL   C34546995   6.808   5.344   5.612 -0.2872  0.2169 -0.2919
   76MOL   C34646996   6.661   5.331   5.625  1.3279 -0.0455  0.1785
   76MOL   C34746997   6.599   5.445   5.704 -0.6129 -0.2267 -0.2425
   76MOL   C34846998   6.447   5.439   5.713  0.4144  0.1990  0.0700
   76MOL   C34946999   6.404   5.551   5.808  0.1066  0.2838 -0.0614
   76MOL   C35047000   6.264   5.533   5.853 -0.1706 -0.6707  0.2785
   76MOL   C35147001   6.229   5.631   5.966  0.1904 -0.4586 -0.0944
   76MOL   C35247002   6.215   5.774   5.921  0.3804 -0.3971 -0.1558
   76MOL   C35347003   7.098   5.249   5.548  0.3251  0.1230 -0.3399
   76MOL   H35447004   6.954   5.129   5.642  2.2502  1.8114  0.9475
   76MOL   H35547005   6.847   5.436   5.568  1.8329 -1.0223 -1.1120
   76MOL   H35647006   6.847   5.343   5.714 -1.2143  1.8097  0.0828
   76MOL   H35747007   6.638   5.236   5.675 -2.3841  0.7327  0.1115
   76MOL   H35847008   6.602   5.312   5.535 -0.8757  0.4903  1.4610
   76MOL   H35947009   6.644   5.449   5.803 -0.3286  2.1357 -0.4480
   76MOL   H36047010   6.615   5.542   5.656  0.2755 -0.6705 -0.8499
   76MOL   H36147011   6.391   5.435   5.619  2.6529 -0.7495 -1.2771
   76MOL   H36247012   6.429   5.338   5.752 -1.9154  0.2897 -0.7343
   76MOL   H36347013   6.469   5.556   5.895 -1.0766 -2.7958  1.0821
   76MOL   H36447014   6.415   5.646   5.756 -0.3459 -0.1426 -0.9581
   76MOL   H36547015   6.268   5.435   5.901 -1.7665 -1.2142 -0.6511
   76MOL   H36647016   6.177   5.524   5.788 -0.9280 -0.3568  1.2408
   76MOL   H36747017   6.134   5.592   6.003  1.0303 -0.3453  2.2372
   76MOL   H36847018   6.303   5.637   6.045 -1.1941 -1.0599  1.2898
   76MOL   H36947019   6.145   5.779   5.837  0.7651 -2.4439 -0.6200
   76MOL   H37047020   6.310   5.825   5.904  0.7710  0.0077  2.9414
   76MOL   H37147021   6.174   5.834   6.003 -0.0700  2.8383 -2.6374
   76MOL   H37247022   7.082   5.323   5.626  0.2943 -0.2838  0.0396
   76MOL   H37347023   7.172   5.176   5.580 -1.2444 -0.9838  0.7958
   76MOL   C37447024   7.133   5.320   5.418  1.1061 -0.0479 -1.0150
   76MOL   O37547025   7.203   5.223   5.336  0.3383  0.4431  0.2117
   76MOL   C37647026   7.201   5.251   5.195 -0.0853  0.3401 -0.2078
   76MOL   C37747027   7.274   5.145   5.104 -0.1426 -0.8982 -1.0133
   76MOL   C37847028   7.272   5.189   4.954  0.0714 -0.5182 -0.2995
   76MOL   C37947029   7.317   5.081   4.855  0.3028 -0.4000 -0.2429
   76MOL   C38047030   7.473   5.058   4.877 -0.0734  0.1746  0.1077
   76MOL   C38147031   7.503   4.933   4.792 -0.1032 -0.7228 -0.0834
   76MOL   C38247032   7.653   4.922   4.766 -0.5406  0.3511  0.1786
   76MOL   C38347033   7.702   4.801   4.686  0.3953  0.0990  0.4871
   76MOL   C38447034   7.222   5.444   5.450  0.8849  0.1369 -0.4191
   76MOL   H38547035   7.044   5.358   5.369 -0.4823 -2.2362  0.0978
   76MOL   H38647036   7.239   5.353   5.193 -0.3265  0.4884  1.4642
   76MOL   H38747037   7.097   5.258   5.163 -0.7266 -2.7952  1.0354
   76MOL   H38847038   7.208   5.061   5.122 -0.2880 -1.0668 -2.2850
   76MOL   H38947039   7.375   5.132   5.144 -0.2455  1.0464 -0.0689
   76MOL   H39047040   7.171   5.218   4.925 -0.1830 -0.5285  0.5812
   76MOL   H39147041   7.337   5.275   4.944  0.9914 -1.0604  0.9738
   76MOL   H39247042   7.275   4.982   4.873  0.2058 -0.6558 -1.8721
   76MOL   H39347043   7.296   5.102   4.751  0.3047 -1.0269 -0.3713
   76MOL   H39447044   7.530   5.145   4.844  2.2739 -1.9214 -1.5578
   76MOL   H39547045   7.504   5.052   4.981  0.5550  0.1682 -0.0792
   76MOL   H39647046   7.457   4.940   4.693  1.3643  1.6013 -0.6485
   76MOL   H39747047   7.463   4.842   4.836  0.2781 -1.7822 -1.8559
   76MOL   H39847048   7.684   5.005   4.702  1.4939 -1.0990 -0.7798
   76MOL   H39947049   7.710   4.932   4.858 -0.6119 -0.6139  0.3267
   76MOL   H40047050   7.661   4.707   4.722  1.7384 -0.4067  0.7156
   76MOL   H40147051   0.036   4.790   4.686  0.3944 -0.0374 -0.6392
   76MOL   H40247052   7.674   4.805   4.580  0.7862 -0.7899  0.3465
   76MOL   H40347053   7.323   5.420   5.482  1.5792  0.8006 -2.0613
   76MOL   H40447054   7.224   5.485   5.349  3.1342  0.2437 -0.3459
   76MOL   C40547055   7.162   5.551   5.539  0.0976  0.5250 -0.3684
   76MOL   O40647056   7.137   5.669   5.466 -0.1619  0.1787 -0.3292
   76MOL   C40747057   7.020   5.663   5.386 -0.2177 -0.4751 -0.2285
   76MOL   C40847058   7.006   5.794   5.307  0.3573  0.3656  0.2826
   76MOL   C40947059   7.109   5.819   5.193  0.1938  0.7218  0.6130
   76MOL   C41047060   7.107   5.706   5.080  0.4176  0.3686  0.3802
   76MOL   C41147061   7.211   5.719   4.971 -0.5864  0.0141  0.2837
   76MOL   C41247062   7.239   5.589   4.902  0.3853  0.1784  0.2897
   76MOL   C41347063   7.303   5.610   4.763 -0.2540 -0.1900  0.5703
   76MOL   C41447064   7.439   5.690   4.765 -0.4830  0.0501  0.6769
   76MOL   C41547065   7.259   5.599   5.652 -0.0228  0.4570  0.5104
   76MOL   H41647066   7.065   5.544   5.589  0.2062  1.2056 -0.0571
   76MOL   H41747067   6.935   5.641   5.450 -0.1029 -3.0179 -0.9168
   76MOL   H41847068   7.031   5.578   5.318  0.9736  0.5079 -1.2918
   76MOL   H41947069   7.015   5.873   5.382 -0.1121 -0.6941  1.4701
   76MOL   H42047070   6.909   5.801   5.258  0.6552 -1.9538 -0.6950
   76MOL   H42147071   7.076   5.908   5.138 -0.4361 -1.0538 -1.9930
   76MOL   H42247072   7.213   5.832   5.223  1.1506 -0.1314 -2.1189
   76MOL   H42347073   7.115   5.609   5.129  0.2024  1.0592  1.8084
   76MOL   H42447074   7.006   5.708   5.038  0.7062 -2.7546 -0.6528
   76MOL   H42547075   7.188   5.800   4.902  1.8272  0.9549  0.5372
   76MOL   H42647076   7.302   5.748   5.023 -0.6280  0.3591  0.1676
   76MOL   H42747077   7.148   5.529   4.896  0.4490  0.1336 -0.2891
   76MOL   H42847078   7.305   5.525   4.960  0.6373 -0.1472 -0.3495
   76MOL   H42947079   7.321   5.512   4.719  1.9737  1.4098 -2.2400
   76MOL   H43047080   7.226   5.656   4.701 -0.2169 -1.4935 -0.4465
   76MOL   H43147081   7.438   5.786   4.817  0.3453  1.0002 -1.0240
   76MOL   H43247082   7.469   5.715   4.663 -0.5614  0.3101  0.7179
   76MOL   H43347083   7.514   5.626   4.810 -1.4937 -2.0307 -0.5344
   76MOL   H43447084   7.357   5.605   5.604  0.1744  0.7013  0.9347
   76MOL   H43547085   7.216   5.693   5.688 -2.7434 -0.9891  1.1830
   76MOL   C43647086   7.271   5.503   5.768  0.2558  0.1126  0.3415
   76MOL   O43747087   7.141   5.496   5.830 -0.1323  0.1006  0.3637
   76MOL   C43847088   7.107   5.384   5.905 -0.3574 -0.8175 -0.1217
   76MOL   C43947089   6.965   5.405   5.964 -0.3100  0.8806 -0.5532
   76MOL   C44047090   6.907   5.298   6.054 -0.4480 -0.2291 -0.1582
   76MOL   C44147091   6.842   5.182   5.974 -0.1358  0.1606  0.0256
   76MOL   C44247092   6.768   5.084   6.060  0.0081  0.1065 -0.0163
   76MOL   C44347093   6.714   4.960   5.986  0.5620 -1.5543 -0.2602
   76MOL   C44447094   6.818   4.844   5.976 -0.4960 -0.2414  0.1405
   76MOL   C44547095   6.766   4.713   5.939 -0.1598  0.2372 -0.4216
   76MOL   C44647096   7.378   5.543   5.875  0.8441 -0.9100 -0.5975
   76MOL   H44747097   7.310   5.409   5.730 -1.0498 -0.5062  0.4807
   76MOL   H44847098   7.109   5.294   5.843  0.3309  0.2844 -1.7159
   76MOL   H44947099   7.172   5.363   5.990  1.4867 -1.2318 -1.6123
   76MOL   H45047100   6.900   5.436   5.883  1.2458 -0.1871 -2.2531
   76MOL   H45147101   6.965   5.497   6.024 -1.3331  1.8945 -2.0686
   76MOL   H45247102   6.984   5.256   6.119 -0.2613  0.2503 -0.0687
   76MOL   H45347103   6.839   5.351   6.120  1.7590  0.8987  1.2982
   76MOL   H45447104   6.786   5.234   5.896  0.1222 -1.1744 -1.0654
   76MOL   H45547105   6.930   5.136   5.929  1.3069  3.3196 -0.5153
   76MOL   H45647106   6.817   5.050   6.152 -1.8343  1.1104  1.3634
   76MOL   H45747107   6.687   5.137   6.110  1.8619  0.8723  2.2599
   76MOL   H45847108   6.672   4.979   5.887  1.1664 -3.3255 -0.8872
   76MOL   H45947109   6.628   4.927   6.044 -0.0943  1.7402  0.7239
   76MOL   H46047110   6.895   4.869   5.903 -0.0313 -2.5671 -0.2012
   76MOL   H46147111   6.861   4.833   6.076  1.4359  0.4796 -0.5834
   76MOL   H46247112   6.844   4.646   5.902  0.6644  0.4788  0.8623
   76MOL   H46347113   6.684   4.713   5.867 -0.4434 -0.8723 -0.1069
   76MOL   H46447114   6.715   4.665   6.023  0.2454 -0.2949 -0.4753
   76MOL   H46547115   7.351   5.633   5.931  2.6573  0.8686 -2.4710
   76MOL   H46647116   7.370   5.469   5.955 -1.1422 -0.0575  0.0096
   76MOL   C46747117   7.524   5.572   5.833  0.4017  0.0382 -0.0701
   76MOL   O46847118   7.581   5.444   5.791  0.1320 -0.1239  0.6218
   76MOL   C46947119   7.687   5.460   5.696  0.4020 -1.0966  0.1755
   76MOL   C47047120   7.753   5.328   5.656 -0.8944  0.4937 -0.1637
   76MOL   C47147121   7.667   5.232   5.574  0.4078 -0.3303  0.2685
   76MOL   C47247122   7.753   5.115   5.522 -0.0667  0.0382 -0.1586
   76MOL   C47347123   7.671   5.023   5.438 -0.0730  0.3099  0.5374
   76MOL   C47447124   7.750   4.944   5.328 -0.6674  0.3940 -0.2790
   76MOL   C47547125   7.655   4.855   5.240  0.1332 -0.0737 -0.0570
   76MOL   C47647126   7.733   4.777   5.131  0.2416 -0.6190  0.6612
   76MOL   C47747127   7.608   5.624   5.949 -0.0938 -0.1438  0.4170
   76MOL   H47847128   7.510   5.646   5.754  1.2299  1.1296  0.7853
   76MOL   H47947129   7.761   5.527   5.740  1.6174 -1.7492 -0.8568
   76MOL   H48047130   7.640   5.514   5.614  0.0037  0.1458  1.2071
   76MOL   H48147131   0.018   5.286   5.748  2.5090  1.1857 -1.2274
   76MOL   H48247132   0.072   5.353   5.606  0.6113 -1.7008  1.4336
   76MOL   H48347133   7.575   5.202   5.624 -0.5516  1.5209 -0.3351
   76MOL   H48447134   7.630   5.291   5.490 -1.3901 -1.4987  0.2093
   76MOL   H48547135   0.060   5.154   5.460 -0.0634  0.3829  0.0603
   76MOL   H48647136   0.037   5.064   5.599 -1.9613 -4.0492 -1.3203
   76MOL   H48747137   7.633   4.944   5.504 -1.5472 -0.2639 -0.9760
   76MOL   H48847138   7.580   5.059   5.391  0.9147 -0.7833 -2.3613
   76MOL   H48947139   0.055   4.883   5.372 -0.8133 -0.4475 -1.1749
   76MOL   H49047140   0.022   5.019   5.263 -0.0521  1.5862  1.4836
   76MOL   H49147141   7.573   4.795   5.280 -0.8406  1.5667  0.4730
   76MOL   H49247142   7.585   4.915   5.181 -1.5165 -1.5445  0.3704
   76MOL   H49347143   7.658   4.723   5.073 -0.2679 -0.1142  0.8435
   76MOL   H49447144   0.014   4.694   5.174  1.9682 -0.8487 -1.8706
   76MOL   H49547145   0.023   4.841   5.071  1.8863 -2.2220  0.6803
   76MOL   H49647146   7.586   5.574   6.043  2.7489 -1.1501  0.6133
   76MOL   H49747147   7.714   5.599   5.936  0.0822  0.9836 -0.4105
   76MOL   C49847148   7.607   5.777   5.964  0.1186  0.1288 -0.3954
   76MOL   O49947149   7.698   5.824   5.862 -0.1214  0.0965  0.1834
   76MOL   C50047150   7.658   5.943   5.791  0.7361  0.0279  0.0500
   76MOL   C50147151   7.770   5.963   5.681 -0.8820 -0.3312 -0.1946
   76MOL   C50247152   7.762   5.875   5.555  0.3149  0.4710  0.2944
   76MOL   C50347153   0.106   5.899   5.460  0.2770 -0.9513  0.8110
   76MOL   C50447154   0.119   5.790   5.349  0.0954  0.3446  0.4036
   76MOL   C50547155   0.236   5.821   5.259 -0.4463 -0.3578  0.0877
   76MOL   C50647156   0.247   5.725   5.143  0.0222 -0.3805  0.2239
   76MOL   C50747157   0.139   5.747   5.030  0.0689 -0.4090  0.0314
   76MOL   C50847158   7.642   5.826   6.108  0.1260 -0.2373 -0.5961
   76MOL   H50947159   7.510   5.815   5.931 -0.5137 -0.5095  0.6998
   76MOL   H51047160   7.666   6.024   5.863 -0.2822 -1.8602  2.3757
   76MOL   H51147161   7.559   5.950   5.746  0.1858 -0.4864  1.1528
   76MOL   H51247162   0.091   5.937   5.726 -1.2175  0.5882  1.0861
   76MOL   H51347163   0.016   6.066   5.651 -1.6383  0.6339  2.4018
   76MOL   H51447164   7.738   5.770   5.571 -1.7443  0.7867 -0.5370
   76MOL   H51547165   7.677   5.913   5.498  0.6628  0.3901 -0.2712
   76MOL   H51647166   0.097   6.000   5.418 -1.2579 -1.2886  0.3103
   76MOL   H51747167   0.204   5.904   5.509  0.1478  1.2534  0.9167
   76MOL   H51847168   0.143   5.697   5.401  0.4847  1.0742  1.5177
   76MOL   H51947169   0.028   5.776   5.291 -0.0013 -2.5332  1.1438
   76MOL   H52047170   0.333   5.819   5.309  0.5140 -2.6875 -1.7521
   76MOL   H52147171   0.236   5.922   5.220  1.3264 -0.1469  0.6100
   76MOL   H52247172   0.349   5.736   5.106  0.6050 -1.5503  1.4466
   76MOL   H52347173   0.242   5.621   5.174 -1.0044 -0.4677 -0.2095
   76MOL   H52447174   0.141   5.660   4.963  1.5791 -0.7075  0.4504
   76MOL   H52547175   0.163   5.835   4.971 -2.0812  0.6598  0.7058
   76MOL   H52647176   0.036   5.757   5.065  0.1765 -0.5936  0.4061
   76MOL   H52747177   7.738   5.779   6.126  0.0205 -1.2074 -2.3988
   76MOL   H52847178   7.656   5.933   6.087 -0.2775 -0.3292 -1.3660
   76MOL   C52947179   7.521   5.807   6.212 -0.0460  0.3839  0.8008
   76MOL   O53047180   7.407   5.880   6.170 -0.2492  0.1882  0.1776
   76MOL   C53147181   7.277   5.819   6.156 -0.0179 -0.2931 -0.7496
   76MOL   C53247182   7.199   5.889   6.036  0.5273  0.4693 -0.4364
   76MOL   C53347183   7.069   5.822   5.989 -0.1759 -0.4986  0.0274
   76MOL   C53447184   7.005   5.858   5.854 -0.8376 -0.4410 -0.2547
   76MOL   C53547185   6.896   5.760   5.799  0.5807 -1.2122 -0.2542
   76MOL   C53647186   6.777   5.745   5.894  0.2095  0.1836 -0.3380
   76MOL   C53747187   6.677   5.863   5.888  0.1827 -0.4126  0.2725
   76MOL   C53847188   6.583   5.862   6.009  0.2145  0.4915  0.5329
   76MOL   C53947189   7.558   5.871   6.342 -0.1161 -0.1129 -0.6608
   76MOL   H54047190   7.505   5.699   6.220 -2.9426  0.7640  0.7413
   76MOL   H54147191   7.284   5.712   6.133 -0.6947 -0.7600  1.1168
   76MOL   H54247192   7.214   5.822   6.244  1.6458 -0.3869  0.4672
   76MOL   H54347193   7.281   5.906   5.967  1.6216  3.3110  1.4624
   76MOL   H54447194   7.175   5.990   6.070 -0.2700  0.2536 -0.3281
   76MOL   H54547195   7.090   5.715   5.991  1.1830 -0.2514 -0.2109
   76MOL   H54647196   6.995   5.844   6.066  0.4481 -1.4225  0.8930
   76MOL   H54747197   6.968   5.961   5.852 -2.7582 -1.0761  0.7395
   76MOL   H54847198   7.084   5.863   5.780 -2.1243  0.7178 -1.5622
   76MOL   H54947199   6.865   5.811   5.707  0.8057 -0.7289 -0.0671
   76MOL   H55047200   6.946   5.668   5.768 -1.9191 -2.3821 -0.9359
   76MOL   H55147201   6.803   5.728   5.999  0.8912  1.2003 -0.3328
   76MOL   H55247202   6.718   5.658   5.863 -1.5767  0.3496  2.4382
   76MOL   H55347203   6.740   5.952   5.898 -0.0864  0.0687 -1.9999
   76MOL   H55447204   6.609   5.870   5.803 -0.9204 -0.0611  1.1758
   76MOL   H55547205   6.628   5.863   6.109 -3.0729  1.8747  2.0538
   76MOL   H55647206   6.520   5.774   5.995 -2.9116  2.7089  0.2239
   76MOL   H55747207   6.507   5.939   6.007 -0.0898  0.1665 -1.1588
   76MOL   H55847208   7.596   5.969   6.316  1.0750  0.5602  3.3089
   76MOL   H55947209   7.477   5.888   6.414 -0.3326 -0.3570 -0.8452
   76MOL   C56047210   7.660   5.791   6.420 -0.1146 -0.4452  0.8398
   76MOL   O56147211   7.604   5.665   6.456  0.5360  0.0390 -0.2160
   76MOL   C56247212   7.704   5.556   6.458 -0.6351 -0.0014  0.4298
   76MOL   C56347213   7.728   5.505   6.310 -0.0302 -0.7107 -0.4674
   76MOL   C56447214   0.071   5.401   6.311 -0.0108  0.2611  0.4523
   76MOL   C56547215   0.067   5.316   6.184  0.0825  0.1821 -0.1517
   76MOL   C56647216   0.203   5.252   6.153 -0.1730  0.1541 -0.3005
   76MOL   C56747217   0.194   5.160   6.029  0.5568  0.2624 -0.4596
   76MOL   C56847218   0.334   5.114   5.984  0.0426 -0.0593  0.5367
   76MOL   C56947219   0.395   5.000   6.067  0.3951 -0.1316  0.5635
   76MOL   C57047220   7.706   5.871   6.550 -0.1622  0.1135  0.6291
   76MOL   H57147221   7.742   5.785   6.348  0.7991 -2.2024  1.9864
   76MOL   H57247222   7.664   5.477   6.522 -1.2233  0.5002  0.6744
   76MOL   H57347223   0.027   5.596   6.485 -1.0276  1.8617 -0.7969
   76MOL   H57447224   7.757   5.590   6.250 -0.9782 -0.2899 -0.3517
   76MOL   H57547225   7.640   5.457   6.266  1.6655 -3.1605 -1.3496
   76MOL   H57647226   0.171   5.442   6.322  0.2689 -0.3742  0.3292
   76MOL   H57747227   0.055   5.329   6.391 -1.2845 -1.7395 -1.5192
   76MOL   H57847228   7.760   5.242   6.190 -1.7631  2.1217 -0.5758
   76MOL   H57947229   0.045   5.383   6.101 -0.3792  1.6220  1.1095
   76MOL   H58047230   0.278   5.331   6.141  0.5108 -0.3793  0.3427
   76MOL   H58147231   0.231   5.192   6.240  0.0057  2.0572  1.0021
   76MOL   H58247232   0.132   5.212   5.956 -1.5400 -0.1102  1.0074
   76MOL   H58347233   0.129   5.079   6.063  1.9212 -0.6347  0.1061
   76MOL   H58447234   0.331   5.080   5.880 -0.4902 -0.3221  0.6391
   76MOL   H58547235   0.403   5.199   5.986 -0.4781  0.3352  1.9180
   76MOL   H58647236   0.411   5.042   6.166  1.1511  1.9901 -0.4307
   76MOL   H58747237   0.489   4.973   6.020  1.2270 -0.1269  2.1793
   76MOL   H58847238   0.322   4.921   6.084 -0.6636  1.3323  3.1073
   76MOL   H58947239   7.625   5.936   6.583  0.1853  0.2332  1.2392
   76MOL   H59047240   7.726   5.796   6.626 -0.0640  0.0950  0.5855
   76MOL   C59147241   0.045   5.965   6.507  0.0242  0.0574  0.5515
   76MOL   O59247242   0.155   5.881   6.486  0.0370 -0.3116 -0.1150
   76MOL   C59347243   0.250   5.912   6.385 -0.1361  0.0641  0.5587
   76MOL   C59447244   0.313   5.776   6.341  1.0108  0.3246  0.2312
   76MOL   C59547245   0.413   5.712   6.444  0.2677 -0.0691 -0.5208
   76MOL   C59647246   0.462   5.570   6.408 -0.3628  0.4828  0.6820
   76MOL   C59747247   0.580   5.570   6.305  0.1974  0.4560  0.1174
   76MOL   C59847248   0.632   5.423   6.298  0.6537 -0.6257  0.2940
   76MOL   C59947249   0.725   5.407   6.176  0.2574 -0.3268  0.4215
   76MOL   C60047250   0.751   5.264   6.136 -0.8264 -0.3494 -0.5686
   76MOL   C60147251   0.081   6.077   6.609 -0.3104 -0.1011  0.5120
   76MOL   H60247252   0.005   6.009   6.415  0.0278 -2.9926 -0.9775
   76MOL   H60347253   0.323   5.980   6.429  0.0552  1.0103 -1.1880
   76MOL   H60447254   0.205   5.960   6.298 -0.3425 -1.4183 -0.1812
   76MOL   H60547255   0.372   5.789   6.250 -1.1452  0.7131 -1.1346
   76MOL   H60647256   0.236   5.703   6.318 -0.1160  1.9029 -1.0286
   76MOL   H60747257   0.500   5.778   6.450  0.9807 -1.0525  0.2314
   76MOL   H60847258   0.365   5.711   6.542  0.5436  1.5688 -0.3460
   76MOL   H60947259   0.498   5.519   6.497  0.2831 -1.2223 -0.5237
   76MOL   H61047260   0.373   5.514   6.378  0.3633 -0.1989 -0.2204
   76MOL   H61147261   0.554   5.609   6.206  2.5905 -1.1926 -1.2050
   76MOL   H61247262   0.667   5.622   6.345 -0.1654 -0.2194  1.8339
   76MOL   H61347263   0.545   5.357   6.295 -0.1743  0.4649  0.0697
   76MOL   H61447264   0.684   5.399   6.391 -0.6681 -1.9673  0.7170
   76MOL   H61547265   0.671   5.455   6.094  1.1385  1.4682  0.8780
   76MOL   H61647266   0.822   5.456   6.186  0.4418 -0.5118 -0.4549
   76MOL   H61747267   0.653   5.227   6.104 -0.6780  0.4182 -1.9653
   76MOL   H61847268   0.770   5.195   6.218  0.2753  0.4629 -0.1278
   76MOL   H61947269   0.829   5.256   6.060  1.3962  0.5628  1.5613
   76MOL   H62047270   0.142   6.153   6.560 -1.2829 -1.3711 -2.8519
   76MOL   H62147271   7.763   6.117   6.650 -1.6622 -2.3193 -0.2504
   76MOL   H62247272   0.144   6.032   6.685  1.0506  0.5720 -0.1929
   77MOL     C147273   5.589   0.737   5.751 -0.9812  0.3729  0.3364
   77MOL     O247274   5.481   0.812   5.710  0.0279 -0.4547 -0.4392
   77MOL     C347275   5.405   0.859   5.812 -0.0292 -0.0661  0.0349
   77MOL     C447276   5.303   0.962   5.766  0.1799  0.1505 -0.2869
   77MOL     C547277   5.206   1.010   5.877  0.5459  0.1443  0.3916
   77MOL     C647278   5.103   1.126   5.847 -0.1663 -0.2031 -0.5369
   77MOL     C747279   4.988   1.140   5.957 -0.0570  0.4388  0.5872
   77MOL     C847280   4.852   1.072   5.933  0.2331  0.3418 -0.4097
   77MOL     C947281   4.872   0.919   5.908  0.0829  0.8009 -0.2106
   77MOL    C1047282   4.887   0.844   6.046  0.5214 -0.6200 -0.4206
   77MOL    C1147283   5.656   0.669   5.632 -0.0894 -0.1425 -1.0291
   77MOL    H1247284   5.661   0.801   5.802 -1.0934  1.2586 -0.6173
   77MOL    H1347285   5.471   0.903   5.886  1.5556 -0.2174 -1.2660
   77MOL    H1447286   5.343   0.785   5.862  0.0716 -1.1194 -1.3721
   77MOL    H1547287   5.255   0.927   5.675  1.2368 -0.0412 -0.7873
   77MOL    H1647288   5.361   1.046   5.726  0.0850  0.3450 -0.0114
   77MOL    H1747289   5.156   0.917   5.906  2.1246 -1.1712 -0.9788
   77MOL    H1847290   5.274   1.044   5.955 -1.2060  1.9403  1.1781
   77MOL    H1947291   5.166   1.214   5.859  2.5651 -1.5928 -3.7545
   77MOL    H2047292   5.071   1.119   5.743 -0.5131 -2.5681 -0.2981
   77MOL    H2147293   5.026   1.117   6.057 -1.5187  1.0496  1.2888
   77MOL    H2247294   4.970   1.245   5.975 -1.3776  0.1789  0.8538
   77MOL    H2347295   4.799   1.118   5.850  0.4609 -1.8803 -1.8195
   77MOL    H2447296   4.790   1.087   6.022 -1.6310  0.2209 -1.6737
   77MOL    H2547297   4.789   0.879   5.851 -0.6840 -1.3234  2.2994
   77MOL    H2647298   4.955   0.892   5.842  0.5054 -0.7148  0.9220
   77MOL    H2747299   4.886   0.735   6.038 -0.0417 -0.5904 -0.7444
   77MOL    H2847300   4.807   0.871   6.114 -0.7691  0.3829 -2.2900
   77MOL    H2947301   4.988   0.864   6.082 -0.2080  0.8166  0.8906
   77MOL    H3047302   5.605   0.578   5.602 -1.7161  0.6235 -0.6469
   77MOL    H3147303   5.632   0.735   5.549  0.5512 -1.7033 -2.4731
   77MOL    H3247304   5.568   0.663   5.829 -1.0940  0.3033  0.2404
   77MOL    C3347305   5.810   0.654   5.648  0.8092 -0.1394  0.5943
   77MOL    O3447306   5.849   0.791   5.659 -0.1632  0.6239  0.4029
   77MOL    C3547307   5.939   0.812   5.764 -0.4012  0.7338  0.5551
   77MOL    C3647308   6.090   0.795   5.735 -0.0310  0.4510  0.1930
   77MOL    C3747309   6.143   0.909   5.638 -0.1215  0.3443  0.0706
   77MOL    C3847310   6.157   1.047   5.708 -0.0987 -0.7902 -0.3460
   77MOL    C3947311   6.228   1.150   5.623 -0.1343  0.1640 -0.4930
   77MOL    C4047312   6.259   1.279   5.701  0.3001 -0.5289  0.1791
   77MOL    C4147313   6.370   1.369   5.635  0.0878  0.4114 -0.3607
   77MOL    C4247314   6.314   1.454   5.521 -0.0196  0.0755 -0.0333
   77MOL    C4347315   5.874   0.602   5.519 -0.2943 -0.8517  0.3200
   77MOL    H4447316   5.842   0.591   5.731  2.0943  2.4983  2.1600
   77MOL    H4547317   5.909   0.760   5.855 -1.6293 -1.0185 -0.7979
   77MOL    H4647318   5.921   0.917   5.782 -0.6864  0.9580 -0.9392
   77MOL    H4747319   6.109   0.696   5.694  1.1860  0.2670  1.1745
   77MOL    H4847320   6.143   0.802   5.830  0.1697 -1.1971  0.2184
   77MOL    H4947321   6.240   0.876   5.600  0.1056  1.3679 -0.2603
   77MOL    H5047322   6.074   0.917   5.554  1.2368  0.3391 -1.0714
   77MOL    H5147323   6.055   1.078   5.729 -0.3405 -1.9017  0.1337
   77MOL    H5247324   6.211   1.033   5.802 -1.5507 -1.5885  0.3826
   77MOL    H5347325   6.321   1.099   5.595  0.3481  0.7513  0.0043
   77MOL    H5447326   6.169   1.171   5.534  2.1406  1.6410 -1.6952
   77MOL    H5547327   6.278   1.254   5.806  1.5457 -0.5794 -0.0409
   77MOL    H5647328   6.163   1.329   5.703  0.2731 -0.5372 -0.9096
   77MOL    H5747329   6.415   1.429   5.714  3.2167 -0.4805 -1.3991
   77MOL    H5847330   6.448   1.301   5.602 -0.7843 -1.6091  1.5488
   77MOL    H5947331   6.398   1.499   5.468  0.3959  0.4002  0.9019
   77MOL    H6047332   6.256   1.536   5.563 -0.5454 -0.7522  0.8864
   77MOL    H6147333   6.252   1.394   5.454  1.1373 -2.3298  0.9756
   77MOL    H6247334   5.844   0.667   5.437 -0.0988  0.0190  0.9381
   77MOL    H6347335   5.982   0.602   5.530 -0.0320 -0.0094 -2.0839
   77MOL    C6447336   5.839   0.458   5.468  0.4906  0.0826 -0.1388
   77MOL    O6547337   5.862   0.361   5.572  0.1095 -0.7021 -0.0244
   77MOL    C6647338   5.759   0.254   5.563  0.0878  0.5723  0.3723
   77MOL    C6747339   5.624   0.279   5.620 -0.4408  0.3303  0.0671
   77MOL    C6847340   5.617   0.317   5.770  0.2677  0.0355 -0.2846
   77MOL    C6947341   5.568   0.205   5.858 -0.4137  0.1948  0.5066
   77MOL    C7047342   5.580   0.229   6.014  0.1707 -0.0843  0.7411
   77MOL    C7147343   5.723   0.251   6.071  0.1378 -0.1994  0.5965
   77MOL    C7247344   5.748   0.234   6.221  0.6081  0.4150  0.4533
   77MOL    C7347345   5.704   0.353   6.304  0.0207  0.6149 -0.3673
   77MOL    C7447346   5.921   0.417   5.343 -0.2071 -0.4480 -0.0316
   77MOL    H7547347   5.734   0.451   5.440  0.8860 -2.2333 -1.1197
   77MOL    H7647348   5.796   0.155   5.589 -2.2242 -0.8564 -1.5760
   77MOL    H7747349   5.746   0.236   5.457 -2.0943  1.8977  0.3835
   77MOL    H7847350   5.562   0.190   5.607 -4.0505  2.2783  3.0802
   77MOL    H7947351   5.573   0.354   5.560  0.6253  1.9336  1.1305
   77MOL    H8047352   5.713   0.352   5.810 -0.0268  0.0036  0.4514
   77MOL    H8147353   5.556   0.406   5.783 -0.3510 -0.3976 -0.2531
   77MOL    H8247354   5.465   0.173   5.841  0.5782 -2.0330 -1.6989
   77MOL    H8347355   5.631   0.119   5.834  0.4411  0.6825  0.9768
   77MOL    H8447356   5.497   0.292   6.048  1.6567  1.2936  1.8772
   77MOL    H8547357   5.551   0.133   6.056 -1.2838 -0.3058 -0.7109
   77MOL    H8647358   5.752   0.355   6.053  0.9380 -0.6785 -0.9744
   77MOL    H8747359   5.796   0.195   6.013 -0.4964 -0.8238  0.3946
   77MOL    H8847360   5.705   0.142   6.262  0.4603 -0.5100 -1.7008
   77MOL    H8947361   5.855   0.216   6.238  0.8353  0.6476 -0.6437
   77MOL    H9047362   5.630   0.410   6.249  0.6581  0.7705 -1.0768
   77MOL    H9147363   5.778   0.433   6.312 -0.3001  1.1920 -2.8190
   77MOL    H9247364   5.670   0.332   6.405 -3.5457  1.7991 -1.2530
   77MOL    H9347365   6.022   0.451   5.367 -0.4383  0.5171 -0.4176
   77MOL    H9447366   5.923   0.308   5.343  2.2399 -0.4746  2.3573
   77MOL    C9547367   5.870   0.472   5.211 -0.0690 -0.3352 -0.4513
   77MOL    O9647368   5.732   0.447   5.210  0.0649 -0.8996  0.5481
   77MOL    C9747369   5.651   0.563   5.202  0.6533  0.5862  0.1336
   77MOL    C9847370   5.508   0.506   5.220  0.2622  0.1564 -0.4392
   77MOL    C9947371   5.452   0.437   5.090  0.3675 -0.3163 -0.0671
   77MOL   C10047372   5.315   0.362   5.120  0.0056  0.0189  0.3727
   77MOL   C10147373   5.253   0.310   4.989 -0.1282  0.5074  0.4449
   77MOL   C10247374   5.107   0.267   5.006 -0.0853 -0.7709 -0.1276
   77MOL   C10347375   5.032   0.254   4.867 -0.1597 -0.1461  0.2423
   77MOL   C10447376   4.973   0.377   4.799 -0.0407 -0.2643  0.3468
   77MOL   C10547377   5.938   0.417   5.089  0.8663  0.0819 -0.1249
   77MOL   H10647378   5.883   0.580   5.206  0.3747 -0.2248  2.2267
   77MOL   H10747379   5.654   0.615   5.106 -0.3132  2.0478  0.8731
   77MOL   H10847380   5.673   0.627   5.288 -0.1028 -0.2725  0.9828
   77MOL   H10947381   5.445   0.590   5.251  0.6070  0.8113 -1.4742
   77MOL   H11047382   5.501   0.438   5.305  0.0012 -0.6679 -1.1274
   77MOL   H11147383   5.446   0.510   5.008 -0.6001  0.1637  0.4130
   77MOL   H11247384   5.518   0.355   5.061 -1.2264 -1.4502 -0.5633
   77MOL   H11347385   5.334   0.282   5.191  0.6329 -1.7056 -1.6904
   77MOL   H11447386   5.251   0.432   5.173 -0.4803 -0.6934  0.7321
   77MOL   H11547387   5.271   0.388   4.915 -0.9359  0.9884  0.7534
   77MOL   H11647388   5.308   0.231   4.937 -0.0805  0.9674 -0.2173
   77MOL   H11747389   5.065   0.344   5.070  1.1120 -0.2840  0.0880
   77MOL   H11847390   5.109   0.173   5.062  2.0239  0.8402  2.6192
   77MOL   H11947391   5.089   0.198   4.793  0.1962 -0.1354  0.5085
   77MOL   H12047392   4.946   0.186   4.864 -0.4387  0.2501 -1.0552
   77MOL   H12147393   4.892   0.428   4.851 -0.6238  0.7895 -1.5601
   77MOL   H12247394   4.943   0.363   4.696  0.6277  0.0474  0.1080
   77MOL   H12347395   5.056   0.447   4.792 -1.1791  1.0832 -0.0418
   77MOL   H12447396   5.923   0.309   5.098 -1.0197  0.5053  2.6032
   77MOL   H12547397   5.881   0.453   5.003  0.3833  1.2362  0.6649
   77MOL   C12647398   6.089   0.440   5.067  0.1084 -0.1858  0.0671
   77MOL   O12747399   6.101   0.582   5.047 -0.2327  0.0072  0.3303
   77MOL   C12847400   6.201   0.642   5.123  0.3889  1.3596 -0.6014
   77MOL   C12947401   6.215   0.786   5.088 -0.1342  0.1738  1.0119
   77MOL   C13047402   6.098   0.855   5.158  0.0674  0.4458  0.2778
   77MOL   C13147403   6.090   1.008   5.127  0.5089  0.5645 -0.2349
   77MOL   C13247404   6.060   1.038   4.979 -0.2175 -0.0644  0.0740
   77MOL   C13347405   6.012   1.182   4.950  0.1221  0.2354 -0.7971
   77MOL   C13447406   6.032   1.228   4.798  0.0262 -0.0649 -0.1672
   77MOL   C13547407   6.170   1.290   4.767 -0.6365  0.2383 -0.2613
   77MOL   C13647408   6.159   0.354   4.952  0.1463  0.2875  0.5147
   77MOL   H13747409   6.132   0.416   5.165 -1.4909 -0.6329  0.6782
   77MOL   H13847410   6.292   0.591   5.091 -0.5078 -2.1342  2.1360
   77MOL   H13947411   6.197   0.619   5.229  1.1321 -0.9675 -1.0471
   77MOL   H14047412   6.216   0.803   4.980 -1.1198 -1.7739  0.6766
   77MOL   H14147413   6.301   0.836   5.134 -0.1849  0.1567  1.1252
   77MOL   H14247414   6.007   0.800   5.133  0.5038 -1.0321  1.8661
   77MOL   H14347415   6.098   0.843   5.266 -0.6634  1.3552  0.3934
   77MOL   H14447416   6.005   1.047   5.182  1.9426 -1.5133  3.6031
   77MOL   H14547417   6.169   1.059   5.181 -1.7642  1.5389  2.2711
   77MOL   H14647418   6.157   1.029   4.931 -1.1313 -0.3425 -1.7797
   77MOL   H14747419   5.993   0.964   4.936 -1.1945  0.3742  0.8094
   77MOL   H14847420   6.059   1.260   5.010  1.9853 -0.2199 -1.6256
   77MOL   H14947421   5.908   1.175   4.982  0.8380 -0.8504  1.3480
   77MOL   H15047422   6.030   1.142   4.730 -2.5904 -1.3757  1.4748
   77MOL   H15147423   5.956   1.298   4.763 -1.0286 -0.5710  1.0804
   77MOL   H15247424   6.182   1.349   4.677  1.1646  1.1312  0.5450
   77MOL   H15347425   6.243   1.210   4.770 -0.1410  0.5656 -2.8853
   77MOL   H15447426   6.202   1.360   4.845  0.0579  0.9244 -1.1544
   77MOL   H15547427   6.127   0.388   4.854  0.2761 -1.5261 -0.1762
   77MOL   H15647428   6.262   0.389   4.959  1.0583 -2.2770  0.2940
   77MOL   C15747429   6.160   0.195   4.970  0.7601  0.2677  0.0923
   77MOL   O15847430   6.023   0.151   4.986  0.3213 -0.0217 -0.5240
   77MOL   C15947431   5.959   0.102   4.869  0.8452  0.3105  0.0329
   77MOL   C16047432   5.814   0.128   4.893  1.4519 -1.2290 -0.1230
   77MOL   C16147433   5.722   0.043   4.806 -0.0678  0.6492  0.3334
   77MOL   C16247434   5.582   0.099   4.777  1.1572  0.4443  0.1208
   77MOL   C16347435   5.567   0.202   4.655  0.0760 -0.2422  0.4095
   77MOL   C16447436   5.421   0.241   4.637  0.1479 -0.4790  0.2391
   77MOL   C16547437   5.408   0.327   4.506  1.3506 -0.3158  0.2314
   77MOL   C16647438   5.265   0.371   4.483  0.2870  0.0299  0.0854
   77MOL   C16747439   6.241   0.138   5.087  0.3660  0.2126  0.5546
   77MOL   H16847440   6.206   0.167   4.876 -1.6944  0.8930 -1.3464
   77MOL   H16947441   5.984   7.770   4.859 -0.9640 -0.2198  0.8182
   77MOL   H17047442   5.992   0.153   4.779 -0.2446  0.0977 -0.4983
   77MOL   H17147443   5.803   0.235   4.880  0.8126 -1.2084  0.5937
   77MOL   H17247444   5.784   0.112   4.996 -1.4717 -0.4926 -0.8332
   77MOL   H17347445   5.772   0.018   4.713 -0.9481 -0.0685  0.0430
   77MOL   H17447446   5.714   7.723   4.861  0.8875 -0.2810 -1.0947
   77MOL   H17547447   5.513   0.016   4.759 -0.3159  1.9963 -1.6530
   77MOL   H17647448   5.548   0.142   4.871 -0.7130 -0.4854 -0.1157
   77MOL   H17747449   5.628   0.287   4.686 -0.3291 -0.3861  1.6320
   77MOL   H17847450   5.614   0.149   4.572 -0.1649  0.5351 -0.2279
   77MOL   H17947451   5.392   0.308   4.718 -0.2565  0.4165 -0.6291
   77MOL   H18047452   5.346   0.161   4.640  1.1084 -1.3672  0.9219
   77MOL   H18147453   5.470   0.416   4.501 -0.0524  0.5912 -1.4403
   77MOL   H18247454   5.443   0.266   4.423 -1.6310 -1.5091 -0.2215
   77MOL   H18347455   5.238   0.398   4.381  1.6646 -0.9046 -0.5507
   77MOL   H18447456   5.243   0.451   4.554 -0.5916 -1.4842  1.5354
   77MOL   H18547457   5.190   0.296   4.504  0.4100 -0.3316 -0.7621
   77MOL   H18647458   6.348   0.143   5.068 -0.0252 -1.2279 -2.3384
   77MOL   H18747459   6.219   0.190   5.180  2.5614  2.2586 -0.0294
   77MOL   C18847460   6.220   7.757   5.087 -0.2700 -1.2287  0.0096
   77MOL   O18947461   6.302   7.686   5.185 -0.1187 -0.3707  0.0722
   77MOL   C19047462   6.267   7.717   5.322 -0.1820  0.4458  0.1346
   77MOL   C19147463   6.375   7.668   5.419 -0.4762 -0.2973 -0.1823
   77MOL   C19247464   6.406   7.520   5.405 -0.6471 -0.0608 -0.0014
   77MOL   C19347465   6.535   7.463   5.475 -0.0941  0.2235 -0.6183
   77MOL   C19447466   6.530   7.315   5.489  0.3844  1.0927 -0.1160
   77MOL   C19547467   6.650   7.244   5.560  0.9062 -0.0958  0.5096
   77MOL   C19647468   6.643   7.270   5.714 -0.0246  0.1621  0.3188
   77MOL   C19747469   6.757   7.198   5.782  0.5648  0.3660 -0.0730
   77MOL   C19847470   6.253   7.679   4.955 -0.6424  0.3338  0.4970
   77MOL   H19947471   6.118   7.742   5.123 -0.2118  0.3979  0.8796
   77MOL   H20047472   6.243   0.049   5.330  0.0429  0.5740 -0.8413
   77MOL   H20147473   6.171   7.675   5.350  0.1361 -0.9195 -0.7521
   77MOL   H20247474   6.347   7.693   5.521 -0.1868 -0.9681  0.0652
   77MOL   H20347475   6.461   7.727   5.385 -2.1292  1.4898 -1.3806
   77MOL   H20447476   6.318   7.462   5.434 -0.6317 -0.2034 -0.2402
   77MOL   H20547477   6.417   7.480   5.305 -0.2444  0.9758 -0.3756
   77MOL   H20647478   6.621   7.494   5.416  1.1353  0.8480  1.4503
   77MOL   H20747479   6.560   7.516   5.567 -1.8775  0.5443 -0.2836
   77MOL   H20847480   6.434   7.291   5.535  0.4245  0.4120 -0.3858
   77MOL   H20947481   6.528   7.284   5.385  0.1418 -0.2813  0.2937
   77MOL   H21047482   6.741   7.281   5.514 -0.0436  1.5556 -0.0814
   77MOL   H21147483   6.644   7.142   5.521 -1.4284 -0.0938  0.8089
   77MOL   H21247484   6.662   7.377   5.728  0.4123  0.6823 -3.4938
   77MOL   H21347485   6.544   7.247   5.752  0.9935  0.1460  3.0754
   77MOL   H21447486   6.751   7.089   5.787 -2.3965  0.5449  1.2986
   77MOL   H21547487   6.772   7.245   5.879 -1.4480  1.2407 -0.1709
   77MOL   H21647488   6.850   7.224   5.732 -0.8422  0.1658 -2.9136
   77MOL   H21747489   6.221   7.731   4.865 -1.2528 -1.4759 -0.3534
   77MOL   H21847490   6.361   7.694   4.954 -0.4766 -0.5401 -4.2462
   77MOL   C21947491   6.227   7.529   4.937  0.3180 -0.0365  0.1986
   77MOL   O22047492   6.284   7.493   4.811  0.3706  0.1536  0.7904
   77MOL   C22147493   6.343   7.361   4.821 -0.5788 -0.2083 -0.1482
   77MOL   C22247494   6.405   7.324   4.689  0.3231  0.4830  0.0598
   77MOL   C22347495   6.470   7.192   4.694  0.2442  0.0162 -0.1055
   77MOL   C22447496   6.530   7.147   4.565 -0.3696  0.1283 -0.0075
   77MOL   C22547497   6.424   7.106   4.467 -0.4508 -0.2181  1.2635
   77MOL   C22647498   6.482   7.029   4.344 -0.3894 -0.4912 -0.1213
   77MOL   C22747499   6.381   6.948   4.266  0.1068  0.5203  0.1765
   77MOL   C22847500   6.433   6.867   4.150  0.7041 -0.5876 -0.6943
   77MOL   C22947501   6.076   7.511   4.938 -0.1942 -0.0682  0.2233
   77MOL   H23047502   6.265   7.485   5.029 -1.9398 -2.7059 -0.0982
   77MOL   H23147503   6.273   7.282   4.848 -0.5338 -0.4745 -0.7984
   77MOL   H23247504   6.421   7.361   4.897 -1.1374  1.2488  0.4333
   77MOL   H23347505   6.483   7.396   4.663 -0.0688  0.6555 -0.6529
   77MOL   H23447506   6.332   7.330   4.608 -1.4512  0.8812  1.6355
   77MOL   H23547507   6.559   7.194   4.757  0.1161 -1.8768  0.1812
   77MOL   H23647508   6.406   7.111   4.730 -0.2334  2.1742  4.2935
   77MOL   H23747509   6.599   7.220   4.523  0.1604 -1.4629 -1.9507
   77MOL   H23847510   6.596   7.064   4.592  2.4484  2.6168  0.9544
   77MOL   H23947511   6.356   7.036   4.517  0.8079 -2.6017 -0.2758
   77MOL   H24047512   6.361   7.186   4.429  0.0411 -0.6149 -0.4518
   77MOL   H24147513   6.562   6.963   4.377 -0.5026  0.0889  1.3625
   77MOL   H24247514   6.529   7.108   4.285  0.0205  0.2472  1.1684
   77MOL   H24347515   6.327   6.886   4.337  0.9476  2.3169  2.4344
   77MOL   H24447516   6.313   7.025   4.232 -0.9897  0.1602  1.5022
   77MOL   H24547517   6.514   6.802   4.184 -1.1193 -0.7116  3.8320
   77MOL   H24647518   6.469   6.925   4.066 -0.6067  0.5498 -0.4941
   77MOL   H24747519   6.360   6.794   4.115  1.3751  0.1642 -3.8049
   77MOL   H24847520   6.030   7.594   4.992 -1.7943 -0.5610 -0.3826
   77MOL   H24947521   6.046   7.537   4.837  2.4491  1.4120 -0.2512
   77MOL   C25047522   6.021   7.390   5.020 -0.3007  0.0682 -0.4882
   77MOL   O25147523   5.882   7.383   5.009 -0.1213 -0.7240 -0.2648
   77MOL   C25247524   5.835   7.332   4.886  0.4854 -0.3668  0.4772
   77MOL   C25347525   5.856   7.185   4.872  1.0543  0.3206  0.8059
   77MOL   C25447526   5.782   7.146   4.743  0.5048 -0.2827 -0.5519
   77MOL   C25547527   5.768   6.996   4.716  0.4456  0.2651  0.3011
   77MOL   C25647528   5.685   6.958   4.592  0.2251  0.4225  0.3328
   77MOL   C25747529   5.699   6.808   4.564 -0.5468 -0.6017  0.2350
   77MOL   C25847530   5.619   6.762   4.438  0.0305 -0.8681  0.1915
   77MOL   C25947531   5.631   6.615   4.416  0.3387  0.5854 -0.1814
   77MOL   C26047532   6.063   7.390   5.161  0.5144 -0.2206 -0.4020
   77MOL   H26147533   6.077   7.309   4.974  1.3967 -0.5020  2.4872
   77MOL   H26247534   5.873   7.381   4.797 -0.2712 -1.8120 -0.6783
   77MOL   H26347535   5.728   7.353   4.894  0.3164 -0.6978 -0.8072
   77MOL   H26447536   5.810   7.125   4.951  1.6631 -1.2094  0.0001
   77MOL   H26547537   5.960   7.155   4.874  1.2538  0.9434 -0.0595
   77MOL   H26647538   5.677   7.174   4.751  0.6832 -0.0264  1.0326
   77MOL   H26747539   5.832   7.190   4.657  0.3634 -0.0057 -0.4924
   77MOL   H26847540   5.872   6.963   4.717  1.4307  3.2718  1.7976
   77MOL   H26947541   5.716   6.946   4.798 -0.4250 -0.4360 -0.6555
   77MOL   H27047542   5.581   6.986   4.603 -0.0640  0.0581 -1.3316
   77MOL   H27147543   5.725   7.000   4.500  1.1464 -1.1763 -0.0297
   77MOL   H27247544   5.654   6.756   4.649  1.4133 -0.0371  1.6434
   77MOL   H27347545   5.796   6.759   4.568  0.2375  0.9186 -0.1957
   77MOL   H27447546   5.511   6.779   4.440  0.2817  1.0575 -1.2379
   77MOL   H27547547   5.653   6.818   4.351 -1.1825 -0.5773 -0.1009
   77MOL   H27647548   5.545   6.580   4.358  0.3435  0.5799 -0.1850
   77MOL   H27747549   5.622   6.562   4.511 -0.7112  1.8728  0.4548
   77MOL   H27847550   5.731   6.591   4.380  1.2054 -1.3082  3.2223
   77MOL   H27947551   6.137   7.466   5.185  1.0852 -1.3686  1.6621
   77MOL   H28047552   5.979   7.409   5.229  1.3174 -4.2173  1.8320
   77MOL   C28147553   6.128   7.262   5.215  0.7897 -0.1491 -0.2996
   77MOL   O28247554   6.250   7.246   5.140 -0.3196  0.0832  0.4868
   77MOL   C28347555   6.345   7.146   5.195  0.9446  0.6776 -0.5253
   77MOL   C28447556   6.476   7.160   5.116  0.1034  0.0126 -0.3948
   77MOL   C28547557   6.597   7.068   5.160  0.0707  0.3313 -0.0991
   77MOL   C28647558   6.678   7.041   5.039 -0.6799  0.2332  0.6057
   77MOL   C28747559   6.798   6.954   5.063 -0.0945  0.8354 -0.2597
   77MOL   C28847560   6.895   6.963   4.947 -0.2345  0.1517 -0.1446
   77MOL   C28947561   7.024   6.878   4.967 -1.0884  0.2457  0.5933
   77MOL   C29047562   7.150   6.924   4.890  0.3812  0.5596 -0.4430
   77MOL   C29147563   6.030   7.141   5.213 -0.0335 -0.4631 -0.3094
   77MOL   H29247564   6.162   7.283   5.317  1.5940 -2.5873 -0.0255
   77MOL   H29347565   6.295   7.050   5.181  1.9789  0.0532  0.0051
   77MOL   H29447566   6.353   7.167   5.302 -2.9269  1.2797 -0.2552
   77MOL   H29547567   6.515   7.260   5.131  0.1101 -0.1149  0.5041
   77MOL   H29647568   6.455   7.134   5.013 -1.3095 -1.1991  0.1689
   77MOL   H29747569   6.651   7.100   5.249 -0.1396 -1.0223  0.5325
   77MOL   H29847570   6.556   6.976   5.202  1.9246 -0.0208  0.9994
   77MOL   H29947571   6.618   6.997   4.959 -0.0134  3.4134 -1.7693
   77MOL   H30047572   6.704   7.136   4.991  0.5545 -0.3892  0.0307
   77MOL   H30147573   6.852   6.994   5.148  0.0169 -0.4340  0.2797
   77MOL   H30247574   6.755   6.859   5.094 -1.8986  2.9603  4.1399
   77MOL   H30347575   6.919   7.067   4.926 -1.6191  0.4595 -0.2631
   77MOL   H30447576   6.848   6.932   4.853 -0.9357  0.5412  0.0682
   77MOL   H30547577   7.045   6.879   5.074 -1.0581  2.0596  0.5800
   77MOL   H30647578   7.005   6.775   4.937  0.4395 -0.2975  1.4008
   77MOL   H30747579   7.166   7.030   4.912 -0.5614  0.7855 -0.8180
   77MOL   H30847580   7.124   6.909   4.786  0.2702  1.4538 -0.5488
   77MOL   H30947581   7.239   6.864   4.911  0.7109  0.4200 -2.2183
   77MOL   H31047582   5.941   7.169   5.156  0.8367 -0.4886 -1.7079
   77MOL   H31147583   6.073   7.067   5.145 -0.4412  0.3504 -1.4625
   77MOL   C31247584   5.987   7.092   5.349  0.0446  0.0605 -0.5932
   77MOL   O31347585   6.110   7.032   5.389 -0.1667 -0.2129  0.3614
   77MOL   C31447586   6.137   7.022   5.528 -0.2275 -0.3857 -0.6072
   77MOL   C31547587   6.269   6.943   5.540  0.1264 -1.1411  0.7127
   77MOL   C31647588   6.327   6.944   5.687  0.7966 -0.0162  0.6442
   77MOL   C31747589   6.439   6.846   5.714 -0.1680 -0.0434 -0.1718
   77MOL   C31847590   6.575   6.864   5.638  0.1403 -0.0737 -0.0333
   77MOL   C31947591   6.692   6.789   5.709  0.7637 -0.0696 -0.6254
   77MOL   C32047592   6.818   6.800   5.626 -0.6166  0.4757  0.8021
   77MOL   C32147593   6.946   6.769   5.711  0.2780  0.5272  0.4715
   77MOL   C32247594   5.868   6.995   5.340  0.5234 -0.6524  0.1242
   77MOL   H32347595   5.962   7.165   5.426 -1.1086 -0.4080 -0.5246
   77MOL   H32447596   6.060   6.959   5.573 -0.3134 -0.1646 -0.4463
   77MOL   H32547597   6.126   7.122   5.570  0.1547 -0.8920  0.7199
   77MOL   H32647598   6.345   6.979   5.472 -1.9110 -1.9468 -2.0727
   77MOL   H32747599   6.236   6.841   5.517 -0.8159 -0.8482  0.7595
   77MOL   H32847600   6.373   7.043   5.696  1.0826 -0.2871  2.4174
   77MOL   H32947601   6.249   6.936   5.762 -0.0796  0.5482 -0.2045
   77MOL   H33047602   6.457   6.829   5.820 -2.4289  1.5652  0.5171
   77MOL   H33147603   6.403   6.749   5.681  1.3984  0.1763 -2.6198
   77MOL   H33247604   6.573   6.819   5.539  0.8460  2.1874 -1.0945
   77MOL   H33347605   6.593   6.970   5.626  0.6797 -0.4927 -3.3424
   77MOL   H33447606   6.655   6.689   5.736  0.8484 -0.3407 -1.5100
   77MOL   H33547607   6.708   6.836   5.806  1.5203 -0.4469 -0.5693
   77MOL   H33647608   6.818   6.732   5.541  1.3290  0.0083  1.1602
   77MOL   H33747609   6.818   6.903   5.591 -0.3049  1.4867  3.6917
   77MOL   H33847610   6.958   6.840   5.792 -0.2205  1.7687 -0.5302
   77MOL   H33947611   7.027   6.753   5.639 -0.9211  0.3611 -0.8663
   77MOL   H34047612   6.937   6.668   5.751 -0.7698  0.4071 -0.0574
   77MOL   H34147613   5.849   6.953   5.241  0.0217  0.9628 -0.4952
   77MOL   H34247614   5.883   6.902   5.395  1.7636 -1.2890 -1.2671
   77MOL   C34347615   5.733   7.052   5.397 -0.1669 -0.6941 -0.1952
   77MOL   O34447616   5.739   7.071   5.536 -0.2076 -0.4111  0.0898
   77MOL   C34547617   5.694   7.198   5.581 -0.2469  0.7431 -0.4262
   77MOL   C34647618   5.539   7.209   5.589  0.1664  0.8386  0.4436
   77MOL   C34747619   5.471   7.105   5.684  0.0869 -0.5427 -0.6614
   77MOL   C34847620   5.321   7.125   5.694 -0.6594  0.4731  0.2442
   77MOL   C34947621   5.272   7.250   5.772  0.2745  0.0975  0.9111
   77MOL   C35047622   5.127   7.238   5.804 -0.0084  0.2088  0.1868
   77MOL   C35147623   5.034   7.284   5.694  0.4667 -0.6227  0.3279
   77MOL   C35247624   4.878   7.260   5.710  0.1135  0.4250 -0.6703
   77MOL   C35347625   5.621   6.946   5.367 -0.1424 -0.7579 -0.0591
   77MOL   H35447626   5.712   7.145   5.344  0.1874 -0.7025 -0.3554
   77MOL   H35547627   5.732   7.278   5.517  2.9119  0.0427  0.5375
   77MOL   H35647628   5.729   7.201   5.684  1.7177  0.0403 -1.0570
   77MOL   H35747629   5.501   7.199   5.487  0.4449 -0.6051  0.4628
   77MOL   H35847630   5.530   7.309   5.630  1.6439 -0.5627  4.4218
   77MOL   H35947631   5.490   7.004   5.646 -0.7972 -1.5204  1.4105
   77MOL   H36047632   5.514   7.114   5.783  0.4427  4.0785 -1.1542
   77MOL   H36147633   5.265   7.116   5.601  0.8544 -2.1534 -0.4463
   77MOL   H36247634   5.276   7.048   5.756  0.6216 -0.5006 -0.0095
   77MOL   H36347635   5.336   7.255   5.860  0.9927 -0.7968  0.4509
   77MOL   H36447636   5.292   7.350   5.731  0.5979 -0.3281  0.0025
   77MOL   H36547637   5.118   7.314   5.882  2.4969  0.3746  0.3779
   77MOL   H36647638   5.103   7.143   5.851  1.4051 -0.0634  0.3948
   77MOL   H36747639   5.060   7.389   5.680  0.4514 -0.4280  1.6547
   77MOL   H36847640   5.052   7.225   5.605 -0.2595 -3.4101  1.9745
   77MOL   H36947641   4.828   7.295   5.620 -1.4856  0.8015  0.3414
   77MOL   H37047642   4.844   7.314   5.799 -0.0664  0.0681 -0.5209
   77MOL   H37147643   4.846   7.156   5.718  1.6091  0.1015  1.6074
   77MOL   H37247644   5.667   6.851   5.393 -2.1546 -2.0738 -1.1835
   77MOL   H37347645   5.537   6.959   5.436  0.2907 -2.8192  0.9003
   77MOL   C37447646   5.559   6.952   5.222 -0.1890 -0.8104 -0.3403
   77MOL   O37547647   5.480   7.070   5.199 -0.1240 -0.3902  0.3791
   77MOL   C37647648   5.533   7.160   5.100  1.0910  0.3705 -0.5825
   77MOL   C37747649   5.441   7.276   5.080  0.9319  0.1160  0.9595
   77MOL   C37847650   5.429   7.370   5.202  0.1228 -0.1220  0.1774
   77MOL   C37947651   5.556   7.451   5.233  0.5255 -0.2470  0.4687
   77MOL   C38047652   5.531   7.574   5.323 -0.7237  0.2052  0.4678
   77MOL   C38147653   5.663   7.648   5.344 -0.5577 -0.4948  0.8797
   77MOL   C38247654   5.705   7.757   5.242  0.0298  0.4423 -0.2737
   77MOL   C38347655   5.605   0.099   5.238  0.6564  0.0125 -0.3918
   77MOL   C38447656   5.475   6.837   5.194  0.3497 -0.0331 -0.5483
   77MOL   H38547657   5.634   6.943   5.143 -1.3087 -0.7107 -1.4336
   77MOL   H38647658   5.532   7.110   5.003 -0.1773  0.3861 -0.5775
   77MOL   H38747659   5.638   7.183   5.120  0.0508  2.8814  2.5708
   77MOL   H38847660   5.341   7.232   5.072  1.0096  0.3356 -1.7521
   77MOL   H38947661   5.451   7.338   4.991  1.0929 -0.3105  0.6811
   77MOL   H39047662   5.355   7.449   5.191  1.9888  1.5620 -0.5905
   77MOL   H39147663   5.409   7.313   5.292  1.4517  0.5501  0.9225
   77MOL   H39247664   5.630   7.384   5.278  0.7580 -0.3829 -0.1084
   77MOL   H39347665   5.592   7.496   5.140  0.3675  0.2855  0.6686
   77MOL   H39447666   5.461   7.646   5.281 -1.1774  0.8240  2.2411
   77MOL   H39547667   5.482   7.555   5.418 -0.1811 -0.9729  0.5211
   77MOL   H39647668   5.739   7.571   5.337 -0.0499  0.0528  0.2275
   77MOL   H39747669   5.671   7.691   5.444 -0.3433  0.8171  0.3157
   77MOL   H39847670   5.807   0.014   5.264  0.2227 -0.6097  0.3667
   77MOL   H39947671   5.711   7.703   5.147 -0.7041  0.5437 -0.3795
   77MOL   H40047672   5.553   0.125   5.330 -0.3789  2.6466 -1.6449
   77MOL   H40147673   5.530   0.068   5.166  1.1672 -1.6027 -0.2534
   77MOL   H40247674   5.650   0.191   5.199  0.7456  0.8526  1.6255
   77MOL   H40347675   5.429   6.847   5.095 -0.3677 -0.0333 -0.2171
   77MOL   H40447676   5.537   6.748   5.200  0.5345 -0.0189 -2.0167
   77MOL   C40547677   5.352   6.806   5.289 -0.2751  0.3684 -0.0469
   77MOL   O40647678   5.403   6.739   5.404  0.9627  0.3391 -0.7770
   77MOL   C40747679   5.330   6.749   5.527  0.5829 -0.5189 -0.3951
   77MOL   C40847680   5.400   6.671   5.636  0.4057  0.4198 -0.0847
   77MOL   C40947681   5.341   6.684   5.778  0.2100  0.2723 -0.9267
   77MOL   C41047682   5.435   6.625   5.877  0.5349  0.5598 -0.9770
   77MOL   C41147683   5.361   6.623   6.012 -0.5938 -0.9489  0.4709
   77MOL   C41247684   5.442   6.567   6.131  0.1661 -0.1479  0.4818
   77MOL   C41347685   5.500   6.427   6.109  0.6746 -0.3880  1.1497
   77MOL   C41447686   5.593   6.383   6.228 -0.5136 -0.8833 -0.0906
   77MOL   C41547687   5.244   6.724   5.226  0.0093 -0.2121 -0.0705
   77MOL   H41647688   5.305   6.895   5.330 -1.9567 -0.9606  0.9974
   77MOL   H41747689   5.231   6.705   5.517  0.4521 -0.0244 -1.3906
   77MOL   H41847690   5.315   6.855   5.549 -0.0040 -0.5450 -0.6643
   77MOL   H41947691   5.502   6.710   5.645  0.8124 -0.1274 -2.1429
   77MOL   H42047692   5.404   6.565   5.608 -1.8022  0.8979 -2.3874
   77MOL   H42147693   5.319   6.789   5.799 -2.8190 -0.6029  0.4772
   77MOL   H42247694   5.254   6.620   5.784  2.0144 -2.1157  0.8001
   77MOL   H42347695   5.457   6.522   5.848 -0.5652  0.0037  0.1219
   77MOL   H42447696   5.526   6.685   5.879  1.5930 -1.0708  1.1327
   77MOL   H42547697   5.345   6.727   6.042  0.7943 -1.6530  3.9508
   77MOL   H42647698   5.269   6.565   6.014 -1.9976  1.1849  3.8442
   77MOL   H42747699   5.389   6.571   6.226 -1.0866 -0.6421 -0.1786
   77MOL   H42847700   5.525   6.637   6.133  1.1233 -1.1101 -2.6305
   77MOL   H42947701   5.416   6.356   6.110  1.1280 -0.9318  0.8478
   77MOL   H43047702   5.553   6.428   6.014 -1.2673  2.3089  0.0314
   77MOL   H43147703   5.534   6.374   6.319  0.0305  0.5519  0.4202
   77MOL   H43247704   5.675   6.454   6.240 -0.2003 -0.5497 -3.6368
   77MOL   H43347705   5.630   6.286   6.197 -2.4809 -0.7572 -3.1370
   77MOL   H43447706   5.293   6.654   5.158 -1.1831 -1.8025  0.6763
   77MOL   H43547707   5.195   6.655   5.295  0.2727  1.0341  1.4019
   77MOL   C43647708   5.139   6.803   5.144  0.8878  0.5117 -0.6938
   77MOL   O43747709   5.093   6.899   5.236 -0.0223 -0.0077 -0.3841
   77MOL   C43847710   5.110   7.031   5.186  0.6008  0.1046 -0.5922
   77MOL   C43947711   5.033   7.123   5.284  0.0849 -0.9588  0.2262
   77MOL   C44047712   5.014   7.265   5.223  0.0926 -0.3701  0.4115
   77MOL   C44147713   4.961   7.371   5.325  0.1974 -0.2499 -0.3204
   77MOL   C44247714   4.929   7.504   5.252  1.1107  0.1201 -0.2034
   77MOL   C44347715   4.841   7.603   5.333  0.1717 -0.7258 -0.3455
   77MOL   C44447716   4.828   7.737   5.259  0.1372 -0.4584 -0.8577
   77MOL   C44547717   4.753   0.082   5.321 -0.1578 -0.9504  0.1679
   77MOL   C44647718   5.022   6.717   5.088 -0.3540 -0.2307  0.4453
   77MOL   H44747719   5.191   6.855   5.063  1.8331  1.7153  0.6557
   77MOL   H44847720   5.217   7.049   5.175  1.0507 -0.0023  3.1283
   77MOL   H44947721   5.068   7.044   5.086  1.6366 -0.5590 -1.1195
   77MOL   H45047722   5.076   7.138   5.383  0.3821 -1.2225  0.1347
   77MOL   H45147723   4.935   7.089   5.319  0.6592 -2.5456  0.3025
   77MOL   H45247724   5.109   7.298   5.179 -1.4833  2.3307 -1.0523
   77MOL   H45347725   4.942   7.265   5.142 -1.8285 -0.2023  2.0953
   77MOL   H45447726   4.872   7.341   5.382  1.1022 -0.2670  1.1165
   77MOL   H45547727   5.046   7.389   5.391 -0.5779  0.1833  0.5796
   77MOL   H45647728   5.024   7.550   5.226  0.2804  0.4295 -2.7585
   77MOL   H45747729   4.875   7.489   5.158 -0.3708 -0.4317  0.7168
   77MOL   H45847730   4.892   7.625   5.427 -1.6564  0.4513  0.4010
   77MOL   H45947731   4.743   7.558   5.348 -0.0221 -0.3706 -0.5370
   77MOL   H46047732   4.934   7.761   5.253 -0.0859  0.5988 -0.5915
   77MOL   H46147733   4.785   7.723   5.160  2.3295 -0.7151 -1.8081
   77MOL   H46247734   4.820   0.136   5.388  2.3325 -2.3071 -1.1586
   77MOL   H46347735   4.677   0.038   5.385 -2.3008 -0.0954 -1.7268
   77MOL   H46447736   4.716   0.156   5.250  1.0982  0.2038  0.7027
   77MOL   H46547737   4.967   6.665   5.166  1.5623 -2.6833  0.2430
   77MOL   H46647738   4.961   6.791   5.037  1.0702  1.4708  1.1503
   77MOL   C46747739   5.059   6.603   4.983 -0.8336  0.2729  0.1049
   77MOL   O46847740   5.122   6.682   4.885  0.2559 -0.1598  0.1009
   77MOL   C46947741   5.214   6.611   4.805  1.1008  0.4209 -0.1276
   77MOL   C47047742   5.347   6.585   4.867 -0.2920 -0.3783  0.5965
   77MOL   C47147743   5.454   6.531   4.774  0.7098 -0.2524  0.3206
   77MOL   C47247744   5.584   6.481   4.841 -0.0472  0.1178  0.0517
   77MOL   C47347745   5.648   6.589   4.927  0.2376 -0.0829  0.1065
   77MOL   C47447746   5.782   6.554   4.990  0.3271  0.6355  0.1640
   77MOL   C47547747   5.844   6.683   5.060  0.5306 -0.0696  0.3316
   77MOL   C47647748   5.972   6.671   5.132 -0.3044  0.1402 -0.4626
   77MOL   C47747749   4.937   6.523   4.926 -0.1103 -0.5458 -0.7348
   77MOL   H47847750   5.120   6.523   5.024 -2.0656 -0.3864  0.7127
   77MOL   H47947751   5.230   6.670   4.715  0.2682 -0.4027 -0.8251
   77MOL   H48047752   5.175   6.515   4.769  0.8045  0.1868  0.8038
   77MOL   H48147753   5.331   6.522   4.954 -3.2775 -0.5605 -0.0184
   77MOL   H48247754   5.386   6.677   4.910 -0.5919  0.2236 -0.3872
   77MOL   H48347755   5.417   6.444   4.719  0.2146  0.1731 -0.0203
   77MOL   H48447756   5.471   6.589   4.684  0.5351 -0.7246 -0.0190
   77MOL   H48547757   5.559   6.396   4.905 -1.4643  1.2377  1.0176
   77MOL   H48647758   5.651   6.432   4.770 -1.7973 -1.6866 -0.4211
   77MOL   H48747759   5.660   6.680   4.869  0.4932  0.4646  1.0212
   77MOL   H48847760   5.577   6.609   5.008 -2.0861  1.3092 -2.2044
   77MOL   H48947761   5.853   6.508   4.921 -1.2866 -1.2552 -0.2705
   77MOL   H49047762   5.765   6.478   5.065 -1.5769  0.1384 -0.7616
   77MOL   H49147763   5.872   6.769   4.998  1.8432 -0.1650  0.7765
   77MOL   H49247764   5.774   6.722   5.134  1.2695 -0.1878  1.0958
   77MOL   H49347765   5.963   6.603   5.217  0.1352 -0.3013 -0.7699
   77MOL   H49447766   5.992   6.770   5.172  1.7561 -0.0554 -0.9519
   77MOL   H49547767   6.058   6.654   5.068 -0.5360 -0.3451 -0.6497
   77MOL   H49647768   4.852   6.591   4.919 -0.7178 -1.2835 -0.7333
   77MOL   H49747769   4.954   6.491   4.823 -0.1960 -2.3255 -0.2151
   77MOL   C49847770   4.911   6.402   5.007  0.1304 -0.2267 -0.0066
   77MOL   O49947771   5.007   6.312   4.966  0.3074 -0.0539  0.2862
   77MOL   C50047772   5.041   6.216   5.061  0.6045 -0.4113  0.0408
   77MOL   C50147773   5.124   6.126   4.981 -1.3388 -0.4663  0.2674
   77MOL   C50247774   5.250   6.197   4.923  0.5075  0.4498 -0.3228
   77MOL   C50347775   5.359   6.109   4.863  0.5389 -0.2853 -0.2585
   77MOL   C50447776   5.436   6.011   4.956 -0.0732  0.3920  0.3932
   77MOL   C50547777   5.547   6.074   5.042 -0.4214 -0.2914  0.5651
   77MOL   C50647778   5.691   6.063   4.976 -0.3831 -0.5052 -0.3109
   77MOL   C50747779   5.788   6.154   5.042 -0.2691  0.3195  1.1048
   77MOL   C50847780   4.768   6.355   4.990 -0.8087 -0.8777 -0.2003
   77MOL   H50947781   4.928   6.429   5.111  3.7284 -0.5581 -0.4256
   77MOL   H51047782   4.954   6.157   5.088  2.3871 -2.0791  2.4112
   77MOL   H51147783   5.095   6.260   5.145 -0.8836 -0.6516  1.1518
   77MOL   H51247784   5.075   6.068   4.902 -0.9447  0.5580 -0.7456
   77MOL   H51347785   5.172   6.057   5.050 -0.4987  0.4002  0.5627
   77MOL   H51447786   5.226   6.260   4.838  0.3285  1.8144  0.7197
   77MOL   H51547787   5.293   6.270   4.992  1.2676  0.6666 -1.0299
   77MOL   H51647788   5.304   6.038   4.801 -1.2548 -0.3937  1.4110
   77MOL   H51747789   5.432   6.161   4.801  0.9921  1.6543  1.8411
   77MOL   H51847790   5.370   5.952   5.020 -0.7212 -1.4231 -1.8594
   77MOL   H51947791   5.490   5.940   4.893 -2.5454 -3.4720  2.4987
   77MOL   H52047792   5.554   6.026   5.139  1.3373 -1.2055  0.0128
   77MOL   H52147793   5.520   6.178   5.057  0.9478 -0.1388  2.0985
   77MOL   H52247794   5.721   5.958   4.974 -3.0857 -1.3322  0.4606
   77MOL   H52347795   5.676   6.090   4.871 -2.4472  2.4122  0.6664
   77MOL   H52447796   5.891   6.128   5.015 -1.0119  0.4073 -1.8988
   77MOL   H52547797   5.782   6.154   5.151  0.8041  1.7743  1.1909
   77MOL   H52647798   5.766   6.260   5.029 -3.2714 -0.1667  1.9302
   77MOL   H52747799   4.745   6.357   4.884 -1.0236 -0.9363 -0.1536
   77MOL   H52847800   4.746   6.251   5.016  0.2506 -0.7756  1.1397
   77MOL   C52947801   4.670   6.437   5.075 -0.2419 -0.1899  0.1669
   77MOL   O53047802   4.693   6.377   5.196 -0.1769  0.1439 -0.3194
   77MOL   C53147803   4.665   6.446   5.315  0.6590  0.7266 -0.2611
   77MOL   C53247804   4.790   6.483   5.388 -0.4646 -0.5334  0.0215
   77MOL   C53347805   4.853   6.369   5.466  0.3476  0.0982 -0.4302
   77MOL   C53447806   4.969   6.411   5.549  0.7500 -0.0273  0.4486
   77MOL   C53547807   5.008   6.294   5.648  0.8719 -0.0034  0.8273
   77MOL   C53647808   5.127   6.328   5.736 -0.5502  0.3283  0.4607
   77MOL   C53747809   5.175   6.211   5.812 -0.1393  0.2701  0.1863
   77MOL   C53847810   5.305   6.241   5.882  0.2266  0.2510  0.2728
   77MOL   C53947811   4.522   6.423   5.034 -0.3742 -0.1770  0.1405
   77MOL   H54047812   4.686   6.545   5.076 -0.6698 -0.1310  1.7512
   77MOL   H54147813   4.611   6.539   5.298  0.8921  0.8638 -0.2597
   77MOL   H54247814   4.604   6.370   5.365 -0.1750  2.4832  1.4563
   77MOL   H54347815   4.767   6.550   5.471 -1.0934 -1.8252  0.9259
   77MOL   H54447816   4.872   6.514   5.323  0.0707 -2.2995 -0.1748
   77MOL   H54547817   4.778   6.323   5.530  0.6357  1.3669  0.8377
   77MOL   H54647818   4.890   6.285   5.406  1.3113 -0.8858  1.5091
   77MOL   H54747819   5.049   6.445   5.482  1.1169  1.1293  1.4508
   77MOL   H54847820   4.946   6.502   5.605 -0.2680  0.4354 -0.6968
   77MOL   H54947821   4.923   6.283   5.715 -1.5941  1.1557 -2.0107
   77MOL   H55047822   5.009   6.205   5.584  2.4714 -0.6803  1.7605
   77MOL   H55147823   5.096   6.399   5.812  0.0043  1.0126  0.0499
   77MOL   H55247824   5.202   6.377   5.674  0.8474 -1.8543  0.3745
   77MOL   H55347825   5.094   6.176   5.876  0.3786  0.9713  1.2405
   77MOL   H55447826   5.188   6.122   5.749  1.1195  0.0223  0.7674
   77MOL   H55547827   5.387   6.264   5.814 -2.9137  1.4278 -3.3010
   77MOL   H55647828   5.342   6.157   5.940  0.1720  0.9242  1.2864
   77MOL   H55747829   5.289   6.324   5.950 -1.5969 -0.1597  0.3712
   77MOL   H55847830   4.498   6.317   5.030 -2.2595  0.2783 -1.0834
   77MOL   H55947831   4.474   6.465   5.123  1.1557 -2.0408  1.8844
   77MOL   C56047832   4.492   6.508   4.905 -0.0397  0.3641 -0.5021
   77MOL   O56147833   4.520   6.654   4.924 -0.2825  0.0259  0.3494
   77MOL   C56247834   4.530   6.729   4.801  0.1147 -0.3756 -0.3186
   77MOL   C56347835   4.500   6.875   4.842 -0.0913 -0.4710 -0.3330
   77MOL   C56447836   4.607   6.927   4.940 -0.4543  0.0343  0.1307
   77MOL   C56547837   4.719   7.001   4.866  0.1868 -0.1364 -0.5737
   77MOL   C56647838   4.671   7.127   4.793 -0.2679 -0.7625  0.1890
   77MOL   C56747839   4.790   7.218   4.750  0.4444 -0.1734  0.1455
   77MOL   C56847840   4.732   7.333   4.659  0.4366  0.4264 -0.1599
   77MOL   C56947841   4.835   7.390   4.566 -0.2189  0.6860  0.1967
   77MOL   C57047842   4.346   6.485   4.859  0.5197  0.5585  0.0581
   77MOL   H57147843   4.562   6.466   4.833 -0.1219 -1.6058  0.5319
   77MOL   H57247844   4.460   6.700   4.723 -0.4316 -0.4294  0.1852
   77MOL   H57347845   4.630   6.720   4.759  0.3485 -1.3452  0.4251
   77MOL   H57447846   4.403   6.869   4.891  0.5619  2.5598  1.4766
   77MOL   H57547847   4.479   6.938   4.755 -1.9066  0.8459  1.0196
   77MOL   H57647848   4.563   7.000   5.008 -1.0146 -0.1028 -0.0776
   77MOL   H57747849   4.657   6.853   5.003  0.4971  0.5439 -0.0195
   77MOL   H57847850   4.800   7.030   4.933  0.2266  0.1888 -0.7650
   77MOL   H57947851   4.768   6.940   4.790 -1.2687 -0.7550 -1.0509
   77MOL   H58047852   4.616   7.092   4.706  1.4911 -1.1084 -0.8103
   77MOL   H58147853   4.600   7.170   4.863 -0.6015 -2.7311  1.0842
   77MOL   H58247854   4.852   7.170   4.675  1.5038  0.7056  0.4365
   77MOL   H58347855   4.859   7.246   4.830 -0.7418  0.9276  0.8093
   77MOL   H58447856   4.656   7.287   4.596  0.1208 -1.9532  1.8961
   77MOL   H58547857   4.695   7.411   4.725  1.7668 -0.5872  1.7986
   77MOL   H58647858   4.913   7.431   4.630  0.2617  1.0986 -0.6484
   77MOL   H58747859   4.794   7.464   4.497 -0.2472  1.1021  0.6521
   77MOL   H58847860   4.877   7.312   4.503 -0.0987  0.7919  0.1446
   77MOL   H58947861   4.293   6.530   4.943 -0.8463 -0.6559 -0.1170
   77MOL   H59047862   4.327   6.538   4.766  1.4107 -0.2966 -0.6267
   77MOL   C59147863   4.299   6.337   4.848 -0.7424 -0.6866  0.1028
   77MOL   O59247864   4.398   6.260   4.782 -0.2647  0.3625  0.2009
   77MOL   C59347865   4.397   6.122   4.806 -0.0459  0.1755  0.6735
   77MOL   C59447866   4.512   6.041   4.744 -0.3237 -0.2860  0.0872
   77MOL   C59547867   4.649   6.100   4.790 -0.3283  0.4312  0.4216
   77MOL   C59647868   4.775   6.049   4.710  0.1585  0.0934 -0.3234
   77MOL   C59747869   4.808   5.911   4.759  0.0829  0.4840 -0.4508
   77MOL   C59847870   4.927   5.850   4.686 -0.8626  0.0724  0.2742
   77MOL   C59947871   4.971   5.714   4.742 -0.2313  0.2825 -0.6987
   77MOL   C60047872   5.100   5.659   4.682  1.1229 -0.2549 -0.0245
   77MOL   C60147873   4.156   6.311   4.784  0.2324  0.1598  0.0787
   77MOL   H60247874   4.297   6.304   4.952  0.9029 -0.2587  0.2844
   77MOL   H60347875   4.302   6.080   4.773 -0.1687  0.4830  0.6273
   77MOL   H60447876   4.404   6.105   4.913 -3.1613  1.7004  1.2003
   77MOL   H60547877   4.499   6.058   4.637 -0.4325  0.1991  0.1732
   77MOL   H60647878   4.520   5.934   4.763 -2.0685 -0.5640 -0.6733
   77MOL   H60747879   4.645   6.206   4.767  1.6227  0.1287 -1.5154
   77MOL   H60847880   4.662   6.088   4.897 -1.4882 -0.3184  0.4946
   77MOL   H60947881   4.741   6.038   4.607  0.7919  1.2271 -0.6679
   77MOL   H61047882   4.861   6.116   4.708  1.0236 -0.9998 -4.3199
   77MOL   H61147883   4.823   5.910   4.867  2.0236 -4.2137 -0.6597
   77MOL   H61247884   4.729   5.837   4.746 -0.7261  0.5262  3.5079
   77MOL   H61347885   5.015   5.912   4.704  0.3488 -1.1041 -1.4398
   77MOL   H61447886   4.910   5.849   4.578 -0.3292 -0.3432  0.1894
   77MOL   H61547887   4.978   5.718   4.850 -0.4797  2.1450 -0.7399
   77MOL   H61647888   4.893   5.639   4.726  1.7214 -2.3820  1.8020
   77MOL   H61747889   5.084   5.608   4.587  0.2679 -0.4940  0.2390
   77MOL   H61847890   5.128   5.581   4.753 -1.0133 -2.6636 -1.6995
   77MOL   H61947891   5.176   5.736   4.669  0.4803  0.2459 -0.8956
   77MOL   H62047892   4.129   6.206   4.772 -1.0958  0.6007 -0.8626
   77MOL   H62147893   4.080   6.356   4.847 -1.2913  2.5340 -3.3439
   77MOL   H62247894   4.152   6.360   4.687 -0.4560  1.8076  0.9134
   78MOL     C147895   4.635   1.886   2.785  0.1984 -0.1793 -0.2352
   78MOL     O247896   4.749   1.970   2.790  0.7427  0.3028  0.2046
   78MOL     C347897   4.747   2.076   2.688 -0.0651  0.8053 -0.6587
   78MOL     C447898   4.865   2.161   2.720 -0.6898 -0.0778  0.0597
   78MOL     C547899   5.000   2.117   2.670  0.1673  0.3968 -0.2402
   78MOL     C647900   5.102   2.231   2.682  0.1168 -0.1347 -0.6976
   78MOL     C747901   5.202   2.196   2.793  0.0184  0.0327 -0.2009
   78MOL     C847902   5.304   2.306   2.815 -0.5752 -0.5393  0.2328
   78MOL     C947903   5.367   2.285   2.953 -0.5280  0.4913 -0.3051
   78MOL    C1047904   5.483   2.381   2.979  0.5902  0.3584  0.4246
   78MOL    C1147905   4.661   1.771   2.878 -0.2705 -0.0241 -0.5184
   78MOL    H1247906   4.554   1.945   2.829  2.8055  2.3787  1.3533
   78MOL    H1347907   4.661   2.141   2.708 -0.1072  0.5365  0.0333
   78MOL    H1447908   4.739   2.042   2.584 -0.6061  2.0285 -1.0365
   78MOL    H1547909   4.883   2.158   2.828 -1.1271 -2.8420  0.0911
   78MOL    H1647910   4.840   2.265   2.699  0.4641  0.1696 -0.1225
   78MOL    H1747911   5.031   2.030   2.727 -1.1593  1.7972  2.7131
   78MOL    H1847912   4.998   2.093   2.564  2.1233 -0.3086 -0.1298
   78MOL    H1947913   5.164   2.247   2.594  0.8304 -0.2637 -0.2236
   78MOL    H2047914   5.051   2.326   2.697 -0.7776 -0.6220 -0.5855
   78MOL    H2147915   5.153   2.165   2.885  1.7566  0.3393  0.8565
   78MOL    H2247916   5.259   2.108   2.763 -1.8667 -0.9215 -1.0665
   78MOL    H2347917   5.251   2.401   2.813 -0.8447 -0.6529  1.8810
   78MOL    H2447918   5.379   2.300   2.736  1.2777  0.9919  1.8147
   78MOL    H2547919   5.287   2.300   3.026 -0.9886  1.4158 -1.0042
   78MOL    H2647920   5.406   2.183   2.956  1.3938  1.1856 -1.2434
   78MOL    H2747921   5.509   2.386   3.085 -1.3369  1.5002  0.8626
   78MOL    H2847922   5.452   2.482   2.952 -0.8943  0.2742  1.7475
   78MOL    H2947923   5.574   2.359   2.923 -0.3204 -0.8465 -0.6109
   78MOL    H3047924   4.616   1.682   2.835 -1.4854  0.3625 -0.0818
   78MOL    H3147925   4.769   1.759   2.882 -0.3726 -1.3172 -1.3513
   78MOL    H3247926   4.608   1.846   2.687 -1.3638  0.4228 -0.0693
   78MOL    C3347927   4.620   1.779   3.029 -0.6143  0.0014 -0.0432
   78MOL    O3447928   4.695   1.680   3.108  0.1226  0.6262 -0.0974
   78MOL    C3547929   4.778   1.731   3.214  0.6481 -0.4870  1.3257
   78MOL    C3647930   4.842   1.609   3.266 -0.0406 -0.0233 -0.0291
   78MOL    C3747931   4.755   1.492   3.304 -0.1572 -0.3666 -0.7181
   78MOL    C3847932   4.830   1.411   3.413 -0.4480  0.3901  0.4637
   78MOL    C3947933   4.754   1.274   3.432  0.0136 -0.9055 -0.1814
   78MOL    C4047934   4.805   1.170   3.537  0.4871 -1.0336 -0.0024
   78MOL    C4147935   4.761   1.182   3.683  0.0975  0.2320  0.0596
   78MOL    C4247936   4.827   1.299   3.768 -0.6004  0.2404  0.3034
   78MOL    C4347937   4.470   1.762   3.044  0.8017  0.4866  0.1902
   78MOL    H4447938   4.660   1.876   3.059  0.4416 -0.8477  1.3808
   78MOL    H4547939   4.714   1.780   3.287  1.2794 -0.9807  2.2206
   78MOL    H4647940   4.838   1.816   3.185  0.9179 -0.6232  1.4849
   78MOL    H4747941   4.904   1.645   3.348 -0.5580 -2.4141  1.4390
   78MOL    H4847942   4.910   1.577   3.188  2.6049  2.5426  1.1421
   78MOL    H4947943   4.659   1.525   3.344 -0.7797 -2.0442 -0.7628
   78MOL    H5047944   4.739   1.426   3.219  1.1154 -1.1049 -0.3969
   78MOL    H5147945   4.933   1.380   3.393 -0.5824  1.3732 -1.9357
   78MOL    H5247946   4.827   1.467   3.506  0.8265  0.1731  0.6404
   78MOL    H5347947   4.649   1.292   3.453  0.0158 -1.7981  0.5826
   78MOL    H5447948   4.755   1.223   3.336 -1.0240 -1.8584  0.3133
   78MOL    H5547949   4.913   1.164   3.546  0.5768  1.0808  0.8422
   78MOL    H5647950   4.783   1.068   3.508  0.6863 -1.4648  1.3215
   78MOL    H5747951   4.652   1.182   3.680  0.1078 -0.4056 -4.4858
   78MOL    H5847952   4.792   1.086   3.724 -1.0550  0.6378  1.9186
   78MOL    H5947953   4.803   1.400   3.735  1.3097  0.7397  0.3792
   78MOL    H6047954   4.935   1.302   3.755 -0.4579  2.0255  1.7692
   78MOL    H6147955   4.800   1.283   3.872  1.1499  1.2232  0.9201
   78MOL    H6247956   4.424   1.804   2.954  0.1251 -2.5298 -0.9227
   78MOL    H6347957   4.450   1.655   3.044 -1.3709  0.8607  0.4741
   78MOL    C6447958   4.424   1.837   3.171 -0.5981  0.1204 -0.4472
   78MOL    O6547959   4.298   1.788   3.204  0.3485 -0.2482 -0.0157
   78MOL    C6647960   4.286   1.650   3.265 -0.2280  0.1116  0.5720
   78MOL    C6747961   4.337   1.657   3.420 -0.2461 -0.2190  0.4961
   78MOL    C6847962   4.327   1.518   3.482 -0.6005  0.3999 -0.9304
   78MOL    C6947963   4.369   1.531   3.626  0.7642  0.7438 -0.2448
   78MOL    C7047964   4.393   1.388   3.695 -0.6933  0.9583 -0.0439
   78MOL    C7147965   4.400   1.393   3.847 -0.3161 -0.0505 -0.7536
   78MOL    C7247966   4.424   1.254   3.917  0.2670  0.7553 -0.5855
   78MOL    C7347967   4.417   1.247   4.069 -0.3310  0.2555 -0.4766
   78MOL    C7447968   4.412   1.988   3.157  0.0019  0.1467 -0.0477
   78MOL    H7547969   4.496   1.811   3.249  0.4796  1.3757 -0.9912
   78MOL    H7647970   4.342   1.574   3.210  0.8932  1.7990 -0.6866
   78MOL    H7747971   4.182   1.616   3.269 -0.4866  0.9613  1.2446
   78MOL    H7847972   4.290   1.733   3.483  0.0310 -0.8582  1.4833
   78MOL    H7947973   4.444   1.676   3.412 -0.2018  0.0651  1.6078
   78MOL    H8047974   4.222   1.492   3.486 -0.5928  0.5814  1.1184
   78MOL    H8147975   4.386   1.444   3.428 -0.6272  1.5017 -2.4997
   78MOL    H8247976   4.464   1.580   3.645  2.0374 -1.4581 -0.7727
   78MOL    H8347977   4.285   1.583   3.672 -0.1402  0.2536 -1.2988
   78MOL    H8447978   4.318   1.311   3.678  1.6540 -1.4327  0.1781
   78MOL    H8547979   4.484   1.346   3.651 -1.5638 -1.0426  0.0185
   78MOL    H8647980   4.310   1.440   3.887 -0.0369 -0.5420  0.5044
   78MOL    H8747981   4.483   1.462   3.865  0.8970 -0.9402 -2.8256
   78MOL    H8847982   4.343   1.187   3.887  0.5270  0.8436 -1.4972
   78MOL    H8947983   4.512   1.206   3.877  0.7145  0.3455  0.8417
   78MOL    H9047984   4.332   1.192   4.108  0.3772 -0.9719 -0.6445
   78MOL    H9147985   4.405   1.353   4.094 -1.9049  0.2591 -1.1769
   78MOL    H9247986   4.495   1.197   4.125 -2.6837 -1.1819  1.6180
   78MOL    H9347987   4.501   2.023   3.106  0.6009  2.7956  2.6680
   78MOL    H9447988   4.329   2.003   3.089 -1.6044 -1.1987  1.5480
   78MOL    C9547989   4.396   2.058   3.293 -0.2185  0.2434 -0.4030
   78MOL    O9647990   4.470   2.004   3.400 -0.4811  0.4143  0.2402
   78MOL    C9747991   4.607   2.044   3.404  0.7849 -0.3721  0.0926
   78MOL    C9847992   4.673   1.964   3.518  0.0625  0.1741 -0.3795
   78MOL    C9947993   4.624   2.012   3.658 -0.5926  0.7109  0.7030
   78MOL   C10047994   4.699   1.952   3.785 -0.0911  0.0291  0.2066
   78MOL   C10147995   4.838   2.024   3.834  0.1484 -0.6949  0.1083
   78MOL   C10247996   4.873   1.979   3.976 -0.0428  0.4145  0.3593
   78MOL   C10347997   5.013   2.030   4.023  0.2724 -0.7983  0.3766
   78MOL   C10447998   5.019   2.025   4.179  0.1922 -0.2268 -0.5750
   78MOL   C10547999   4.263   2.041   3.355 -0.7213 -0.1826 -0.3480
   78MOL   H10648000   4.412   2.166   3.287  1.1944  0.1532  1.2862
   78MOL   H10748001   4.617   2.151   3.416 -2.5450 -0.0684  0.4482
   78MOL   H10848002   4.661   2.009   3.315  2.6754  0.5205  0.8618
   78MOL   H10948003   4.780   1.980   3.515  0.4504 -2.3569 -0.4172
   78MOL   H11048004   4.644   1.862   3.494  1.0641  0.0586 -1.1292
   78MOL   H11148005   4.644   2.119   3.664 -1.9169  0.9223  1.4818
   78MOL   H11248006   4.517   1.994   3.666 -0.2736 -1.7237 -0.1060
   78MOL   H11348007   4.630   1.971   3.867 -1.2245 -0.0118 -0.7226
   78MOL   H11448008   4.705   1.844   3.770  0.2144  0.0130  0.4329
   78MOL   H11548009   4.909   1.996   3.755  0.9766  0.7772  0.3249
   78MOL   H11648010   4.827   2.132   3.843  0.0026 -0.7970  1.2176
   78MOL   H11748011   4.871   1.871   3.967 -1.7552  0.6149 -2.2001
   78MOL   H11848012   4.791   2.004   4.044 -0.8811 -1.7518  0.1622
   78MOL   H11948013   5.084   1.957   3.984 -1.7934 -0.4473 -4.3772
   78MOL   H12048014   5.033   2.131   3.990  2.0624 -1.2254  0.1242
   78MOL   H12148015   5.125   2.036   4.204 -0.1367 -2.8124  2.3512
   78MOL   H12248016   4.970   1.938   4.222 -2.1379  2.2480  1.9339
   78MOL   H12348017   4.954   2.105   4.215 -1.2428 -0.5760 -2.3439
   78MOL   H12448018   4.246   1.935   3.374  1.3837 -1.0851 -3.1896
   78MOL   H12548019   4.268   2.088   3.453 -1.0906  2.2906 -1.4621
   78MOL   C12648020   4.136   2.095   3.271 -0.0017 -0.9430  0.0616
   78MOL   O12748021   4.153   2.233   3.269  0.3563 -0.8752 -0.3904
   78MOL   C12848022   4.100   2.302   3.158  0.1910 -0.9987  0.2746
   78MOL   C12948023   4.107   2.457   3.198  0.1874 -0.6494  0.7973
   78MOL   C13048024   4.237   2.526   3.163 -1.2149  0.0106  0.5406
   78MOL   C13148025   4.243   2.671   3.230 -0.0755 -0.5278 -0.3241
   78MOL   C13248026   4.350   2.763   3.167 -0.2909 -0.0957  0.1186
   78MOL   C13348027   4.496   2.707   3.176  0.3515 -0.3172 -0.0554
   78MOL   C13448028   4.590   2.816   3.119  0.2922  0.1384  0.6347
   78MOL   C13548029   4.575   2.829   2.968 -0.1250 -0.5051  0.0495
   78MOL   C13648030   3.997   2.061   3.333 -0.4461 -0.0053  0.2592
   78MOL   H13748031   4.133   2.045   3.175 -3.7326  0.6182 -0.7435
   78MOL   H13848032   3.994   2.278   3.155  0.5398 -2.3324 -3.2075
   78MOL   H13948033   4.131   2.283   3.055 -3.4655  2.4742 -1.5808
   78MOL   H14048034   4.087   2.469   3.304  1.4858  1.7292  0.8072
   78MOL   H14148035   4.026   2.513   3.151  0.2468 -1.1535  0.0917
   78MOL   H14248036   4.326   2.469   3.191 -0.7675  0.7459  0.6446
   78MOL   H14348037   4.231   2.531   3.055 -1.2640  0.3034  0.5559
   78MOL   H14448038   4.142   2.705   3.206  0.0635 -1.7308 -2.7240
   78MOL   H14548039   4.261   2.662   3.337 -1.0235  0.0089 -0.1105
   78MOL   H14648040   4.326   2.762   3.061  1.3083 -2.4093 -0.2543
   78MOL   H14748041   4.346   2.859   3.219 -1.0371 -0.7761  1.3685
   78MOL   H14848042   4.496   2.616   3.116  2.2627 -0.5798  0.3200
   78MOL   H14948043   4.520   2.677   3.278  0.9049  2.3914  0.6625
   78MOL   H15048044   4.587   2.917   3.160  1.7832  0.3896  0.1377
   78MOL   H15148045   4.693   2.789   3.142  0.4587 -0.8622 -1.2289
   78MOL   H15248046   4.595   2.929   2.932  1.5054 -1.0066 -0.4741
   78MOL   H15348047   4.481   2.796   2.924 -0.4996 -0.8688  1.1038
   78MOL   H15448048   4.658   2.772   2.924  0.8184  0.0210  1.1146
   78MOL   H15548049   3.924   2.118   3.275 -1.4100  1.1745  2.5824
   78MOL   H15648050   3.971   1.956   3.322 -1.2615  0.1714  0.4326
   78MOL   C15748051   3.984   2.090   3.479 -1.1071  0.2558 -0.1091
   78MOL   O15848052   4.052   1.986   3.556  0.0988 -0.3922 -0.4072
   78MOL   C15948053   4.118   2.024   3.674 -0.0436  0.4754  0.5404
   78MOL   C16048054   4.165   1.899   3.736  0.4889 -0.6289  0.2072
   78MOL   C16148055   4.215   1.917   3.877 -0.4668  0.6149  0.3233
   78MOL   C16248056   4.242   1.783   3.957  0.1460  0.4868  0.4600
   78MOL   C16348057   4.280   1.816   4.095 -0.5331  0.4675  0.2011
   78MOL   C16448058   4.311   1.694   4.186 -0.0766  0.6656  0.4140
   78MOL   C16548059   4.357   1.732   4.328  0.5404 -0.9460  0.2935
   78MOL   C16648060   4.373   1.616   4.414 -0.4201  0.0416 -0.1462
   78MOL   C16748061   3.841   2.069   3.533 -1.1668 -0.1456 -0.0435
   78MOL   H16848062   4.023   2.188   3.508  0.3168  0.2144 -1.7964
   78MOL   H16948063   4.048   2.071   3.744  0.1725  1.2868  0.2222
   78MOL   H17048064   4.202   2.091   3.659  0.8741 -0.6546  0.6004
   78MOL   H17148065   4.250   1.861   3.679  0.1685  0.7412 -1.2126
   78MOL   H17248066   4.083   1.826   3.742  0.5142 -0.6717  0.0468
   78MOL   H17348067   4.306   1.973   3.856  1.6247 -3.3760 -1.8766
   78MOL   H17448068   4.154   1.987   3.933  0.8798  0.4591  2.0079
   78MOL   H17548069   4.154   1.719   3.948  2.2324 -2.2095 -1.5395
   78MOL   H17648070   4.323   1.732   3.904 -0.3851 -0.7631  0.8285
   78MOL   H17748071   4.366   1.883   4.098 -0.1749  0.1077 -1.6232
   78MOL   H17848072   4.198   1.858   4.154  0.0096 -1.0471  2.0786
   78MOL   H17948073   4.370   1.616   4.139  0.7003  0.6012  1.4803
   78MOL   H18048074   4.216   1.644   4.203 -1.4808  2.7329 -1.0869
   78MOL   H18148075   4.457   1.777   4.322 -0.1442  0.8335  1.8989
   78MOL   H18248076   4.292   1.803   4.378  0.0569 -0.4426 -1.0498
   78MOL   H18348077   4.438   1.633   4.500 -0.1377  1.2573 -0.5842
   78MOL   H18448078   4.423   1.530   4.368 -0.6252 -0.5444  0.7113
   78MOL   H18548079   4.277   1.572   4.442  0.5403 -1.0630  1.4868
   78MOL   H18648080   3.810   1.966   3.518  1.4048 -0.6061 -2.4958
   78MOL   H18748081   3.853   2.094   3.639 -0.9688 -0.0399 -0.0904
   78MOL   C18848082   3.726   2.163   3.487 -0.0141 -0.1157  0.2722
   78MOL   O18948083   3.759   2.306   3.496  0.0194 -0.0273  0.3650
   78MOL   C19048084   3.720   2.379   3.377 -0.2568  0.0430  0.7052
   78MOL   C19148085   3.752   2.523   3.393 -0.1905 -0.2220  0.3138
   78MOL   C19248086   3.642   2.585   3.482 -0.3517 -0.1936 -0.4631
   78MOL   C19348087   3.662   2.733   3.510  0.3455 -0.7723 -0.5417
   78MOL   C19448088   3.527   2.803   3.525 -0.3195  0.0646 -0.0522
   78MOL   C19548089   3.553   2.957   3.546  0.3629 -0.4932  0.1458
   78MOL   C19648090   3.422   3.037   3.547  0.1272 -0.5754  0.5113
   78MOL   C19748091   3.454   3.189   3.556  0.5137 -0.0976 -0.0296
   78MOL   C19848092   3.603   2.136   3.566 -0.9129  0.1166  0.3552
   78MOL   H19948093   3.711   2.130   3.384 -0.5107 -0.4340  0.4462
   78MOL   H20048094   3.773   2.342   3.289  3.1724  1.3747  2.0993
   78MOL   H20148095   3.614   2.363   3.360 -0.4743  0.4131  1.7138
   78MOL   H20248096   3.754   2.574   3.297  0.0970 -0.4765  0.1822
   78MOL   H20348097   3.841   2.541   3.454 -0.0243  1.4265 -0.3826
   78MOL   H20448098   3.540   2.574   3.447 -0.0418 -0.4038 -1.3244
   78MOL   H20548099   3.628   2.525   3.572 -1.5669 -0.0198 -0.5356
   78MOL   H20648100   3.718   2.749   3.602 -0.1214  3.9612 -0.9931
   78MOL   H20748101   3.722   2.777   3.430  0.8935 -0.8807 -0.1940
   78MOL   H20848102   3.475   2.799   3.429 -0.1245 -0.6865 -0.1242
   78MOL   H20948103   3.462   2.752   3.597  0.6490  0.5934  1.2241
   78MOL   H21048104   3.625   2.985   3.469 -0.1415 -3.0406 -1.2868
   78MOL   H21148105   3.603   2.966   3.642  0.0079  3.3885  0.0671
   78MOL   H21248106   3.360   3.022   3.458 -0.6233 -0.7672  1.0631
   78MOL   H21348107   3.359   3.017   3.633  0.1594 -0.0938  0.6492
   78MOL   H21448108   3.362   3.247   3.557  0.5859  0.0178 -0.1371
   78MOL   H21548109   3.525   3.220   3.480  0.8041 -0.3307  0.1461
   78MOL   H21648110   3.510   3.211   3.647 -0.2129 -1.4802  0.7741
   78MOL   H21748111   3.629   2.145   3.672  1.9097  2.3045 -0.4747
   78MOL   H21848112   3.532   2.215   3.542 -1.2942 -0.7737 -1.5328
   78MOL   C21948113   3.520   2.009   3.529 -0.2014 -0.2205 -0.1892
   78MOL   O22048114   3.486   2.015   3.392  0.3944 -0.5299 -0.1160
   78MOL   C22148115   3.454   1.900   3.325  0.7981 -0.1456  0.4342
   78MOL   C22248116   3.461   1.918   3.174  0.0262  0.7124 -0.1807
   78MOL   C22348117   3.592   1.984   3.126 -0.6598 -0.3658 -0.6488
   78MOL   C22448118   3.585   2.023   2.984 -0.3405 -0.2754 -0.0524
   78MOL   C22548119   3.709   2.094   2.927  0.3841  0.7634 -0.0271
   78MOL   C22648120   3.731   2.232   2.980  0.1011 -0.0486  0.0787
   78MOL   C22748121   3.624   2.340   2.941 -0.2180  0.0994  0.2608
   78MOL   C22848122   3.682   2.474   2.969  0.0898 -0.6300 -0.4398
   78MOL   C22948123   3.399   1.989   3.624 -0.3057  0.6978  0.1406
   78MOL   H23048124   3.586   1.923   3.540  1.8998  1.7283  3.4796
   78MOL   H23148125   3.356   1.868   3.360  1.0827 -0.2888  1.1027
   78MOL   H23248126   3.532   1.831   3.356  2.5224  0.6357 -2.0686
   78MOL   H23348127   3.384   1.986   3.137 -1.1784 -0.9686 -0.8013
   78MOL   H23448128   3.444   1.822   3.125  0.4881 -0.1631  1.3503
   78MOL   H23548129   3.605   2.070   3.191 -0.6791 -0.5523 -0.3945
   78MOL   H23648130   3.673   1.912   3.140  0.5161  0.8713 -1.0558
   78MOL   H23748131   3.570   1.939   2.917  0.2004 -0.1493 -0.3402
   78MOL   H23848132   3.500   2.087   2.961  0.9747  0.6742 -2.4542
   78MOL   H23948133   3.795   2.029   2.942  0.1184  0.2117 -0.8649
   78MOL   H24048134   3.709   2.100   2.818 -2.8558 -0.0092 -0.1125
   78MOL   H24148135   3.824   2.271   2.941 -0.6114  0.8784 -0.7128
   78MOL   H24248136   3.734   2.238   3.089  1.2479 -1.0804  0.1224
   78MOL   H24348137   3.595   2.333   2.836  1.9179 -0.8053 -0.3125
   78MOL   H24448138   3.533   2.323   2.999  0.1998 -1.1828  0.5630
   78MOL   H24548139   3.703   2.492   3.075  2.0773  3.7870 -1.4651
   78MOL   H24648140   3.619   2.558   2.940  0.1445 -0.2841  0.4157
   78MOL   H24748141   3.778   2.481   2.919 -1.2523 -0.0475 -3.0178
   78MOL   H24848142   3.329   2.073   3.616  0.4379  1.5603  2.2784
   78MOL   H24948143   3.352   1.900   3.583  1.0737 -0.1429  0.3721
   78MOL   C25048144   3.435   1.977   3.773  0.3482  0.0723 -0.2150
   78MOL   O25148145   3.516   1.858   3.794  0.3076  0.3377  0.3339
   78MOL   C25248146   3.645   1.891   3.846 -0.3171  0.2697 -0.4463
   78MOL   C25348147   3.702   1.760   3.888 -0.2975 -0.8338  0.3309
   78MOL   C25448148   3.756   1.664   3.777  0.3625 -0.0013  0.4143
   78MOL   C25548149   3.831   1.556   3.839 -0.0020  0.2432 -0.7167
   78MOL   C25648150   3.903   1.470   3.727  0.2104  0.1388  0.0538
   78MOL   C25748151   3.918   1.328   3.770  0.0044 -0.4715  0.3493
   78MOL   C25848152   3.963   1.236   3.660  0.2149 -0.7439 -0.3530
   78MOL   C25948153   3.996   1.096   3.701  0.3762  0.2608 -0.2213
   78MOL   C26048154   3.309   1.971   3.863  0.1923 -0.6730 -0.7376
   78MOL   H26148155   3.483   2.068   3.809 -0.8591  1.0509 -1.0108
   78MOL   H26248156   3.635   1.962   3.928 -0.5748 -1.3347  0.9426
   78MOL   H26348157   3.708   1.946   3.777  0.1581  0.3343  0.0361
   78MOL   H26448158   3.630   1.714   3.956  0.8506 -1.2668  1.2914
   78MOL   H26548159   3.790   1.781   3.950  0.2614 -0.2197 -0.6682
   78MOL   H26648160   3.682   1.618   3.712 -0.6281 -0.2371  1.6768
   78MOL   H26748161   3.823   1.721   3.713  2.5582 -2.1225  0.7563
   78MOL   H26848162   3.911   1.596   3.900 -0.3877  0.4977 -0.3719
   78MOL   H26948163   3.770   1.494   3.905  0.5165 -0.8275 -1.2328
   78MOL   H27048164   3.841   1.470   3.637  0.2307  0.2119  0.0404
   78MOL   H27148165   3.998   1.518   3.707  0.1489  0.4918  0.5874
   78MOL   H27248166   3.822   1.290   3.804  0.2499 -2.3010 -0.8906
   78MOL   H27348167   3.989   1.321   3.852  0.4585  0.8580  0.0840
   78MOL   H27448168   3.883   1.231   3.586 -0.2814  1.1606  0.0286
   78MOL   H27548169   4.052   1.274   3.609 -1.5523  0.0186 -2.9744
   78MOL   H27648170   4.040   1.036   3.622 -0.5398  1.3623 -1.6055
   78MOL   H27748171   3.904   1.040   3.717 -0.2807  0.8925 -1.6461
   78MOL   H27848172   4.065   1.081   3.784  1.4597 -2.3745 -1.5401
   78MOL   H27948173   3.263   2.069   3.850 -1.7494 -1.6818 -1.7977
   78MOL   H28048174   3.243   1.891   3.830 -1.3010  1.1472 -2.3768
   78MOL   C28148175   3.344   1.952   4.012  0.5422  0.1790  0.3879
   78MOL   O28248176   3.222   1.909   4.078 -0.3860 -0.3980  0.2745
   78MOL   C28348177   3.204   1.770   4.087 -0.3955 -0.3836  0.6243
   78MOL   C28448178   3.068   1.739   4.151  0.1504 -0.1326 -0.2906
   78MOL   C28548179   3.061   1.586   4.194  0.2524  0.2495 -0.0461
   78MOL   C28648180   2.921   1.548   4.234 -0.4360 -0.2209  0.5766
   78MOL   C28748181   2.906   1.400   4.273 -0.0427  0.7209 -0.4138
   78MOL   C28848182   2.758   1.354   4.266  0.0353 -0.7150 -0.7337
   78MOL   C28948183   2.721   1.211   4.304 -0.4677  0.1090  0.4361
   78MOL   C29048184   2.719   1.208   4.461 -0.8450  0.0426  0.3913
   78MOL   C29148185   3.391   2.092   4.071  0.2049  0.3576  0.2582
   78MOL   H29248186   3.408   1.868   4.035 -0.8135 -1.4046 -1.4028
   78MOL   H29348187   3.281   1.736   4.157 -0.8962  0.4533  1.6074
   78MOL   H29448188   3.208   1.730   3.986 -1.2047  2.1207 -0.4405
   78MOL   H29548189   3.003   1.768   4.069 -0.4140 -2.5005 -0.6955
   78MOL   H29648190   3.057   1.797   4.243  0.6573 -0.7352  0.1553
   78MOL   H29748191   3.080   1.524   4.106 -1.1834  0.4716 -0.5249
   78MOL   H29848192   3.137   1.567   4.270 -0.7505  0.8524  1.1388
   78MOL   H29948193   2.892   1.611   4.318 -0.2926  1.0060 -0.2784
   78MOL   H30048194   2.853   1.571   4.152  1.3041  2.5233 -0.1698
   78MOL   H30148195   2.961   1.333   4.207 -0.3603  1.4009 -1.3819
   78MOL   H30248196   2.940   1.393   4.377 -0.7975  0.9353 -0.1542
   78MOL   H30348197   2.724   1.372   4.164 -3.2863  0.8301  0.5560
   78MOL   H30448198   2.702   1.426   4.326  0.2514  0.4019 -1.8398
   78MOL   H30548199   2.623   1.196   4.260 -0.4837 -1.3218  0.9549
   78MOL   H30648200   2.788   1.141   4.254  1.2326  2.8302 -1.3051
   78MOL   H30748201   2.679   1.296   4.511 -1.5572 -0.1065  0.0911
   78MOL   H30848202   2.827   1.203   4.476 -0.1946 -2.2349 -4.2699
   78MOL   H30948203   2.672   1.120   4.504  0.0957  0.1180  1.5884
   78MOL   H31048204   3.489   2.119   4.035 -0.0207 -0.4319 -0.9722
   78MOL   H31148205   3.327   2.175   4.040  0.3759  0.4230  0.0848
   78MOL   C31248206   3.424   2.084   4.217  0.4168  0.1449 -0.0128
   78MOL   O31348207   3.306   2.115   4.292  0.0974  0.5502  0.1054
   78MOL   C31448208   3.299   2.044   4.409  0.0858  1.0918  0.1895
   78MOL   C31548209   3.180   2.099   4.498 -0.4649 -0.2226 -0.2340
   78MOL   C31648210   3.150   2.010   4.620  0.0624 -0.2405  0.3460
   78MOL   C31748211   3.038   2.062   4.702  0.5193 -0.1706 -0.1728
   78MOL   C31848212   2.988   1.976   4.823 -0.2009  0.8141  0.6922
   78MOL   C31948213   2.900   2.053   4.918  0.5619  0.1347  0.1638
   78MOL   C32048214   2.813   1.963   5.010  0.4158 -0.2802  0.3959
   78MOL   C32148215   2.733   2.037   5.118 -0.4485  0.3333 -0.1722
   78MOL   C32248216   3.516   2.190   4.267 -0.2081 -0.4803 -0.1741
   78MOL   H32348217   3.463   1.985   4.239  1.9194  1.4774  3.7066
   78MOL   H32448218   3.391   2.046   4.468  0.8679 -1.4084 -0.8630
   78MOL   H32548219   3.273   1.940   4.389 -0.7730  1.7134 -2.0616
   78MOL   H32648220   3.088   2.113   4.442  0.3544 -0.8660 -1.7650
   78MOL   H32748221   3.210   2.201   4.522 -1.1795  0.5202 -2.4297
   78MOL   H32848222   3.130   1.906   4.595 -0.1061 -0.1991  0.3097
   78MOL   H32948223   3.236   2.016   4.687  0.0855 -0.0325  0.2993
   78MOL   H33048224   3.071   2.161   4.735 -2.4602  1.5697 -2.1088
   78MOL   H33148225   2.948   2.075   4.641  0.5422 -1.1235 -0.4115
   78MOL   H33248226   2.939   1.885   4.790 -0.0370  0.7080  0.7433
   78MOL   H33348227   3.078   1.935   4.868  1.2130  1.1466 -1.7200
   78MOL   H33448228   2.827   2.110   4.860  1.3125 -0.6896 -1.6326
   78MOL   H33548229   2.959   2.122   4.978 -0.3649  1.3711 -0.3319
   78MOL   H33648230   2.742   1.901   4.955  0.6356  0.1574 -0.3856
   78MOL   H33748231   2.874   1.890   5.064 -1.0652  0.4283  3.1342
   78MOL   H33848232   2.788   2.062   5.209  2.0639  0.7617 -1.7569
   78MOL   H33948233   2.645   1.979   5.145 -1.4660  1.9936  0.1508
   78MOL   H34048234   2.694   2.128   5.073  0.5188  0.6404 -0.4095
   78MOL   H34148235   3.493   2.292   4.234 -0.5776  0.4780  2.8220
   78MOL   H34248236   3.503   2.204   4.375 -2.3569  1.7687 -0.6753
   78MOL   C34348237   3.666   2.165   4.245  0.7337  0.4434 -0.2520
   78MOL   O34448238   3.711   2.057   4.325 -0.1195 -0.2362 -0.3331
   78MOL   C34548239   3.817   1.980   4.260 -0.1854 -0.6063 -0.6410
   78MOL   C34648240   3.812   1.830   4.303  0.3499  0.7788  0.1077
   78MOL   C34748241   3.684   1.751   4.276 -0.1996  0.1358  0.1453
   78MOL   C34848242   3.675   1.611   4.318  0.7636  0.0591  0.0004
   78MOL   C34948243   3.774   1.514   4.254 -0.3079  0.0742 -0.3821
   78MOL   C35048244   3.751   1.366   4.281 -0.9300  0.0404  0.4768
   78MOL   C35148245   3.850   1.265   4.220 -0.1583  0.0705 -0.7505
   78MOL   C35248246   4.000   1.309   4.229 -0.0732 -0.1627 -0.1392
   78MOL   C35348247   3.758   2.275   4.290 -0.7303  0.5178 -0.3476
   78MOL   H35448248   3.676   2.143   4.138 -1.8335 -0.2799 -0.3595
   78MOL   H35548249   3.920   2.016   4.271 -0.9549  1.5717 -0.3310
   78MOL   H35648250   3.811   1.975   4.152 -2.6047  1.2994 -0.6348
   78MOL   H35748251   3.832   1.830   4.410 -1.4084 -0.3338  0.4586
   78MOL   H35848252   3.895   1.785   4.248 -0.1034  0.8680 -0.6631
   78MOL   H35948253   3.598   1.799   4.322  0.3537  0.2958  1.0250
   78MOL   H36048254   3.672   1.756   4.168  1.1636 -2.1595 -0.1360
   78MOL   H36148255   3.680   1.605   4.426  1.4596 -0.3532 -0.0519
   78MOL   H36248256   3.574   1.586   4.287 -0.2502  3.0343  0.7173
   78MOL   H36348257   3.785   1.523   4.146 -1.2153 -2.1232 -0.6987
   78MOL   H36448258   3.871   1.531   4.300 -1.7449  0.0189  2.7489
   78MOL   H36548259   3.663   1.333   4.227 -1.7197  0.8576  1.2569
   78MOL   H36648260   3.733   1.354   4.388  0.3097 -2.1320  0.4827
   78MOL   H36748261   3.841   1.171   4.275  0.2325  0.3375 -0.2204
   78MOL   H36848262   3.827   1.249   4.114 -0.3822 -0.6999 -0.5907
   78MOL   H36948263   3.997   1.398   4.166 -0.8351  1.6190  2.3255
   78MOL   H37048264   4.056   1.238   4.169 -1.9869 -3.6787  2.0551
   78MOL   H37148265   4.033   1.333   4.330 -1.9449  0.7866  0.2722
   78MOL   H37248266   3.719   2.309   4.385 -0.7537 -1.6404  0.4500
   78MOL   H37348267   3.858   2.232   4.300 -2.5770 -4.1138 -0.1538
   78MOL   C37448268   3.775   2.395   4.196 -0.3263  0.1724 -0.1955
   78MOL   O37548269   3.810   2.342   4.070 -0.2739 -0.5513  0.0602
   78MOL   C37648270   3.776   2.413   3.956  0.6624  0.1457 -0.2403
   78MOL   C37748271   3.852   2.375   3.830 -0.8469  0.3521  0.1163
   78MOL   C37848272   3.999   2.413   3.851 -0.4817 -0.2082 -0.8720
   78MOL   C37948273   4.080   2.427   3.722  0.7599 -0.0852  0.6102
   78MOL   C38048274   4.228   2.402   3.742  0.6971 -0.2184 -0.4735
   78MOL   C38148275   4.309   2.424   3.612  0.1905 -0.1775 -0.1902
   78MOL   C38248276   4.455   2.455   3.629 -0.1391 -0.3583 -0.4251
   78MOL   C38348277   4.538   2.456   3.495 -0.3958  0.2648  0.0093
   78MOL   C38448278   3.871   2.500   4.250 -0.1391 -0.2877  0.1341
   78MOL   H38548279   3.673   2.432   4.189 -0.0883  0.8656 -0.0780
   78MOL   H38648280   3.792   2.515   3.992 -0.1093  0.3288 -0.4092
   78MOL   H38748281   3.674   2.388   3.928  0.7510 -0.5587  0.0383
   78MOL   H38848282   3.807   2.428   3.747  0.6336 -0.5758 -1.2979
   78MOL   H38948283   3.844   2.269   3.805 -3.9993  0.6997 -0.5171
   78MOL   H39048284   3.997   2.509   3.902  2.2318  0.2496 -1.5279
   78MOL   H39148285   4.038   2.338   3.920 -0.2293  0.8488  0.1341
   78MOL   H39248286   4.027   2.366   3.649  1.0572 -0.7679  0.9543
   78MOL   H39348287   4.069   2.529   3.685 -0.8049  0.2382  1.9318
   78MOL   H39448288   4.270   2.466   3.819 -2.2269  1.4148 -0.1808
   78MOL   H39548289   4.237   2.295   3.763 -0.7572 -0.2046  0.2436
   78MOL   H39648290   4.263   2.507   3.558 -0.3837 -1.1634 -1.2363
   78MOL   H39748291   4.315   2.330   3.558  1.9545  0.4187 -1.0605
   78MOL   H39848292   4.479   2.546   3.684  2.8938 -1.5745  0.3348
   78MOL   H39948293   4.491   2.379   3.698 -1.0227 -0.7049 -0.3321
   78MOL   H40048294   4.566   2.356   3.462  0.2991  0.3425  0.3436
   78MOL   H40148295   4.619   2.528   3.487 -1.8917  2.0135  0.1904
   78MOL   H40248296   4.475   2.499   3.417  0.2423  0.9953 -0.1061
   78MOL   H40348297   3.967   2.450   4.264  0.4317  1.5323  3.1138
   78MOL   H40448298   3.892   2.580   4.180 -0.0807  2.2352  2.9698
   78MOL   C40548299   3.818   2.578   4.366 -0.2551 -0.0378  0.4429
   78MOL   O40648300   3.724   2.663   4.311 -0.6030  0.7489 -0.8668
   78MOL   C40748301   3.636   2.721   4.402  0.5993 -0.1900  0.0809
   78MOL   C40848302   3.494   2.707   4.339 -1.1454  0.4698 -0.8118
   78MOL   C40948303   3.382   2.771   4.430  0.9614 -0.5287 -0.6239
   78MOL   C41048304   3.361   2.923   4.403 -0.0049 -0.1122 -0.5338
   78MOL   C41148305   3.239   2.963   4.483  0.3746  0.0432  0.2896
   78MOL   C41248306   3.217   3.116   4.479  0.1521 -0.6879 -0.9487
   78MOL   C41348307   3.107   3.152   4.578  0.1609  0.2144  0.1078
   78MOL   C41448308   3.042   3.291   4.555  0.1900  0.1680  0.5189
   78MOL   C41548309   3.931   2.651   4.453  0.6047  0.2027  0.1037
   78MOL   H41648310   3.780   2.504   4.436 -0.0529  0.1082  0.7073
   78MOL   H41748311   3.669   2.821   4.427  2.0211 -0.8601  0.9496
   78MOL   H41848312   3.624   2.670   4.498 -1.9273  0.2587  0.0326
   78MOL   H41948313   3.476   2.602   4.319  1.7801 -0.4052  0.7835
   78MOL   H42048314   3.505   2.747   4.238  1.5005  1.8984 -0.0063
   78MOL   H42148315   3.289   2.720   4.405 -0.2366  0.5439  1.5445
   78MOL   H42248316   3.400   2.734   4.531  1.9655  3.4381  0.7420
   78MOL   H42348317   3.439   2.993   4.432  1.7923 -2.1353 -0.3790
   78MOL   H42448318   3.336   2.930   4.297 -0.4258  0.0208 -0.4272
   78MOL   H42548319   3.155   2.912   4.435  0.3589 -0.0646  0.4313
   78MOL   H42648320   3.247   2.937   4.588 -3.2931  2.7242  1.3137
   78MOL   H42748321   3.183   3.139   4.378  2.2389  0.4749 -1.4220
   78MOL   H42848322   3.306   3.169   4.514  0.1921 -1.0911 -0.4333
   78MOL   H42948323   3.029   3.076   4.579  0.8977 -0.5415  2.5603
   78MOL   H43048324   3.154   3.157   4.676 -2.9232  1.3373  1.6225
   78MOL   H43148325   2.970   3.277   4.474  0.7358  0.0555  0.0565
   78MOL   H43248326   3.098   3.377   4.519  0.3654 -0.7033 -1.3381
   78MOL   H43348327   2.993   3.322   4.648  2.0611 -0.6060  1.7729
   78MOL   H43448328   3.999   2.687   4.376  0.1401 -0.8560 -0.8242
   78MOL   H43548329   3.888   2.735   4.508  0.2419  0.7355 -0.9773
   78MOL   C43648330   4.001   2.552   4.544  0.3472 -0.0995 -0.3457
   78MOL   O43748331   3.909   2.529   4.654 -0.5801  0.3364 -0.6268
   78MOL   C43848332   3.893   2.389   4.678 -0.6071 -0.1161  0.5873
   78MOL   C43948333   3.820   2.361   4.815  0.5318  0.1126  0.2467
   78MOL   C44048334   3.689   2.440   4.835 -0.1723  0.1498 -0.5675
   78MOL   C44148335   3.568   2.410   4.741  0.0500 -0.1639 -0.0758
   78MOL   C44248336   3.501   2.268   4.768 -0.1456 -0.3413  0.5517
   78MOL   C44348337   3.435   2.268   4.904  0.1422  0.3477  0.1865
   78MOL   C44448338   3.360   2.134   4.929 -0.4365 -0.4030  1.2389
   78MOL   C44548339   3.278   2.121   5.059 -1.0051  0.5227  0.6085
   78MOL   C44648340   4.132   2.615   4.605  0.6142  0.7393 -0.1780
   78MOL   H44748341   4.021   2.459   4.491 -0.0211  0.6305 -1.7919
   78MOL   H44848342   3.836   2.344   4.598 -0.5600 -0.8278  0.9479
   78MOL   H44948343   3.984   2.330   4.671 -0.2022  0.5059  0.5436
   78MOL   H45048344   3.885   2.394   4.896  1.0874  0.0237 -0.1572
   78MOL   H45148345   3.791   2.262   4.849 -0.3910  1.3228  3.1332
   78MOL   H45248346   3.660   2.436   4.940  1.0845 -1.0814 -0.2576
   78MOL   H45348347   3.711   2.545   4.819  0.1540  0.1596 -0.0278
   78MOL   H45448348   3.498   2.488   4.773 -1.1256 -1.3395  0.3070
   78MOL   H45548349   3.599   2.419   4.637 -1.5962  1.2691 -0.4662
   78MOL   H45648350   3.416   2.274   4.700 -0.8429  2.7218  1.6166
   78MOL   H45748351   3.576   2.189   4.770  1.3170  0.9251 -2.3058
   78MOL   H45848352   3.367   2.351   4.922 -0.0838 -0.0221  1.0720
   78MOL   H45948353   3.505   2.288   4.985 -1.1757  2.1992  0.9098
   78MOL   H46048354   3.294   2.112   4.845 -0.1621 -1.5899  1.3112
   78MOL   H46148355   3.431   2.051   4.919  1.8197  1.5258  0.8712
   78MOL   H46248356   3.340   2.117   5.149  0.0770  2.0542 -0.0369
   78MOL   H46348357   3.206   2.039   5.061  0.4152 -0.7190  1.7345
   78MOL   H46448358   3.230   2.219   5.064  0.0401  1.0173  1.1786
   78MOL   H46548359   4.174   2.678   4.527 -1.6573  1.7188 -0.6270
   78MOL   H46648360   4.114   2.680   4.690 -0.1301  1.1372 -0.6400
   78MOL   C46748361   4.235   2.520   4.646 -0.9454  0.2711 -0.6111
   78MOL   O46848362   4.193   2.460   4.766 -0.4543 -0.3317 -0.2977
   78MOL   C46948363   4.261   2.338   4.809  0.2233 -0.1885 -0.3375
   78MOL   C47048364   4.178   2.257   4.907 -0.6025  0.1223 -0.0183
   78MOL   C47148365   4.161   2.333   5.033 -0.5903 -0.2412  0.1251
   78MOL   C47248366   4.076   2.256   5.142 -0.3927 -0.7219  0.3913
   78MOL   C47348367   4.091   2.326   5.277  0.2111  0.3340 -0.1302
   78MOL   C47448368   4.029   2.252   5.394  0.1333 -0.6606  0.9777
   78MOL   C47548369   4.005   2.330   5.524 -0.6319 -1.0076 -0.3144
   78MOL   C47648370   4.134   2.328   5.614  0.3208  0.4266  0.4695
   78MOL   C47748371   4.375   2.573   4.661  0.2724 -0.0382 -0.5180
   78MOL   H47848372   4.224   2.450   4.563  3.2755 -0.9046 -0.3052
   78MOL   H47948373   4.364   2.360   4.839  0.0277  1.8061 -1.0594
   78MOL   H48048374   4.263   2.273   4.721 -2.1709 -0.5331 -0.1621
   78MOL   H48148375   4.238   2.168   4.927  1.2505  1.3351 -0.0374
   78MOL   H48248376   4.085   2.231   4.857  0.2325  0.0052 -1.5451
   78MOL   H48348377   4.261   2.352   5.071 -0.4025 -1.0031  0.0296
   78MOL   H48448378   4.123   2.431   5.003  0.0986 -0.0968 -0.3003
   78MOL   H48548379   3.969   2.272   5.128 -0.3242  1.0531  1.7512
   78MOL   H48648380   4.100   2.150   5.144 -0.6024 -0.7935 -0.6586
   78MOL   H48748381   4.196   2.344   5.299 -0.4572  2.8241  1.2655
   78MOL   H48848382   4.057   2.429   5.270  2.1888  0.9695 -0.8720
   78MOL   H48948383   4.084   2.159   5.410  0.1666 -1.1505 -1.7982
   78MOL   H49048384   3.933   2.220   5.354  0.4405  0.4886 -0.7041
   78MOL   H49148385   3.975   2.432   5.502 -1.5255 -1.2637 -0.3021
   78MOL   H49248386   3.936   2.278   5.591  0.8724 -1.5900  0.8112
   78MOL   H49348387   4.220   2.382   5.574 -0.1993  2.1719  1.6489
   78MOL   H49448388   4.171   2.228   5.635 -0.3857  0.1367  0.3337
   78MOL   H49548389   4.106   2.381   5.706  1.7106 -0.2370  1.2846
   78MOL   H49648390   4.442   2.495   4.698 -0.7459 -1.2911 -1.3068
   78MOL   H49748391   4.411   2.597   4.561 -0.9342  0.1711 -0.8991
   78MOL   C49848392   4.395   2.693   4.758 -0.3155  0.2900  0.7964
   78MOL   O49948393   4.347   2.799   4.683 -0.4764  0.0768  0.4910
   78MOL   C50048394   4.292   2.906   4.763  0.0992  0.3107  0.1252
   78MOL   C50148395   4.248   3.020   4.670 -0.0856 -0.3165 -0.0130
   78MOL   C50248396   4.133   2.963   4.584  0.4168 -0.5644  0.3213
   78MOL   C50348397   4.077   3.074   4.495  0.0047 -0.4586  0.0906
   78MOL   C50448398   3.936   3.054   4.449  0.0167 -0.0027 -0.1045
   78MOL   C50548399   3.864   3.183   4.401  0.1891  0.4668  0.0533
   78MOL   C50648400   3.715   3.176   4.384 -0.1965  0.7747  0.3559
   78MOL   C50748401   3.645   3.307   4.335  0.0220  0.0348  0.0614
   78MOL   C50848402   4.546   2.727   4.785 -0.7984  0.2983 -0.2845
   78MOL   H50948403   4.334   2.688   4.848  1.8468  1.1504  2.3426
   78MOL   H51048404   4.363   2.950   4.833  0.6016 -1.2584  0.6052
   78MOL   H51148405   4.202   2.887   4.822 -1.1266  1.2864 -1.3784
   78MOL   H51248406   4.338   3.040   4.611 -0.1432 -2.2882 -0.8346
   78MOL   H51348407   4.230   3.112   4.724  2.2045  0.3944 -0.4019
   78MOL   H51448408   4.164   2.880   4.520 -0.7462 -0.4398 -0.4167
   78MOL   H51548409   4.062   2.928   4.658 -1.4154 -0.0224 -1.1452
   78MOL   H51648410   4.090   3.170   4.545 -1.0901  0.9775 -2.2788
   78MOL   H51748411   4.145   3.086   4.411 -0.2713 -0.0876 -0.0808
   78MOL   H51848412   3.949   2.992   4.360 -2.2420 -0.9338  0.1994
   78MOL   H51948413   3.874   3.006   4.525 -2.3358  1.7310 -0.8943
   78MOL   H52048414   3.900   3.204   4.301  2.1917  0.8726  0.8459
   78MOL   H52148415   3.882   3.267   4.468 -1.4129  2.1414 -1.5537
   78MOL   H52248416   3.691   3.091   4.320 -0.3282  1.8261 -1.0180
   78MOL   H52348417   3.673   3.146   4.480  0.0916 -0.8786 -0.0258
   78MOL   H52448418   3.670   3.388   4.403 -1.4965 -0.5046  1.3007
   78MOL   H52548419   3.537   3.311   4.321  0.0993  3.2237  0.1049
   78MOL   H52648420   3.690   3.333   4.239 -0.4486  1.7158  0.2831
   78MOL   H52748421   4.606   2.740   4.695 -0.7974  1.6571 -0.0939
   78MOL   H52848422   4.546   2.830   4.821  1.6144  0.2079  0.0233
   78MOL   C52948423   4.630   2.644   4.882  0.0717 -0.1209  0.0990
   78MOL   O53048424   4.660   2.510   4.843 -0.1429 -0.0862 -0.5126
   78MOL   C53148425   4.757   2.506   4.738  0.3460 -0.6245  1.0463
   78MOL   C53248426   4.851   2.381   4.763  0.4094  0.5084  0.3824
   78MOL   C53348427   4.963   2.359   4.657  0.7183  0.3616  0.0037
   78MOL   C53448428   5.027   2.219   4.673  1.2276 -0.2972  0.2899
   78MOL   C53548429   5.148   2.188   4.577  0.6797  0.0068 -0.8393
   78MOL   C53648430   5.191   2.046   4.602 -0.3166  0.4154 -0.2000
   78MOL   C53748431   5.300   1.993   4.497  0.2415 -0.2369  0.1133
   78MOL   C53848432   5.356   1.857   4.545  0.2856  0.5647 -0.4122
   78MOL   C53948433   4.553   2.640   5.020 -0.2128 -0.0384 -0.2750
   78MOL   H54048434   4.721   2.700   4.906  0.4574 -0.8745  0.4230
   78MOL   H54148435   4.703   2.504   4.643  0.4141 -1.1982  1.0160
   78MOL   H54248436   4.821   2.594   4.740 -0.2776 -0.1568  0.6135
   78MOL   H54348437   4.787   2.293   4.772 -0.9212  1.1564 -2.1285
   78MOL   H54448438   4.887   2.397   4.865 -2.7655  5.0997  0.9136
   78MOL   H54548439   4.926   2.368   4.554  0.8931  1.3457  0.0235
   78MOL   H54648440   5.040   2.435   4.664  0.6766  0.5812 -1.5935
   78MOL   H54748441   5.043   2.208   4.781  1.3757  1.9508  0.5167
   78MOL   H54848442   4.958   2.142   4.640  0.2791  1.5934 -2.3288
   78MOL   H54948443   5.129   2.203   4.470 -0.7720  1.0876 -0.4448
   78MOL   H55048444   5.234   2.250   4.605  0.9815 -0.7848 -0.0278
   78MOL   H55148445   5.104   1.981   4.590 -0.9252  0.8794  1.6008
   78MOL   H55248446   5.228   2.029   4.703 -1.7178 -1.0131  0.0958
   78MOL   H55348447   5.256   1.979   4.399  0.4941 -0.3344  0.0139
   78MOL   H55448448   5.376   2.068   4.475 -0.8341  0.8527  0.0397
   78MOL   H55548449   5.389   1.857   4.648 -0.0945  0.7072 -0.2870
   78MOL   H55648450   5.430   1.812   4.479  1.7039  0.3189  1.3283
   78MOL   H55748451   5.281   1.779   4.533  0.2297  0.4407  0.7674
   78MOL   H55848452   4.460   2.584   5.014 -0.2252 -0.1905  1.1481
   78MOL   H55948453   4.611   2.573   5.083  0.1527  0.5378  0.0063
   78MOL   C56048454   4.524   2.771   5.092 -0.3844  0.7325 -0.5041
   78MOL   O56148455   4.645   2.843   5.118 -0.4047  0.1175 -0.1984
   78MOL   C56248456   4.645   2.981   5.084 -0.0320 -0.7099 -0.5387
   78MOL   C56348457   4.794   3.023   5.094  0.0984 -0.0387  0.4418
   78MOL   C56448458   4.803   3.166   5.048  0.3431 -0.0149  0.6669
   78MOL   C56548459   4.943   3.228   5.038 -0.4876 -0.9439 -0.1465
   78MOL   C56648460   5.033   3.237   5.159  0.3171  0.0876 -0.4856
   78MOL   C56748461   5.169   3.302   5.117 -1.0278  0.5060 -0.0404
   78MOL   C56848462   5.262   3.325   5.230  0.1278 -0.4995 -0.1179
   78MOL   C56948463   5.398   3.379   5.190 -0.2222  0.2768  0.2582
   78MOL   C57048464   4.459   2.755   5.234 -0.4067 -0.3109 -0.6339
   78MOL   H57148465   4.459   2.827   5.024  0.9926  2.0622 -0.7665
   78MOL   H57248466   4.581   3.045   5.145  1.5698 -0.2117  0.6452
   78MOL   H57348467   4.623   3.009   4.981 -0.4354  0.3441 -0.1690
   78MOL   H57448468   4.845   2.957   5.024 -1.5657 -0.5123 -0.3453
   78MOL   H57548469   4.833   3.006   5.195 -0.4322  0.5604  0.7481
   78MOL   H57648470   4.760   3.179   4.949 -0.5110  0.3530  1.0777
   78MOL   H57748471   4.747   3.237   5.110 -0.0155 -0.2871  0.6566
   78MOL   H57848472   4.997   3.172   4.962  1.1091  1.4213 -0.8120
   78MOL   H57948473   4.928   3.325   4.990 -0.8653 -1.5577 -1.3000
   78MOL   H58048474   5.006   3.288   5.251  0.2904  0.2348 -0.5740
   78MOL   H58148475   5.048   3.134   5.190 -0.6005  0.2919  0.6286
   78MOL   H58248476   5.156   3.399   5.068  0.5765  0.3435 -0.8192
   78MOL   H58348477   5.229   3.239   5.051  0.3195 -1.0064  2.5649
   78MOL   H58448478   5.231   3.399   5.303  1.6596  0.7298 -0.7067
   78MOL   H58548479   5.281   3.227   5.274  0.3084 -1.1586 -1.6168
   78MOL   H58648480   5.469   3.405   5.268  0.2285 -2.5051  0.8206
   78MOL   H58748481   5.406   3.462   5.120  1.1451  0.1050  0.1937
   78MOL   H58848482   5.451   3.304   5.132  1.3937  0.4538  1.4733
   78MOL   H58948483   4.522   2.687   5.290  0.2976  0.9917  0.1710
   78MOL   H59048484   4.453   2.854   5.279 -0.8692  0.2575 -1.8913
   78MOL   C59148485   4.313   2.703   5.225  0.2471  0.2540  0.2471
   78MOL   O59248486   4.233   2.799   5.152 -0.2623 -0.0931  0.2364
   78MOL   C59348487   4.121   2.748   5.093  0.6624  0.4402  0.5496
   78MOL   C59448488   4.025   2.865   5.073  0.0681  0.1368 -0.7760
   78MOL   C59548489   3.912   2.849   4.974  0.0647 -0.0462 -0.1518
   78MOL   C59648490   3.856   2.986   4.936 -0.2457 -0.8251  0.8674
   78MOL   C59748491   3.756   2.974   4.817 -0.1345  0.4525  0.3475
   78MOL   C59848492   3.689   3.104   4.781  0.9869 -0.0622 -0.2410
   78MOL   C59948493   3.548   3.081   4.728  0.1553 -0.0504 -0.2339
   78MOL   C60048494   3.443   3.095   4.840  0.8261  0.9629 -0.1666
   78MOL   C60148495   4.264   2.700   5.373 -0.5364  0.2580  0.0544
   78MOL   H60248496   4.308   2.603   5.184 -2.4579 -0.3896  2.0263
   78MOL   H60348497   4.077   2.665   5.148 -0.2430  0.4951 -0.0881
   78MOL   H60448498   4.145   2.696   5.001 -1.5739 -0.6412  0.5511
   78MOL   H60548499   4.090   2.943   5.034  0.5472  0.4185  0.5823
   78MOL   H60648500   3.990   2.907   5.167  0.5198  0.3712 -0.7138
   78MOL   H60748501   3.954   2.803   4.885  0.2567  2.1694 -1.2409
   78MOL   H60848502   3.831   2.788   5.014  1.0133 -1.1668  0.0838
   78MOL   H60948503   3.812   3.023   5.029 -0.3398  1.0728  0.0765
   78MOL   H61048504   3.943   3.043   4.906 -0.3446 -0.3968  1.3923
   78MOL   H61148505   3.802   2.928   4.729 -0.8096  1.0812 -0.3368
   78MOL   H61248506   3.675   2.910   4.854 -0.2598  0.4370  0.0491
   78MOL   H61348507   3.755   3.154   4.710  1.9634  0.0985  0.7603
   78MOL   H61448508   3.680   3.167   4.870  0.2596  0.0297 -0.3765
   78MOL   H61548509   3.528   3.149   4.645  0.2841  1.1751  0.7296
   78MOL   H61648510   3.548   2.985   4.677 -0.7853 -0.7849  1.1233
   78MOL   H61748511   3.466   3.013   4.909 -2.4926 -0.9149 -1.1458
   78MOL   H61848512   3.341   3.077   4.804  1.2075 -0.5759 -0.5428
   78MOL   H61948513   3.451   3.193   4.885  0.8205  0.5182  0.8183
   78MOL   H62048514   4.333   2.644   5.437  0.9730  0.1750 -1.5753
   78MOL   H62148515   4.243   2.803   5.399 -0.6142 -0.6754  4.0025
   78MOL   H62248516   4.168   2.648   5.379 -0.8822  0.7691 -0.9811
   79MOL     C148517   5.570   6.145   7.464 -0.0552 -0.0176 -0.4152
   79MOL     O248518   5.590   6.109   7.328 -0.3354  0.1624 -0.2382
   79MOL     C348519   5.606   5.968   7.312 -0.0820  1.0317  0.0579
   79MOL     C448520   5.648   5.924   7.175 -0.3566  0.3600  0.1840
   79MOL     C548521   5.645   5.776   7.158  0.4036  0.4202 -0.8989
   79MOL     C648522   5.741   5.751   7.036  0.5679  0.0987 -0.6503
   79MOL     C748523   5.725   5.608   6.984 -0.2358  0.4183 -0.2697
   79MOL     C848524   5.829   5.586   6.869 -0.3207  0.3440 -0.2110
   79MOL     C948525   5.838   5.446   6.802 -0.4564  0.1841 -0.2169
   79MOL    C1048526   5.848   5.325   6.899 -0.0917 -0.7742  0.0629
   79MOL    C1148527   5.657   6.272   7.473  0.3908 -0.7996 -0.2084
   79MOL    H1248528   5.465   6.170   7.479 -0.2068 -1.3083  0.7139
   79MOL    H1348529   5.503   5.937   7.330  0.2706  0.4137  1.1367
   79MOL    H1448530   5.673   5.926   7.388 -1.2143 -0.6830  0.1383
   79MOL    H1548531   5.746   5.969   7.157 -0.7420  0.5326 -1.5913
   79MOL    H1648532   5.579   5.974   7.106 -1.4252 -1.5420 -0.1382
   79MOL    H1748533   5.667   5.723   7.251  0.4242  2.7685  0.4789
   79MOL    H1848534   5.546   5.754   7.118  0.0976 -0.6317  0.4210
   79MOL    H1948535   5.701   5.820   6.962 -2.4477 -0.4036  0.4521
   79MOL    H2048536   5.845   5.756   7.069  0.1175  0.1492  0.8114
   79MOL    H2148537   5.756   5.535   7.058 -0.9568 -1.0668 -1.3981
   79MOL    H2248538   5.621   5.595   6.953 -1.2609  3.2668  1.7943
   79MOL    H2348539   5.928   5.600   6.913 -1.9424 -0.2150  3.8792
   79MOL    H2448540   5.820   5.666   6.796 -0.3840 -0.2456 -0.8438
   79MOL    H2548541   5.749   5.427   6.742 -1.0449 -1.9420  1.2806
   79MOL    H2648542   5.921   5.451   6.732  1.1789 -0.1103  1.6557
   79MOL    H2748543   5.945   5.322   6.948 -0.0926  0.8082  0.1894
   79MOL    H2848544   5.832   5.237   6.836 -0.2385 -0.2702 -0.6171
   79MOL    H2948545   5.776   5.321   6.980 -0.4837 -0.2875 -0.2585
   79MOL    H3048546   5.755   6.247   7.432  0.0072 -2.2307 -0.2905
   79MOL    H3148547   5.615   6.356   7.418  0.6718 -0.2778  0.3818
   79MOL    H3248548   5.605   6.064   7.528  3.9612 -0.8311 -3.4155
   79MOL    C3348549   5.675   6.317   7.621 -0.1445 -0.7395  0.1812
   79MOL    O3448550   5.705   6.209   7.709  0.2924  0.1997 -0.4027
   79MOL    C3548551   5.846   6.215   7.745  0.6121 -0.2051 -0.1033
   79MOL    C3648552   5.886   6.073   0.009 -0.3981 -0.6906  0.4520
   79MOL    C3748553   5.818   5.971   7.698  0.5308  0.3605 -0.1104
   79MOL    C3848554   5.858   5.830   7.722  0.1007  0.0594  0.3137
   79MOL    C3948555   5.812   5.740   7.613  0.2021 -0.1716  0.0715
   79MOL    C4048556   5.660   5.713   7.600 -0.9210 -0.6139 -0.1955
   79MOL    C4148557   5.614   5.600   7.683 -0.1683  0.7978  0.2101
   79MOL    C4248558   5.493   5.525   7.640  0.0060 -0.7040  0.3578
   79MOL    C4348559   5.548   6.386   7.682  0.1061 -0.1273  0.2489
   79MOL    H4448560   5.760   6.385   7.626 -0.9153  0.5817 -3.1253
   79MOL    H4548561   5.866   6.301   0.035 -0.4171 -2.1273  2.8658
   79MOL    H4648562   5.893   6.233   7.648 -1.8423 -0.7124 -1.3992
   79MOL    H4748563   5.866   6.052   0.114  1.6674  1.2627  1.2849
   79MOL    H4848564   5.995   6.066   7.773 -0.3985 -2.3826  1.3733
   79MOL    H4948565   5.711   5.973   7.718  0.8692 -2.1060  2.3858
   79MOL    H5048566   5.843   5.987   7.593  3.1980 -0.5245  0.3276
   79MOL    H5148567   5.964   5.822   7.745  0.4476 -1.1679 -1.6434
   79MOL    H5248568   5.817   5.796   0.043  0.0791 -0.7337  0.0256
   79MOL    H5348569   5.860   5.756   7.516  0.7410 -2.0778 -0.0054
   79MOL    H5448570   5.853   5.644   7.646  1.0694  0.9388  2.2657
   79MOL    H5548571   5.650   5.690   7.494 -2.9237 -2.7774  0.4086
   79MOL    H5648572   5.603   5.802   7.625  1.1556  1.1436 -1.5105
   79MOL    H5748573   5.691   5.523   7.676 -0.2778  0.7619 -0.7093
   79MOL    H5848574   5.615   5.641   0.009  2.6454  1.1188  0.0830
   79MOL    H5948575   5.399   5.570   7.674  1.3439  0.8757  2.0521
   79MOL    H6048576   5.487   5.434   7.700  1.3749 -1.7185 -0.9880
   79MOL    H6148577   5.493   5.494   7.535  0.9406  0.4262  0.0233
   79MOL    H6248578   5.467   6.314   7.665  0.5591 -0.4355 -0.6085
   79MOL    H6348579   5.554   6.377   0.016  0.1725 -0.7036  0.1990
   79MOL    C6448580   5.514   6.525   7.627  1.1298  0.3037 -0.4578
   79MOL    O6548581   5.627   6.610   7.621  0.4409 -0.4585  0.5428
   79MOL    C6648582   5.615   6.695   7.510  0.0339 -0.2796 -0.8306
   79MOL    C6748583   5.732   6.802   7.506 -0.3259 -0.4804 -0.5114
   79MOL    C6848584   5.763   6.866   7.364  0.3734 -0.0083  0.8855
   79MOL    C6948585   5.876   6.965   7.367  0.7564  0.6134 -0.0611
   79MOL    C7048586   5.871   7.046   7.236  0.4114 -0.0107 -0.5147
   79MOL    C7148587   5.946   7.175   7.264  0.5983  0.5424  0.5546
   79MOL    C7248588   6.096   7.159   7.258  0.0071  0.7104 -0.1128
   79MOL    C7348589   6.174   7.289   7.258 -0.3391 -0.2191 -0.3514
   79MOL    C7448590   5.396   6.603   7.696  0.3328 -1.0376 -0.0016
   79MOL    H7548591   5.481   6.500   7.526  0.2631 -1.6113  0.2808
   79MOL    H7648592   5.522   6.751   7.510  1.5406  2.3870  0.9024
   79MOL    H7748593   5.620   6.636   7.418 -2.1059  3.1275 -3.2755
   79MOL    H7848594   5.824   6.745   7.514  0.0422  0.1250 -0.3510
   79MOL    H7948595   5.712   6.876   7.584 -1.6223  0.9055 -2.1102
   79MOL    H8048596   5.778   6.779   7.299 -2.3047  0.9234 -1.0497
   79MOL    H8148597   5.672   6.914   7.328  1.7635  2.0176 -0.0120
   79MOL    H8248598   5.865   7.036   7.449  3.3262  0.3102  0.5889
   79MOL    H8348599   5.974   6.921   7.385 -0.4745 -1.9168  0.7076
   79MOL    H8448600   5.914   6.991   7.152  2.1071  1.4072 -0.6097
   79MOL    H8548601   5.772   7.081   7.205  0.9285  2.0012 -0.0028
   79MOL    H8648602   5.917   7.217   7.360  1.6283 -0.9852  1.5758
   79MOL    H8748603   5.915   7.238   7.181 -2.0706 -2.7071 -1.0323
   79MOL    H8848604   6.129   7.102   7.345 -1.1191 -0.0540 -0.1757
   79MOL    H8948605   6.117   7.108   7.164  0.0633 -0.8900  0.7462
   79MOL    H9048606   6.161   7.350   7.169  0.0750  0.2156 -0.1178
   79MOL    H9148607   6.282   7.278   7.251 -0.1479  1.6899 -0.6665
   79MOL    H9248608   6.147   7.351   7.343 -1.4695 -1.6135  0.3351
   79MOL    H9348609   5.420   6.624   0.025 -0.2885  0.0929 -0.0873
   79MOL    H9448610   5.375   6.699   7.650 -2.1104 -1.7331 -0.4518
   79MOL    C9548611   5.262   6.538   7.715 -0.4612  0.3833  1.1958
   79MOL    O9648612   5.219   6.475   7.599 -0.0662 -0.4432  0.2854
   79MOL    C9748613   5.118   6.375   7.617 -0.3964 -0.0223 -0.3835
   79MOL    C9848614   5.167   6.269   7.512 -0.1739 -0.1905  0.2319
   79MOL    C9948615   5.084   6.142   7.515  0.6400  0.7262 -0.3181
   79MOL   C10048616   4.953   6.151   7.432  0.3261 -0.1501  0.2508
   79MOL   C10148617   4.887   6.007   7.440  0.1816  0.4723  0.9705
   79MOL   C10248618   4.769   5.975   7.332  0.3024 -0.3375 -0.1145
   79MOL   C10348619   4.714   5.829   7.341 -0.0777  0.0147 -0.8394
   79MOL   C10448620   4.641   5.786   7.468 -0.1137 -0.1582 -0.4010
   79MOL   C10548621   5.154   6.634   7.771  0.5960  0.0485  0.3961
   79MOL   H10648622   5.271   6.463   0.019  0.3203 -0.0877  0.6647
   79MOL   H10748623   5.014   6.398   7.593 -0.2552  0.7700 -0.2742
   79MOL   H10848624   5.118   6.332   7.717 -0.3048  1.6524  0.3485
   79MOL   H10948625   5.268   6.236   7.536  0.2189  0.8879  0.0623
   79MOL   H11048626   5.172   6.315   7.414  0.1770  0.3906  0.5154
   79MOL   H11148627   5.138   6.056   7.474 -1.5030 -2.6735  3.5008
   79MOL   H11248628   5.046   6.119   7.615 -2.1945 -0.4865 -1.6201
   79MOL   H11348629   4.886   6.219   7.484 -1.0191 -0.2381 -1.3237
   79MOL   H11448630   4.960   6.185   7.328 -1.3550  0.6165  0.3757
   79MOL   H11548631   4.966   5.932   7.433  0.1510  0.4994  0.3266
   79MOL   H11648632   4.841   6.001   7.539 -0.6893 -1.6578  0.4672
   79MOL   H11748633   4.819   5.983   7.236 -3.5121  0.7331 -2.0726
   79MOL   H11848634   4.680   6.037   7.338  1.2256  0.9890  0.0044
   79MOL   H11948635   4.644   5.813   7.259  0.0301 -1.1266 -0.7121
   79MOL   H12048636   4.797   5.759   7.342  1.1130  1.3816 -1.8745
   79MOL   H12148637   4.695   5.812   7.559 -1.4178  0.9208  0.0807
   79MOL   H12248638   4.634   5.677   7.470  0.4034 -0.2220 -1.8794
   79MOL   H12348639   4.543   5.834   7.475  0.9570  1.9012  0.9124
   79MOL   H12448640   5.165   6.718   7.702  1.0927 -2.0792 -2.1753
   79MOL   H12548641   5.056   6.589   7.759 -0.1661  1.4484  1.2019
   79MOL   C12648642   5.165   6.672   0.143 -0.0694  0.0830  0.8169
   79MOL   O12748643   5.138   6.539   0.203 -0.3893 -0.2067  0.8435
   79MOL   C12848644   5.189   6.537   0.338 -0.6159  0.0382  0.6959
   79MOL   C12948645   5.259   6.398   0.365  0.1007  0.0299 -0.1817
   79MOL   C13048646   5.404   6.410   0.347  0.3467  0.1144  0.0253
   79MOL   C13148647   5.479   6.278   0.344 -0.1860 -0.9473 -0.0923
   79MOL   C13248648   5.624   6.302   0.361  0.3110  0.2326  0.2605
   79MOL   C13348649   5.694   6.164   0.366 -0.0095  0.2566 -0.0492
   79MOL   C13448650   5.843   6.173   0.379 -0.6859  0.4377  0.2435
   79MOL   C13548651   5.900   6.237   0.503 -0.1308  0.1115 -1.1008
   79MOL   C13648652   5.066   6.778   0.201 -0.2116  0.0780 -0.2458
   79MOL   H13748653   5.271   6.688   0.159  0.4223 -1.3038 -0.8876
   79MOL   H13848654   5.104   6.555   0.405 -1.8200 -1.1648 -0.4715
   79MOL   H13948655   5.268   6.610   0.356 -1.0138  0.4678  0.7112
   79MOL   H14048656   5.210   6.326   0.299 -2.9720  0.6599  1.2987
   79MOL   H14148657   5.221   6.350   0.456  0.4113 -1.3031 -0.7406
   79MOL   H14248658   5.435   6.443   0.248  0.7535 -2.7587 -0.8401
   79MOL   H14348659   5.455   6.474   0.419  0.8194  0.5718 -0.7072
   79MOL   H14448660   5.439   6.216   0.424 -0.6002  0.7333  1.0466
   79MOL   H14548661   5.456   6.225   0.252 -0.0326  1.5368 -1.6183
   79MOL   H14648662   5.662   6.355   0.273 -0.2643 -0.4285 -0.3948
   79MOL   H14748663   5.647   6.358   0.452 -1.8910  1.9113 -0.1758
   79MOL   H14848664   5.678   6.111   0.272  0.8801  0.0077 -0.0669
   79MOL   H14948665   5.651   6.110   0.450 -1.5910  0.8246 -0.4746
   79MOL   H15048666   5.872   6.070   0.357  0.1677  0.6134  0.5221
   79MOL   H15148667   5.891   6.223   0.294  1.3254  0.8485  1.5827
   79MOL   H15248668   5.886   6.177   0.593  1.2617 -0.3750 -1.1856
   79MOL   H15348669   5.869   6.337   0.531  0.7541  0.1673 -0.2963
   79MOL   H15448670   6.009   6.245   0.496 -0.0431 -0.1136 -0.1133
   79MOL   H15548671   4.965   6.747   0.172  0.8578 -1.0800 -2.9836
   79MOL   H15648672   5.075   6.765   0.309  3.2427 -1.7224 -0.6573
   79MOL   C15748673   5.080   6.921   0.147 -0.1825 -0.1693 -0.2455
   79MOL   O15848674   5.199   6.973   0.205 -0.1733  0.2908 -0.5634
   79MOL   C15948675   5.309   6.984   0.103 -0.8366 -1.0177  0.2322
   79MOL   C16048676   5.434   7.053   0.159 -0.0784  0.5327  0.2447
   79MOL   C16148677   5.483   6.991   0.293 -0.3262  0.7424 -0.2208
   79MOL   C16248678   5.554   6.854   0.274 -0.0369  0.2055 -0.1296
   79MOL   C16348679   5.695   6.850   0.214  0.8697 -0.3365 -0.3700
   79MOL   C16448680   5.740   6.714   0.185  0.2267 -0.0735  0.9465
   79MOL   C16548681   5.874   6.725   0.100  0.6326 -0.1718  0.3350
   79MOL   C16648682   5.923   6.593   0.045  0.7062  0.8655  0.2589
   79MOL   C16748683   4.956   7.004   0.195 -0.7341 -0.1172  0.1778
   79MOL   H16848684   5.085   6.917   0.038  1.5738 -4.3350 -0.1253
   79MOL   H16948685   5.278   7.056   0.027  0.6698 -1.2755 -0.6541
   79MOL   H17048686   5.336   6.893   0.050  1.2215 -0.7765  0.7968
   79MOL   H17148687   5.404   7.158   0.165  0.1339  0.6369 -0.5625
   79MOL   H17248688   5.511   7.052   0.082  0.2516 -0.4165  0.5797
   79MOL   H17348689   5.531   7.066   0.356  0.0256 -0.6181  1.1791
   79MOL   H17448690   5.397   6.956   0.349 -1.5287  1.6190 -1.4838
   79MOL   H17548691   5.570   6.803   0.369  0.2356 -0.5971 -0.6058
   79MOL   H17648692   5.490   6.793   0.211  0.5128 -0.9639  0.4276
   79MOL   H17748693   5.687   6.904   0.120  1.2305 -0.4949 -0.4902
   79MOL   H17848694   5.760   6.910   0.278  0.9245 -0.3046 -0.4548
   79MOL   H17948695   5.657   6.667   0.132 -0.1717  0.8087  0.7748
   79MOL   H18048696   5.772   6.655   0.271  0.1082  0.7311  1.5527
   79MOL   H18148697   5.857   6.788   0.012 -2.1508  1.3732  1.9053
   79MOL   H18248698   5.944   6.775   0.166 -0.8897  3.3217 -0.5486
   79MOL   H18348699   5.851   6.564   7.742  0.5347  1.0411  0.3528
   79MOL   H18448700   5.922   6.520   0.126 -4.1577  0.3280 -0.1326
   79MOL   H18548701   6.026   6.602   0.010  0.0767  2.0266 -1.3216
   79MOL   H18648702   4.874   6.944   0.155  2.0818 -3.4161 -0.8828
   79MOL   H18748703   4.946   6.989   0.302  1.2457 -0.1991  0.3588
   79MOL   C18848704   4.952   7.157   0.159  0.0258 -0.7595 -0.6305
   79MOL   O18948705   4.983   7.158   0.020 -0.2007 -0.2714  0.8815
   79MOL   C19048706   4.863   7.182   7.716  0.2677 -1.4157  0.2272
   79MOL   C19148707   4.914   7.178   7.569 -0.3135  0.1896  0.2038
   79MOL   C19248708   4.968   7.038   7.536 -0.3372 -0.7564  0.5510
   79MOL   C19348709   5.027   7.028   7.389  0.4597 -0.1054  0.7376
   79MOL   C19448710   5.030   6.883   7.350 -0.8306  0.1252 -0.5032
   79MOL   C19548711   5.102   6.857   7.221  0.4805 -0.0026 -0.0765
   79MOL   C19648712   5.083   6.724   7.164 -0.5140  0.2684  0.2267
   79MOL   C19748713   5.158   6.610   7.236 -0.2665 -0.7903  0.5584
   79MOL   C19848714   5.046   7.255   0.230  0.3087  0.0533 -0.2551
   79MOL   H19948715   4.847   7.185   0.171  0.6236  0.7584  1.3697
   79MOL   H20048716   4.778   7.120   7.745 -0.1568 -0.3968  1.2566
   79MOL   H20148717   4.841   7.287   7.736  2.1628 -1.2209  1.4234
   79MOL   H20248718   4.998   7.247   7.561 -0.8363  0.5938 -1.8330
   79MOL   H20348719   4.841   7.217   7.499 -0.3544  1.7197  1.0719
   79MOL   H20448720   5.041   7.008   7.611  2.3706  0.1678 -1.5957
   79MOL   H20548721   4.881   6.973   7.543 -0.9076 -0.1850 -0.9780
   79MOL   H20648722   4.952   7.069   7.322  1.9112  0.4954 -0.5735
   79MOL   H20748723   5.117   7.091   7.384 -0.6170  1.6140  2.3517
   79MOL   H20848724   5.073   6.837   7.439 -1.2120  2.2887  0.8342
   79MOL   H20948725   4.931   6.838   7.343 -0.7126  0.1478 -2.8814
   79MOL   H21048726   5.208   6.881   7.238 -0.1306  1.6908  1.5902
   79MOL   H21148727   5.064   6.931   7.150  2.5661 -1.4318 -2.7807
   79MOL   H21248728   4.975   6.710   7.164 -0.7017  1.5967 -0.6577
   79MOL   H21348729   5.117   6.734   7.061  2.5256 -1.4674  1.0009
   79MOL   H21448730   5.145   6.510   7.195  1.0346 -0.4577 -0.6817
   79MOL   H21548731   5.146   6.614   7.345  1.1678 -1.4400  0.7462
   79MOL   H21648732   5.265   6.623   7.244  0.1413 -3.8258  0.6083
   79MOL   H21748733   5.146   7.212   0.215  0.9039  0.9419  1.0327
   79MOL   H21848734   5.054   7.353   0.183 -1.1783 -0.7658 -2.2660
   79MOL   C21948735   5.018   7.287   0.377 -0.6120  0.1018  0.1948
   79MOL   O22048736   4.887   7.329   0.394  0.0287  0.2912 -0.3573
   79MOL   C22148737   4.841   7.448   0.331 -0.2136  1.5778  0.2590
   79MOL   C22248738   4.697   7.486   0.361 -0.2251 -0.4373 -0.4509
   79MOL   C22348739   4.585   7.392   0.325  0.1310  0.4189 -0.0226
   79MOL   C22448740   4.472   7.372   0.432 -0.0846  0.4310  0.9900
   79MOL   C22548741   4.372   7.485   0.427  0.0266 -0.4025 -0.2779
   79MOL   C22648742   4.251   7.463   0.515 -0.1438  0.2517 -0.3332
   79MOL   C22748743   4.135   7.566   0.506  0.0537 -0.0783 -0.6085
   79MOL   C22848744   4.077   7.597   0.366 -0.0074 -0.3731 -0.0894
   79MOL   C22948745   5.129   7.379   0.437  1.2545  0.5816 -0.4022
   79MOL   H23048746   5.020   7.186   0.419  3.9974  0.2843  0.6128
   79MOL   H23148747   4.864   7.435   0.225 -0.4435 -0.0869  0.4093
   79MOL   H23248748   4.900   7.534   0.362  0.0574  0.9783  1.4418
   79MOL   H23348749   4.664   7.582   0.321 -1.8145 -0.8384 -0.1375
   79MOL   H23448750   4.688   7.501   0.469 -0.3331  1.8962 -0.7575
   79MOL   H23548751   4.539   7.433   0.236  1.5464  0.3092 -0.8236
   79MOL   H23648752   4.636   7.299   0.299  0.8382 -0.3637  3.7451
   79MOL   H23748753   4.418   7.281   0.404  1.2794 -0.1434  0.1419
   79MOL   H23848754   4.506   7.368   0.536  0.8539 -2.1935  0.6231
   79MOL   H23948755   4.417   7.578   0.464  0.8344 -1.9309  2.7671
   79MOL   H24048756   4.341   7.515   0.327 -0.6397  1.4865  0.4709
   79MOL   H24148757   4.279   7.475   0.620  3.8725 -2.4492 -0.9629
   79MOL   H24248758   4.209   7.363   0.500 -0.1175  0.2240 -0.2287
   79MOL   H24348759   4.056   7.531   0.571  1.7441 -0.8472  1.0557
   79MOL   H24448760   4.173   7.664   0.535 -1.3415 -0.4102  2.5133
   79MOL   H24548761   3.993   7.663   0.387  0.5832  0.4533 -0.3197
   79MOL   H24648762   4.039   7.512   0.310 -1.3240  0.9828 -1.3005
   79MOL   H24748763   4.156   7.649   0.312  0.0171 -0.2002  0.1129
   79MOL   H24848764   5.230   7.361   0.402  1.6508  0.6814  0.6797
   79MOL   H24948765   5.109   7.483   0.414  1.6625  0.1173 -2.9921
   79MOL   C25048766   5.146   7.361   0.592 -0.0852  0.1986 -0.5249
   79MOL   O25148767   5.028   7.417   0.652  0.2196 -0.2647  0.1383
   79MOL   C25248768   4.967   7.320   0.735  0.5383  0.6822 -0.0113
   79MOL   C25348769   4.877   7.393   0.835  0.8719 -0.2836  0.1460
   79MOL   C25448770   4.754   7.456   0.773 -1.0292 -0.6908 -0.0240
   79MOL   C25548771   4.673   7.557   0.862  0.6874 -1.2857 -0.6979
   79MOL   C25648772   4.541   7.602   0.812 -0.1905 -0.4855  0.3206
   79MOL   C25748773   4.471   7.716   0.893 -0.2022 -0.6741  0.2772
   79MOL   C25848774   4.332   7.758   0.839 -0.0510 -0.3770 -0.1712
   79MOL   C25948775   4.349   0.041   0.697  0.8736  0.1661  0.1660
   79MOL   C26048776   5.269   7.450   0.635  0.2426  0.6885  1.1740
   79MOL   H26148777   5.169   7.254   0.600 -1.2612  0.0800  1.5478
   79MOL   H26248778   5.034   7.265   0.802 -1.6649 -1.9616  0.1095
   79MOL   H26348779   4.911   7.243   0.681  1.6627  0.0644 -0.3131
   79MOL   H26448780   4.938   7.470   0.883 -0.1968  0.3328  0.5260
   79MOL   H26548781   4.855   7.333   0.924  0.7971  0.4547  0.6312
   79MOL   H26648782   4.787   7.512   0.686 -1.4999 -2.9065 -1.6879
   79MOL   H26748783   4.693   7.369   0.748 -0.1851 -1.8138  1.7383
   79MOL   H26848784   4.677   7.536   0.969  0.6308  1.2065 -0.1745
   79MOL   H26948785   4.734   7.648   0.874 -0.9833 -0.1075 -0.9825
   79MOL   H27048786   4.553   7.633   0.708 -0.9981 -0.2005  0.3103
   79MOL   H27148787   4.476   7.515   0.798 -0.1358 -0.2144 -1.7791
   79MOL   H27248788   4.543   0.025   0.896  1.2120 -1.8474 -0.3293
   79MOL   H27348789   4.456   7.693   0.998 -1.1396  0.0583  0.3075
   79MOL   H27448790   4.267   7.671   0.837 -1.5437  0.7148 -0.1200
   79MOL   H27548791   4.276   0.049   0.906 -1.6602 -0.8656 -1.0113
   79MOL   H27648792   4.267   0.104   0.661 -0.0271 -1.1933 -0.2010
   79MOL   H27748793   4.357   7.725   0.636  1.6018  1.3053 -1.4540
   79MOL   H27848794   4.445   0.091   0.707  0.4868  0.7962  0.7549
   79MOL   H27948795   5.350   7.416   0.571 -0.4679  2.1720 -0.5440
   79MOL   H28048796   5.243   7.554   0.613 -0.7818 -0.0199 -1.0720
   79MOL   C28148797   5.313   7.419   0.778  0.3972 -0.3310  0.4762
   79MOL   O28248798   5.373   7.540   0.826 -0.0102  0.2236  0.3414
   79MOL   C28348799   5.280   7.627   0.884  0.2839  0.2209  0.1532
   79MOL   C28448800   5.336   7.763   0.930 -0.6611  0.5038 -0.6338
   79MOL   C28548801   5.225   0.096   0.962  0.3885 -0.8656  0.4182
   79MOL   C28648802   5.188   0.189   0.849 -0.2394 -0.4019  0.0740
   79MOL   C28748803   5.127   0.110   0.736 -0.0161 -0.0078  0.7200
   79MOL   C28848804   5.045   0.185   0.625 -0.9289  0.1690  0.3745
   79MOL   C28948805   4.961   0.107   0.530  0.4095  0.1724  0.3864
   79MOL   C29048806   4.833   0.049   0.590  0.0674 -0.4674  0.2718
   79MOL   C29148807   5.421   7.311   0.788  0.7686 -0.2576 -0.2185
   79MOL   H29248808   5.234   7.377   0.840  2.6251 -2.1017  2.2004
   79MOL   H29348809   5.254   7.578   0.977  0.1424 -0.9844 -0.5154
   79MOL   H29448810   5.197   7.631   0.814  0.4999  1.4974 -0.0551
   79MOL   H29548811   5.406   0.023   0.854 -0.0563  0.4749 -0.0922
   79MOL   H29648812   5.402   7.749   1.016 -0.2143  0.5658 -0.9636
   79MOL   H29748813   5.139   0.042   1.002 -0.8947  0.6476 -0.2248
   79MOL   H29848814   5.264   0.151   1.047 -1.4110 -0.7969  1.2166
   79MOL   H29948815   5.124   0.267   0.889 -1.1488 -0.3215 -1.5212
   79MOL   H30048816   5.288   0.229   0.830 -0.4263  0.8566  1.6889
   79MOL   H30148817   5.202   0.052   0.682 -1.2683 -0.4792 -0.5640
   79MOL   H30248818   5.056   0.042   0.782  0.8421 -1.3512  0.0899
   79MOL   H30348819   5.119   0.236   0.563  0.2347  0.1323  1.6838
   79MOL   H30448820   4.979   0.261   0.667  1.0382  2.8568 -1.1843
   79MOL   H30548821   4.939   0.182   0.453  0.1623 -0.1094  0.1806
   79MOL   H30648822   5.025   0.034   0.481 -1.8557 -1.1693 -0.7026
   79MOL   H30748823   4.792   7.764   0.508 -2.1585 -0.6212  1.4791
   79MOL   H30848824   4.771   0.130   0.626  1.9526  1.8283 -1.4583
   79MOL   H30948825   4.850   7.748   0.667  1.2432 -1.0203 -0.5027
   79MOL   H31048826   5.393   7.227   0.724  0.8997  0.0931 -0.7387
   79MOL   H31148827   5.516   7.344   0.746  1.3692 -0.8124  0.6758
   79MOL   C31248828   5.462   7.255   0.923 -0.2193 -0.1680  0.0897
   79MOL   O31348829   5.563   7.149   0.915 -0.0700  0.3604 -0.1218
   79MOL   C31448830   5.694   7.199   0.920 -0.1392 -0.0522 -0.6050
   79MOL   C31548831   5.796   7.087   0.948  0.2547 -0.2532 -0.3433
   79MOL   C31648832   5.791   6.988   0.827  0.5762  0.0242  0.1061
   79MOL   C31748833   5.899   6.869   0.826 -0.6406 -0.7000  0.0279
   79MOL   C31848834   5.898   6.803   0.690  0.3615 -0.9106 -0.1103
   79MOL   C31948835   6.018   6.708   0.665  0.1178 -0.1747 -0.1070
   79MOL   C32048836   6.019   6.643   0.526  0.3982  0.1950 -0.4079
   79MOL   C32148837   6.148   6.565   0.497  0.6653 -0.8472 -0.5437
   79MOL   C32248838   5.335   7.211   0.999  0.4173 -0.2431  0.0464
   79MOL   H32348839   5.506   7.333   0.986 -0.3418 -1.2870  1.6002
   79MOL   H32448840   5.708   7.259   1.010 -0.7672 -0.1217 -0.4563
   79MOL   H32548841   5.716   7.251   0.827  1.7553  0.0857 -0.1045
   79MOL   H32648842   5.785   7.048   1.049  4.6424 -0.0501  0.3029
   79MOL   H32748843   5.892   7.138   0.945  0.8946 -1.4141 -0.0225
   79MOL   H32848844   5.691   6.945   0.818 -0.2908  1.6860  1.3591
   79MOL   H32948845   5.810   7.050   0.739  0.7469  1.0606  0.8566
   79MOL   H33048846   5.998   6.915   0.832 -0.6402 -0.7411  0.3269
   79MOL   H33148847   5.883   6.794   0.903 -0.0806  0.7423  1.5739
   79MOL   H33248848   5.806   6.748   0.671 -0.4450 -0.0865  1.3232
   79MOL   H33348849   5.910   6.878   0.612  2.2647 -0.8816  0.1992
   79MOL   H33448850   6.014   6.630   0.741  1.1267  0.4963  0.6508
   79MOL   H33548851   6.105   6.773   0.674  0.1358 -0.3225  0.7996
   79MOL   H33648852   5.928   6.591   0.497 -1.2632  3.6102 -1.6037
   79MOL   H33748853   6.019   6.724   0.453  0.1874  0.2231 -0.3766
   79MOL   H33848854   6.234   6.630   0.512 -0.6900  0.3633  2.3846
   79MOL   H33948855   6.148   6.518   0.398  1.4170 -0.9722 -0.4886
   79MOL   H34048856   6.161   6.488   0.574  0.1801  1.6728  2.1214
   79MOL   H34148857   5.269   7.296   1.012 -0.0737 -0.4176 -1.1723
   79MOL   H34248858   5.275   7.145   0.937  1.0550 -0.7213 -0.0643
   79MOL   C34348859   5.358   7.136   1.136 -0.5379 -0.0129  0.2939
   79MOL   O34448860   5.232   7.096   1.186  0.5513  0.7321  0.4391
   79MOL   C34548861   5.193   6.963   1.165 -0.2080 -0.1220  0.1247
   79MOL   C34648862   5.045   6.954   1.231 -0.0319  0.6543 -0.3212
   79MOL   C34748863   4.978   6.813   1.205  0.4674 -0.0830 -0.6980
   79MOL   C34848864   4.834   6.839   1.170  0.4644  0.1261  0.1608
   79MOL   C34948865   4.817   6.833   1.014 -0.1157  0.0484 -0.7465
   79MOL   C35048866   4.673   6.794   0.972  0.4301  0.2948 -0.4024
   79MOL   C35148867   4.570   6.910   0.965 -0.5795 -0.2833 -0.2734
   79MOL   C35248868   4.609   7.043   0.897 -0.1343 -0.3995 -0.1616
   79MOL   C35348869   5.434   7.229   1.242  0.3757 -0.3466 -0.6823
   79MOL   H35448870   5.425   7.052   1.116  0.0498  0.0621  1.8295
   79MOL   H35548871   5.259   6.900   1.225  0.3047 -0.8918 -1.2242
   79MOL   H35648872   5.193   6.926   1.063  1.5027 -1.6409  0.6583
   79MOL   H35748873   4.987   7.040   1.198  0.7528  0.8211 -1.2805
   79MOL   H35848874   5.049   6.955   1.340 -1.4152 -1.0700 -0.2360
   79MOL   H35948875   5.030   6.755   1.128 -0.7435 -1.0875 -0.7808
   79MOL   H36048876   4.983   6.735   1.281 -1.8945  0.4795  0.0811
   79MOL   H36148877   4.769   6.769   1.222 -2.5035  2.3395 -0.4636
   79MOL   H36248878   4.797   6.933   1.210  2.4401  1.2094 -0.4595
   79MOL   H36348879   4.854   6.922   0.962 -0.3059  0.7400  0.2862
   79MOL   H36448880   4.877   6.749   0.979 -1.0502 -1.0597  0.2477
   79MOL   H36548881   4.626   6.718   1.035 -1.2723  1.6327 -0.0259
   79MOL   H36648882   4.687   6.757   0.870 -1.3438 -0.1168 -0.5044
   79MOL   H36748883   4.474   6.873   0.929 -0.5486 -1.3676  0.7205
   79MOL   H36848884   4.554   6.930   1.071  1.0781  0.1251 -0.0868
   79MOL   H36948885   4.696   7.097   0.935 -1.7648  1.3804  1.1535
   79MOL   H37048886   4.525   7.111   0.913  0.2390  0.3245 -1.2553
   79MOL   H37148887   4.627   7.035   0.790  2.5630 -1.4700  0.3238
   79MOL   H37248888   5.453   7.175   1.334  1.4150 -0.1781 -0.8005
   79MOL   H37348889   5.533   7.236   1.199  1.8363 -0.9783  2.4664
   79MOL   C37448890   5.370   7.369   1.268 -0.2264 -0.4328  0.3736
   79MOL   O37548891   5.465   7.458   1.325  0.1294  0.3386 -0.1810
   79MOL   C37648892   5.531   7.538   1.227 -0.2178  0.2675  0.9338
   79MOL   C37748893   5.616   7.650   1.285 -0.5338 -0.0737 -0.0791
   79MOL   C37848894   5.543   7.758   1.372  0.2654  0.4608  0.6496
   79MOL   C37948895   5.479   7.723   1.504 -0.7135 -0.5712  0.0109
   79MOL   C38048896   5.581   7.671   1.605 -0.2620 -0.9561 -0.8191
   79MOL   C38148897   5.528   7.651   1.742 -0.0776 -0.4394 -0.3198
   79MOL   C38248898   5.552   7.516   1.814 -0.5824 -0.2098 -0.0199
   79MOL   C38348899   5.464   7.403   1.769  0.3102 -0.3948  0.0007
   79MOL   C38448900   5.255   7.361   1.369 -0.4770 -0.0021  0.6162
   79MOL   H38548901   5.326   7.412   1.178  2.3167  0.9625 -0.2686
   79MOL   H38648902   5.465   7.571   1.147  1.4955 -0.4793 -0.8337
   79MOL   H38748903   5.603   7.485   1.165 -0.2449  1.0600  0.2059
   79MOL   H38848904   5.665   7.701   1.202  1.1019 -1.0608  0.2638
   79MOL   H38948905   5.696   7.615   1.350 -1.3204 -3.0166 -0.6202
   79MOL   H39048906   5.619   0.059   1.390  1.0082 -0.3917  1.0956
   79MOL   H39148907   5.466   0.038   1.316 -1.2302 -1.5878  0.6636
   79MOL   H39248908   5.425   0.037   1.539 -0.4012  0.2223 -1.4929
   79MOL   H39348909   5.400   7.648   1.496 -1.1771 -0.0696 -0.1296
   79MOL   H39448910   5.622   7.579   1.563  2.3416 -0.1812 -0.0693
   79MOL   H39548911   5.674   7.728   1.614 -1.0805 -0.0748  2.5675
   79MOL   H39648912   5.420   7.665   1.750 -0.2589 -1.5618 -0.6541
   79MOL   H39748913   5.576   7.728   1.803  1.0882 -3.2956  2.5008
   79MOL   H39848914   5.655   7.480   1.803  0.0490  0.8137  2.1553
   79MOL   H39948915   5.539   7.533   1.921 -0.2677  1.1313 -0.1885
   79MOL   H40048916   5.474   7.314   1.832 -1.3342 -1.1575 -0.7887
   79MOL   H40148917   5.499   7.361   1.675  0.9458 -2.6351  1.2162
   79MOL   H40248918   5.357   7.422   1.777  0.6246  0.7966  1.6379
   79MOL   H40348919   5.208   7.263   1.360 -0.0356 -0.0721 -1.1026
   79MOL   H40448920   5.307   7.371   1.464 -0.3975  0.6166  0.5091
   79MOL   C40548921   5.143   7.461   1.349 -0.4260 -0.5933 -0.8885
   79MOL   O40648922   5.074   7.469   1.475  0.1162 -0.2922 -0.5344
   79MOL   C40748923   5.121   7.576   1.553  0.0618  0.7029  0.0509
   79MOL   C40848924   5.048   7.594   1.689 -0.2947 -0.1109 -0.0215
   79MOL   C40948925   4.895   7.616   1.680 -0.4414  0.0853  0.1906
   79MOL   C41048926   4.828   7.603   1.824 -0.1965 -0.2424 -0.3661
   79MOL   C41148927   4.680   7.630   1.842 -0.3945  0.2149  0.5020
   79MOL   C41248928   4.596   7.500   1.824  0.2775 -0.0015 -0.0881
   79MOL   C41348929   4.585   7.425   1.688 -0.0864 -0.0829  0.2411
   79MOL   C41448930   4.483   7.317   1.679 -0.0962 -0.0983 -1.1611
   79MOL   C41548931   5.033   7.419   1.247  0.2454 -0.4647  0.1821
   79MOL   H41648932   5.187   7.558   1.329  1.6511 -1.2031  0.4559
   79MOL   H41748933   5.113   7.667   1.494 -0.3971  0.4651 -0.2524
   79MOL   H41848934   5.225   7.558   1.583 -0.2095  1.1965  1.3116
   79MOL   H41948935   5.090   7.674   1.749  0.7042 -0.3084 -0.4570
   79MOL   H42048936   5.050   7.495   1.735 -1.8320 -0.4115 -0.5443
   79MOL   H42148937   4.875   7.716   1.643  0.1813  0.6737  1.4025
   79MOL   H42248938   4.863   7.544   1.605  0.6433  0.8266 -0.9933
   79MOL   H42348939   4.845   7.505   1.869  0.6507  0.7217  1.4552
   79MOL   H42448940   4.879   7.679   1.883  0.5661 -1.1203  0.1254
   79MOL   H42548941   4.679   7.666   1.945 -0.5509  0.3849  0.4425
   79MOL   H42648942   4.639   7.701   1.770 -0.5129  1.9015  2.1998
   79MOL   H42748943   4.494   7.521   1.856 -0.1429 -0.4888 -1.0753
   79MOL   H42848944   4.618   7.425   1.899  1.2940 -0.4276 -0.8071
   79MOL   H42948945   4.564   7.504   1.617 -2.7724 -2.0119 -1.1768
   79MOL   H43048946   4.681   7.379   1.663  0.4813  1.6119 -0.7578
   79MOL   H43148947   4.530   7.234   1.732 -0.1656  1.9908  2.3721
   79MOL   H43248948   4.478   7.288   1.574 -1.7229  2.0617 -1.7226
   79MOL   H43348949   4.386   7.332   1.727 -0.1320  0.6089 -1.4531
   79MOL   H43448950   5.063   7.417   1.142 -1.1900  0.6163 -0.2693
   79MOL   H43548951   5.004   7.318   1.277 -2.0632  0.2014  0.2839
   79MOL   C43648952   4.906   7.509   1.239  0.4675  0.0204 -0.4122
   79MOL   O43748953   4.795   7.451   1.166 -0.2139  0.8268 -0.6471
   79MOL   C43848954   4.742   7.324   1.212 -0.6709 -0.0748 -0.1029
   79MOL   C43948955   4.598   7.304   1.155 -0.4670 -0.0520 -1.4503
   79MOL   C44048956   4.495   7.393   1.220  0.3900 -0.1589 -0.3495
   79MOL   C44148957   4.350   7.360   1.201  0.8129  0.4505  0.3038
   79MOL   C44248958   4.321   7.355   1.054 -0.3440  0.4713  0.2380
   79MOL   C44348959   4.169   7.336   1.032  0.0241  0.1106 -0.0456
   79MOL   C44448960   4.127   7.299   0.888 -0.1422  0.1304 -0.0994
   79MOL   C44548961   3.977   7.323   0.870  0.1970  1.1434  0.0112
   79MOL   C44648962   4.925   7.658   1.183  0.2405  0.2266 -0.2353
   79MOL   H44748963   4.871   7.513   1.342  0.5044  1.3039 -0.4423
   79MOL   H44848964   4.805   7.238   1.190 -0.4372  0.4606 -1.5960
   79MOL   H44948965   4.727   7.321   1.320 -0.2459 -0.0467 -0.0440
   79MOL   H45048966   4.576   7.199   1.176  2.3370 -0.5218 -0.6508
   79MOL   H45148967   4.602   7.311   1.046 -1.2810  1.9554 -1.3623
   79MOL   H45248968   4.510   7.391   1.327 -0.2161  0.4454 -0.2506
   79MOL   H45348969   4.515   7.495   1.186  0.4369 -0.0732 -0.0632
   79MOL   H45448970   4.338   7.265   1.252  0.4867 -0.3086 -1.1608
   79MOL   H45548971   4.283   7.428   1.254 -0.3581 -0.8917  0.5803
   79MOL   H45648972   4.357   7.449   1.012 -0.1364  0.2514 -0.0882
   79MOL   H45748973   4.378   7.277   1.002 -0.5826 -0.4007  1.2749
   79MOL   H45848974   4.129   7.431   1.067 -0.1885 -0.1624  0.4480
   79MOL   H45948975   4.132   7.256   1.095  0.1366 -0.1486 -0.3065
   79MOL   H46048976   4.190   7.349   0.814  0.5913 -0.6231  0.0140
   79MOL   H46148977   4.155   7.194   0.883 -0.4789 -0.0334  1.2561
   79MOL   H46248978   3.947   7.292   0.770  1.4837 -2.1407  0.5899
   79MOL   H46348979   3.947   7.428   0.872  0.0834  1.1262 -0.8355
   79MOL   H46448980   3.930   7.273   0.954  2.0889 -0.3069  0.2246
   79MOL   H46548981   5.007   7.695   1.245  2.1082 -1.9392 -1.3215
   79MOL   H46648982   4.966   7.664   1.082  2.2942  2.0216  0.6547
   79MOL   C46748983   4.819   7.756   1.214 -0.1779 -0.5030  0.4223
   79MOL   O46848984   4.877   0.104   1.160  0.7140 -0.0308  0.2051
   79MOL   C46948985   4.801   0.180   1.066  0.3383 -0.8354  0.3705
   79MOL   C47048986   4.856   0.322   1.066 -0.1860 -0.2035 -0.3098
   79MOL   C47148987   4.900   0.386   1.198  0.6784 -0.0197 -0.4668
   79MOL   C47248988   4.972   0.521   1.187 -0.2154  0.9122  0.3301
   79MOL   C47348989   5.074   0.563   1.304 -0.2524  0.6908 -0.0607
   79MOL   C47448990   5.123   0.704   1.293  0.3633 -0.0267 -0.3043
   79MOL   C47548991   5.030   0.824   1.305  0.1232 -0.8285 -0.0574
   79MOL   C47648992   5.088   0.964   1.274 -0.4477 -0.8166  0.4953
   79MOL   C47748993   4.764   7.773   1.360 -0.9346  0.0396  0.3083
   79MOL   H47848994   4.727   7.730   1.161  0.7510 -1.3393 -0.8003
   79MOL   H47948995   4.697   0.176   1.098 -0.5503  3.6966 -1.4940
   79MOL   H48048996   4.808   0.130   0.969  1.2170  3.5816 -1.9676
   79MOL   H48148997   4.784   0.391   1.023 -1.4748 -1.6205 -0.4644
   79MOL   H48248998   4.948   0.329   1.009 -0.4797 -1.0427 -0.8989
   79MOL   H48348999   4.821   0.395   1.272  0.8798 -1.6219 -0.0416
   79MOL   H48449000   4.977   0.321   1.241  1.2714 -0.4248 -2.0982
   79MOL   H48549001   5.013   0.557   1.093  1.7106 -0.4997  0.6066
   79MOL   H48649002   4.890   0.593   1.185 -1.3948 -0.4146 -0.0929
   79MOL   H48749003   5.010   0.567   1.391  0.5135  0.1454  0.5413
   79MOL   H48849004   5.162   0.498   1.307 -1.1621 -0.5736 -0.1189
   79MOL   H48949005   5.186   0.716   1.204 -0.0710 -0.4489 -0.6669
   79MOL   H49049006   5.201   0.717   1.368  2.7141 -1.3518 -2.4149
   79MOL   H49149007   4.940   0.806   1.246 -0.3095 -3.5531  1.3749
   79MOL   H49249008   4.980   0.825   1.402 -1.1896 -1.0268 -0.7145
   79MOL   H49349009   5.023   1.050   1.291  0.6858  0.3227 -0.8090
   79MOL   H49449010   5.125   0.969   1.172 -1.3478  1.2104  0.2421
   79MOL   H49549011   5.174   0.990   1.336  0.6432 -0.4409 -1.1561
   79MOL   H49649012   4.750   7.674   1.404 -0.9389  0.8135  2.0873
   79MOL   H49749013   4.848   0.049   1.407 -0.2316 -0.3249 -0.5434
   79MOL   C49849014   4.631   0.083   1.375  0.5888 -1.0715 -0.4038
   79MOL   O49949015   4.588   0.098   1.513  0.2311  0.1739  0.3556
   79MOL   C50049016   4.663   0.180   1.605  0.0138 -0.0216  1.6816
   79MOL   C50149017   4.615   0.323   1.605 -0.2508 -0.5531  0.0447
   79MOL   C50249018   4.694   0.430   1.676 -0.3193  0.3582 -0.3824
   79MOL   C50349019   4.623   0.564   1.670 -0.2918 -0.2395 -0.2406
   79MOL   C50449020   4.687   0.668   1.771  0.3337  0.2821  0.3292
   79MOL   C50549021   4.825   0.723   1.730  0.3250  0.3104  0.4578
   79MOL   C50649022   4.879   0.830   1.827  0.3618 -0.1904  0.3154
   79MOL   C50749023   5.005   0.892   1.757  0.3000 -0.2705 -0.0097
   79MOL   C50849024   4.507   0.019   1.314  0.0532 -0.0373  1.0369
   79MOL   H50949025   4.643   0.186   1.341 -1.2677 -0.3589  0.9897
   79MOL   H51049026   4.767   0.174   1.574 -0.5695 -0.9089 -0.1425
   79MOL   H51149027   4.660   0.123   1.698 -2.1936 -2.9446 -0.0941
   79MOL   H51249028   4.511   0.325   1.637 -1.0014  0.0974 -2.3215
   79MOL   H51349029   4.596   0.351   1.501 -3.5284 -0.6495  0.5547
   79MOL   H51449030   4.714   0.385   1.774 -0.0400 -0.4899 -0.8194
   79MOL   H51549031   4.785   0.441   1.617 -1.0267 -0.6620 -1.7061
   79MOL   H51649032   4.620   0.605   1.569 -2.6802  0.1100 -0.0546
   79MOL   H51749033   4.516   0.547   1.684 -0.2443  0.6050  1.3164
   79MOL   H51849034   4.618   0.752   1.774  0.0780  0.0237  1.9014
   79MOL   H51949035   4.679   0.617   1.867 -1.3156 -3.6098 -1.7278
   79MOL   H52049036   4.813   0.764   1.630  0.5901  0.6795  0.5763
   79MOL   H52149037   4.899   0.644   1.724  0.1535  0.2131 -0.3923
   79MOL   H52249038   4.802   0.905   1.844 -0.0459 -1.3187  3.7856
   79MOL   H52349039   4.910   0.792   1.924  1.3479 -0.1937  0.0061
   79MOL   H52449040   5.044   0.978   1.812 -0.9446  1.2521 -1.4602
   79MOL   H52549041   4.975   0.932   1.660 -1.1866  1.3319  1.0872
   79MOL   H52649042   5.089   0.823   1.747  0.6820 -0.0402  1.4177
   79MOL   H52749043   4.521   7.737   1.222 -1.3413 -0.2610  0.9495
   79MOL   H52849044   4.488   7.709   1.380  1.1475 -0.2852  1.0421
   79MOL   C52949045   4.383   0.113   1.289 -0.0029  0.0249 -0.0278
   79MOL   O53049046   4.269   0.044   1.253  0.3787  0.3824  0.0742
   79MOL   C53149047   4.235   7.724   1.356 -0.5603  0.0264 -0.1710
   79MOL   C53249048   4.084   7.713   1.357 -0.5325  0.1268 -0.6143
   79MOL   C53349049   4.010   0.072   1.367 -0.0371 -0.1789  0.2736
   79MOL   C53449050   3.853   0.070   1.354 -0.2425 -0.0203 -0.8697
   79MOL   C53549051   3.793   0.023   1.219  0.0608  0.2026  0.1011
   79MOL   C53649052   3.752   0.122   1.117 -0.0065 -0.1717 -0.2873
   79MOL   C53749053   3.872   0.181   1.040 -0.3282 -0.5595  0.1391
   79MOL   C53849054   3.833   0.308   0.956 -0.6936  0.2975 -0.4382
   79MOL   C53949055   4.416   0.224   1.178  0.2354  0.2605  0.3345
   79MOL   H54049056   4.367   0.166   1.383  0.1871 -0.6003  0.3569
   79MOL   H54149057   4.268   7.626   1.322  0.7977 -0.7501  3.2561
   79MOL   H54249058   4.277   7.745   1.454 -1.1359  0.0655  0.0694
   79MOL   H54349059   4.058   7.656   1.446  1.2661 -0.2672 -0.3343
   79MOL   H54449060   4.047   7.663   1.267 -1.8681 -0.3247  0.1584
   79MOL   H54549061   4.041   0.126   1.457 -1.2447 -0.4974  0.8828
   79MOL   H54649062   4.043   0.131   1.281  0.1266 -2.4885 -1.2996
   79MOL   H54749063   3.822   7.773   1.431 -1.4171 -0.0254 -1.3466
   79MOL   H54849064   3.828   0.172   1.383  0.9738  0.5885 -1.9235
   79MOL   H54949065   3.860   7.722   1.178  1.7456  0.5254  2.2047
   79MOL   H55049066   3.708   7.737   1.252  0.7775  0.0665  1.7549
   79MOL   H55149067   3.691   0.199   1.163  1.8755  0.0865  1.8940
   79MOL   H55249068   3.691   0.062   1.050  1.1360 -2.0217  0.2758
   79MOL   H55349069   3.946   0.215   1.113  0.7840 -0.9971 -0.7871
   79MOL   H55449070   3.932   0.110   0.984 -1.0593  0.4754 -2.0057
   79MOL   H55549071   3.778   0.377   1.020 -2.3470 -2.9901  1.8354
   79MOL   H55649072   3.766   0.281   0.875  0.2122  0.6569 -1.3161
   79MOL   H55749073   3.925   0.342   0.909  0.1600 -1.9440 -0.4451
   79MOL   H55849074   4.493   0.295   1.207  0.8313 -0.5581  0.7795
   79MOL   H55949075   4.453   0.175   1.088  0.3021  2.3205 -0.7886
   79MOL   C56049076   4.283   0.308   1.138 -0.1862 -0.4222 -0.2229
   79MOL   O56149077   4.322   0.396   1.031 -0.2647 -0.4677 -0.2374
   79MOL   C56249078   4.311   0.335   0.903  0.6407 -0.7386  0.7126
   79MOL   C56349079   4.370   0.436   0.798 -0.0654 -0.1259 -0.5008
   79MOL   C56449080   4.517   0.475   0.816 -0.2502  0.5000  0.4586
   79MOL   C56549081   4.562   0.561   0.691 -0.6151  0.2276  0.7849
   79MOL   C56649082   4.712   0.604   0.702 -0.1127  0.0108 -0.1628
   79MOL   C56749083   4.731   0.738   0.778 -0.6749 -0.4958  0.1937
   79MOL   C56849084   4.879   0.784   0.790  0.1333  0.0087 -0.2195
   79MOL   C56949085   4.895   0.907   0.869 -0.8329 -0.4616 -0.3132
   79MOL   C57049086   4.226   0.391   1.253  0.0404  0.8795 -0.0311
   79MOL   H57149087   4.212   0.235   1.098 -2.6085  1.5835  0.2522
   79MOL   H57249088   4.205   0.310   0.894  0.4208  0.9494 -1.7156
   79MOL   H57349089   4.364   0.240   0.908  1.7903 -0.1531 -0.2069
   79MOL   H57449090   4.313   0.529   0.800  0.6726  0.3656 -1.8735
   79MOL   H57549091   4.357   0.388   0.701  1.9721  0.7587 -1.2419
   79MOL   H57649092   4.549   0.524   0.908  0.4207 -0.3579  0.6977
   79MOL   H57749093   4.579   0.385   0.807 -2.0359 -0.7064 -0.0741
   79MOL   H57849094   4.544   0.494   0.608 -0.5040  1.3430 -0.1526
   79MOL   H57949095   4.490   0.644   0.687 -0.9913 -0.1175  0.3792
   79MOL   H58049096   4.769   0.522   0.746 -1.6301 -0.1349  1.6471
   79MOL   H58149097   4.754   0.620   0.603 -2.6803 -1.7319 -1.6044
   79MOL   H58249098   4.686   0.740   0.877 -1.7301 -0.0634 -0.2819
   79MOL   H58349099   4.677   0.820   0.731  0.5528 -0.6805 -1.5788
   79MOL   H58449100   4.936   0.707   0.842  2.8003  2.1496  0.0783
   79MOL   H58549101   4.930   0.793   0.694  4.5007 -3.5499  1.5564
   79MOL   H58649102   4.870   0.888   0.973  1.3881 -0.6292  0.2109
   79MOL   H58749103   4.838   0.994   0.837  2.2832  1.4298 -0.9893
   79MOL   H58849104   5.001   0.932   0.866 -1.2983  1.4951 -1.6687
   79MOL   H58949105   4.138   0.448   1.225 -0.3424 -0.3619 -1.4430
   79MOL   H59049106   4.179   0.323   1.324  0.4039  1.5013  0.8126
   79MOL   C59149107   4.339   0.470   1.327  0.8672 -0.1682 -0.6842
   79MOL   O59249108   4.280   0.543   1.431 -0.0568  0.2309 -0.3777
   79MOL   C59349109   4.239   0.471   1.541 -0.4389 -0.5981 -0.3299
   79MOL   C59449110   4.201   0.555   1.657  0.4791 -0.4401 -0.3538
   79MOL   C59549111   4.168   0.472   1.783 -0.1904  0.6091  0.4755
   79MOL   C59649112   4.083   0.545   1.895 -0.2031  0.1938 -0.1385
   79MOL   C59749113   4.074   0.475   2.030  0.5608 -0.1178  0.0470
   79MOL   C59849114   4.064   0.573   2.153  0.7237  0.3262 -0.1452
   79MOL   C59949115   4.079   0.489   2.289  0.4385  0.6231  0.4502
   79MOL   C60049116   4.122   0.570   2.412 -0.2646  0.4874  0.0522
   79MOL   C60149117   4.406   0.576   1.238  0.2879  0.4692 -0.4089
   79MOL   H60249118   4.406   0.402   1.379 -0.7192  1.0445  3.0956
   79MOL   H60349119   4.320   0.408   1.579 -0.2087 -0.1581 -0.0843
   79MOL   H60449120   4.152   0.409   1.520 -1.7560  1.4051 -0.8620
   79MOL   H60549121   4.110   0.607   1.626 -2.4920 -4.0408  1.7481
   79MOL   H60649122   4.265   0.642   1.667  0.1692 -0.2120 -0.3395
   79MOL   H60749123   4.104   0.386   1.760  1.7702 -0.7466 -0.0430
   79MOL   H60849124   4.263   0.437   1.822 -0.2005 -0.7468 -0.6762
   79MOL   H60949125   4.113   0.649   1.906 -0.7174  0.4491 -1.0913
   79MOL   H61049126   3.982   0.549   1.854 -0.5380 -0.6035  0.6004
   79MOL   H61149127   3.986   0.412   2.041 -0.3112  1.1739  0.5490
   79MOL   H61249128   4.158   0.406   2.040  1.5862  1.1520  0.2830
   79MOL   H61349129   3.978   0.640   2.152  0.6560  0.2869 -3.2099
   79MOL   H61449130   4.151   0.638   2.148  0.6208  0.4708 -0.0518
   79MOL   H61549131   3.988   0.433   2.310 -0.0192  1.4991  0.8615
   79MOL   H61649132   4.146   0.404   2.281  0.5409  0.6617  0.8955
   79MOL   H61749133   4.173   0.528   2.499  2.1841  1.0885 -1.0681
   79MOL   H61849134   4.038   0.620   2.461 -0.3727 -0.1591  0.5285
   79MOL   H61949135   4.201   0.642   2.392  0.7982 -1.3886 -2.6672
   79MOL   H62049136   4.471   0.540   1.159  1.3976  0.4399  0.5118
   79MOL   H62149137   4.327   0.639   1.197  0.0286 -0.4804 -1.4076
   79MOL   H62249138   4.462   0.644   1.302 -0.0090  0.0284  0.3244
   80MOL     C149139   3.697   5.554   0.531 -1.1179 -0.4272  0.1494
   80MOL     O249140   3.774   5.560   0.651 -0.0858  0.2434 -0.1448
   80MOL     C349141   3.825   5.688   0.683 -0.3304  0.5540  0.0203
   80MOL     C449142   3.896   5.683   0.821  0.2336 -0.3640 -0.0160
   80MOL     C549143   3.794   5.659   0.932 -0.7809 -0.1130 -0.0418
   80MOL     C649144   3.877   5.640   1.059  0.4943  0.1000 -0.3613
   80MOL     C749145   3.792   5.644   1.196 -0.2513  0.9933  0.8412
   80MOL     C849146   3.874   5.683   1.320 -0.0596 -0.4594  0.6344
   80MOL     C949147   3.797   5.673   1.453  0.3789  0.4895  0.1500
   80MOL    C1049148   3.883   5.708   1.578 -0.3851 -1.0829 -0.1728
   80MOL    C1149149   3.784   5.559   0.401  0.3637  0.4557  0.0026
   80MOL    H1249150   3.657   5.452   0.537  2.1576 -1.7002  2.5060
   80MOL    H1349151   3.743   5.760   0.681  1.1489  2.2806  0.2749
   80MOL    H1449152   3.884   5.719   0.597 -0.0311  1.8867  0.6761
   80MOL    H1549153   3.944   5.781   0.825 -1.3873  0.4870 -0.9468
   80MOL    H1649154   3.980   5.615   0.833  1.7801  1.4555 -0.3438
   80MOL    H1749155   3.718   5.737   0.937  1.8680  2.5732 -0.3221
   80MOL    H1849156   3.729   5.574   0.911 -0.7942  0.0393 -0.6255
   80MOL    H1949157   3.935   5.548   1.060 -0.7142 -0.6685  0.6761
   80MOL    H2049158   3.936   5.729   1.081 -0.5016  1.1435 -1.8442
   80MOL    H2149159   3.700   5.700   1.179  0.4955  1.2845 -2.4802
   80MOL    H2249160   3.747   5.544   1.196 -2.1397  1.8295  1.0137
   80MOL    H2349161   3.919   5.782   1.313  0.1088 -0.6033 -0.4796
   80MOL    H2449162   3.962   5.619   1.325 -0.8923 -1.5142  2.2568
   80MOL    H2549163   3.704   5.729   1.446  0.1090  0.2953  2.0564
   80MOL    H2649164   3.763   5.569   1.453  0.5735  0.4121 -1.3493
   80MOL    H2749165   3.978   5.754   1.552 -0.5909 -0.5820 -0.0358
   80MOL    H2849166   3.903   5.631   1.653  0.1039  0.4593  1.3044
   80MOL    H2949167   3.837   5.794   1.625 -0.9421  0.3869 -3.2759
   80MOL    H3049168   3.858   5.638   0.410 -0.4911  1.1819  0.7298
   80MOL    H3149169   3.829   5.461   0.384 -0.1992  0.1347  0.3451
   80MOL    H3249170   3.614   5.623   0.531  0.1129  1.1193  2.2883
   80MOL    C3349171   3.697   5.587   0.275 -0.0698  0.1313  0.5112
   80MOL    O3449172   3.768   5.545   0.163  0.5826 -0.3063  0.0531
   80MOL    C3549173   3.763   5.401   0.143 -0.9854  0.3181 -0.0743
   80MOL    C3649174   3.892   5.351   0.075  0.0053  0.0444  0.0545
   80MOL    C3749175   4.031   5.383   0.134  0.2649 -0.7434  0.0433
   80MOL    C3849176   4.146   5.294   0.071 -0.0815 -0.5176 -0.2676
   80MOL    C3949177   4.281   5.350   0.093 -0.0615  0.6512  0.1717
   80MOL    C4049178   4.390   5.276   0.015 -0.4180 -0.4846  0.6283
   80MOL    C4149179   4.531   5.328   0.035 -0.0032  0.4055 -0.2142
   80MOL    C4249180   4.629   5.264   7.714 -0.1829  0.3562 -0.1887
   80MOL    C4349181   3.656   5.737   0.247  0.7423  0.0280  0.0717
   80MOL    H4449182   3.610   5.522   0.277  0.2516 -0.3420 -0.2339
   80MOL    H4549183   3.678   5.373   0.081 -0.2864 -0.0818 -0.8743
   80MOL    H4649184   3.755   5.341   0.233  0.9717 -0.0663 -0.1250
   80MOL    H4749185   3.897   5.403   7.753  1.9250 -0.0080  0.1059
   80MOL    H4849186   3.879   5.245   0.053 -2.1143  0.3816 -0.4900
   80MOL    H4949187   4.057   5.486   0.108 -0.5327 -1.1861 -2.6209
   80MOL    H5049188   4.029   5.372   0.242  0.5059 -0.4578  0.0776
   80MOL    H5149189   4.134   5.189   0.097 -1.3797 -1.0961 -3.0239
   80MOL    H5249190   4.129   5.286   7.738  4.3780 -3.7121 -0.8552
   80MOL    H5349191   4.277   5.457   0.071 -0.8901  0.6360  0.2108
   80MOL    H5449192   4.300   5.348   0.200 -0.5532  0.8968  0.2683
   80MOL    H5549193   4.374   5.300   7.684  0.9663 -1.1032  0.2597
   80MOL    H5649194   4.395   5.168   0.030 -0.2899 -0.4370  0.9474
   80MOL    H5749195   4.537   5.437   0.038  3.4786  0.2870 -0.7670
   80MOL    H5849196   4.565   5.312   0.137 -0.1112 -1.0548 -0.3946
   80MOL    H5949197   4.594   5.164   7.688  0.9661 -0.2243  0.4235
   80MOL    H6049198   4.732   5.267   7.751 -1.0948 -0.2825  2.5513
   80MOL    H6149199   4.633   5.315   7.618 -1.2813 -0.8260 -0.8675
   80MOL    H6249200   3.601   5.763   0.338 -1.9692  0.2716 -1.6095
   80MOL    H6349201   3.736   5.808   0.227  1.0489 -0.4823 -0.5323
   80MOL    C6449202   3.556   5.757   0.133  0.5188 -0.3740 -1.0680
   80MOL    O6549203   3.624   5.780   0.009  0.3849  0.1326  0.4043
   80MOL    C6649204   3.603   5.678   7.690 -0.6431  0.0106  0.3970
   80MOL    C6749205   3.660   5.724   7.554 -0.7644  0.2249  0.3131
   80MOL    C6849206   3.669   5.629   7.433  0.6203  0.5052  0.0415
   80MOL    C6949207   3.798   5.546   7.460 -0.1195 -0.0510 -0.2249
   80MOL    C7049208   3.827   5.440   7.353 -0.4272  0.0714 -1.1776
   80MOL    C7149209   3.732   5.323   7.344 -0.4266 -0.0705 -0.0125
   80MOL    C7249210   3.720   5.254   7.213 -0.4202  0.5695  0.3957
   80MOL    C7349211   3.636   5.125   7.216 -0.5210 -0.7066  0.1956
   80MOL    C7449212   3.464   5.880   0.146 -0.2998 -0.5746 -0.5665
   80MOL    H7549213   3.488   5.672   0.131  0.7107 -0.6366  1.5738
   80MOL    H7649214   3.501   5.641   7.681 -1.3168  1.9838 -0.2139
   80MOL    H7749215   3.646   5.585   7.730 -1.5594  0.1481  1.7150
   80MOL    H7849216   3.760   5.764   7.575 -0.4590  0.2214 -1.0796
   80MOL    H7949217   3.600   5.806   7.515 -1.7677 -0.2780  0.7812
   80MOL    H8049218   3.580   5.566   7.426 -0.1501  1.4289  1.1763
   80MOL    H8149219   3.666   5.692   7.344 -0.0466  0.0042 -0.2997
   80MOL    H8249220   3.879   5.619   7.455 -0.4834  0.3650 -0.0920
   80MOL    H8349221   3.781   5.489   7.551 -0.4629  1.8754  0.9568
   80MOL    H8449222   3.838   5.479   7.252  0.6998  0.2826 -0.9788
   80MOL    H8549223   3.929   5.408   7.377 -1.3916 -1.2559  1.3347
   80MOL    H8649224   3.627   5.348   7.359 -0.4889 -1.2571  1.7216
   80MOL    H8749225   3.756   5.249   7.421  1.7401 -2.0543 -2.4726
   80MOL    H8849226   3.692   5.311   7.124  2.4768  0.7885 -0.4164
   80MOL    H8949227   3.822   5.226   7.189 -1.2739 -1.2392 -1.2461
   80MOL    H9049228   3.652   5.078   7.119  2.0225 -1.0401  0.7321
   80MOL    H9149229   3.531   5.137   7.241 -0.4363  0.4943  0.0308
   80MOL    H9249230   3.664   5.066   7.303 -1.0513  0.5287  1.2247
   80MOL    H9349231   3.436   5.887   0.251 -0.3979 -0.5917 -0.5917
   80MOL    H9449232   3.532   5.962   0.125  1.1261 -0.1194  5.0294
   80MOL    C9549233   3.339   5.884   0.055 -0.9108  1.0874 -0.1881
   80MOL    O9649234   3.285   6.009   0.059 -0.1425  0.0879  0.5784
   80MOL    C9749235   3.353   6.104   7.741  0.3697  0.1065  0.1068
   80MOL    C9849236   3.244   6.211   7.709  0.0286  0.5131 -0.2631
   80MOL    C9949237   3.150   6.152   7.609  1.1370  0.2831  0.3131
   80MOL   C10049238   3.092   6.256   7.510 -0.6961  0.0357  0.3258
   80MOL   C10149239   3.007   6.202   7.396 -0.1353 -0.4000 -0.3249
   80MOL   C10249240   2.923   6.315   7.316 -0.2623  0.0600 -0.1733
   80MOL   C10349241   2.999   6.387   7.206 -0.3151  0.2446 -0.3111
   80MOL   C10449242   2.910   6.492   7.136  0.4725 -0.3808 -0.6654
   80MOL   C10549243   3.237   5.779   0.109 -0.3229 -0.1736 -0.0961
   80MOL   H10649244   3.370   5.845   7.732 -1.7264 -0.3030  0.0882
   80MOL   H10749245   3.384   6.057   7.648  0.7470  0.1676  0.2007
   80MOL   H10849246   3.447   6.142   0.007  0.5570  0.1121 -0.3392
   80MOL   H10949247   3.298   6.302   7.682  1.2751  0.1979  1.0770
   80MOL   H11049248   3.189   6.223   0.029  1.1300 -1.9912  0.7519
   80MOL   H11149249   3.193   6.079   7.541  0.8769 -0.7104  1.2038
   80MOL   H11249250   3.070   6.087   7.646  0.0993  2.1453  1.4343
   80MOL   H11349251   3.044   6.333   7.570  2.4676  2.4886 -0.1172
   80MOL   H11449252   3.177   6.311   7.470 -0.1523 -1.4532 -0.5786
   80MOL   H11549253   3.059   6.136   7.327  0.7208 -0.1177  0.0453
   80MOL   H11649254   2.931   6.136   7.437 -1.7348  1.0242 -0.8862
   80MOL   H11749255   2.895   6.381   7.399  3.4172  0.7327  0.6227
   80MOL   H11849256   2.829   6.274   7.279  0.2632 -2.3085  0.9746
   80MOL   H11949257   3.089   6.436   7.243  0.7573 -1.1306 -1.0394
   80MOL   H12049258   3.033   6.315   7.131  1.4343 -0.3844  1.0410
   80MOL   H12149259   2.971   6.568   7.087  0.4417 -0.4195 -0.7634
   80MOL   H12249260   2.854   6.555   7.206 -0.2663  0.5081 -2.0295
   80MOL   H12349261   2.848   6.447   7.059 -0.5430 -1.9798  1.0255
   80MOL   H12449262   3.286   5.682   0.108  0.9798  0.4665  0.5722
   80MOL   H12549263   3.211   5.801   0.213  2.3159 -0.0122  0.5525
   80MOL   C12649264   3.114   5.772   0.028  0.3956  0.2994 -0.6200
   80MOL   O12749265   3.033   5.664   0.087  0.0287 -0.6355  0.2754
   80MOL   C12849266   2.940   5.699   0.188 -0.0213 -0.3860  0.4111
   80MOL   C12949267   2.796   5.714   0.135 -0.7032  1.0540  0.2897
   80MOL   C13049268   2.698   5.743   0.247 -0.1300 -0.4567 -0.7262
   80MOL   C13149269   2.550   5.757   0.203  0.0345  0.4538  0.2403
   80MOL   C13249270   2.537   5.887   0.120  0.2901 -0.6276 -0.3322
   80MOL   C13349271   2.390   5.930   0.085  0.1051  0.6369  0.5141
   80MOL   C13449272   2.363   6.049   7.765  0.4145  0.0446 -0.0325
   80MOL   C13549273   2.220   6.105   7.765 -0.6478 -0.0481  0.1124
   80MOL   C13649274   3.137   5.718   7.658 -1.1867 -0.2375 -0.1518
   80MOL   H13749275   3.052   5.861   0.038 -0.0741 -0.4094  3.5577
   80MOL   H13849276   2.966   5.791   0.240  1.9060 -1.0412  0.6508
   80MOL   H13949277   2.950   5.619   0.261 -1.1787 -0.3287  0.6399
   80MOL   H14049278   2.767   5.613   0.108 -1.4838  1.0302  1.1902
   80MOL   H14149279   2.786   5.787   0.054 -1.3713  0.8324  0.1691
   80MOL   H14249280   2.713   5.659   0.315 -1.2832 -0.6452 -0.6797
   80MOL   H14349281   2.737   5.825   0.306  0.2591 -0.3985 -1.0581
   80MOL   H14449282   2.531   5.668   0.144 -0.0730  0.0375  0.8939
   80MOL   H14549283   2.478   5.753   0.285 -0.9837 -0.6626 -0.6912
   80MOL   H14649284   2.570   5.972   0.180 -0.6555  0.2030 -0.9703
   80MOL   H14749285   2.601   5.887   0.032  1.7494  0.4529  0.7059
   80MOL   H14849286   2.337   5.937   0.180  1.5981  0.0543  1.4063
   80MOL   H14949287   2.344   5.849   0.029 -0.8782  2.5131 -1.4673
   80MOL   H15049288   2.425   6.134   0.021  2.5039 -2.2501  2.4129
   80MOL   H15149289   2.388   6.017   7.664 -1.3957 -1.1011 -0.1504
   80MOL   H15249290   2.208   6.169   7.679 -1.7387  0.9712  1.0117
   80MOL   H15349291   2.196   6.167   0.077  0.1959  0.3341  0.0744
   80MOL   H15449292   2.145   6.026   7.763  0.3304 -0.9618 -1.8142
   80MOL   H15549293   3.198   5.797   7.613  0.4261 -0.6886  1.1792
   80MOL   H15649294   3.207   5.635   7.665  1.6655  1.8789 -2.1774
   80MOL   C15749295   3.011   5.671   7.578 -0.5517  0.4514  0.2767
   80MOL   O15849296   3.063   5.605   7.460 -0.3439 -0.3122 -0.3003
   80MOL   C15949297   3.061   5.464   7.473  0.3040  0.6740  0.1816
   80MOL   C16049298   3.131   5.397   7.354  0.4891  0.2213  0.5088
   80MOL   C16149299   3.113   5.250   7.343 -0.4770  0.2270  0.1916
   80MOL   C16249300   3.190   5.201   7.221 -0.1921  0.3084 -0.1937
   80MOL   C16349301   3.192   5.049   7.205  0.1729  0.3035 -0.0094
   80MOL   C16449302   3.256   5.006   7.082 -0.0017 -0.6782 -0.4245
   80MOL   C16549303   3.251   4.854   7.064  0.0536 -0.3025 -0.2815
   80MOL   C16649304   3.297   4.818   6.927  0.4233  0.1454  0.3592
   80MOL   C16749305   2.918   5.789   7.540  0.2520 -1.1896  0.0408
   80MOL   H16849306   2.953   5.604   7.641  0.1936 -1.5155 -1.0753
   80MOL   H16949307   2.960   5.422   7.469  0.6549 -0.3353  1.7860
   80MOL   H17049308   3.106   5.428   7.564 -5.1328 -2.7985  1.7480
   80MOL   H17149309   3.234   5.430   7.346 -0.0555  1.9637  0.4451
   80MOL   H17249310   3.081   5.441   7.268  2.2836  1.0939 -0.1058
   80MOL   H17349311   3.157   5.199   7.429  3.4041 -1.3334 -2.5626
   80MOL   H17449312   3.008   5.224   7.328 -0.4314  0.1352  0.0377
   80MOL   H17549313   3.143   5.242   7.132 -0.9408 -0.5217 -0.1901
   80MOL   H17649314   3.292   5.234   7.237  0.1895 -1.4567  1.1920
   80MOL   H17749315   3.243   4.990   7.281  2.0081  1.5529 -0.2225
   80MOL   H17849316   3.089   5.015   7.210 -0.0125  0.6591 -1.3331
   80MOL   H17949317   3.358   5.046   7.083 -0.0425 -0.5812 -0.1056
   80MOL   H18049318   3.225   5.065   6.996  0.4348  2.7091  1.6537
   80MOL   H18149319   3.301   4.798   7.143 -2.3895 -0.9636  0.8335
   80MOL   H18249320   3.147   4.824   7.078  0.2746 -0.8175  0.2669
   80MOL   H18349321   3.400   4.845   6.904  0.3082  2.0734  1.9820
   80MOL   H18449322   3.241   4.871   6.850  1.2959  0.0473 -0.3662
   80MOL   H18549323   3.293   4.709   6.920  0.5342  0.2597 -2.1222
   80MOL   H18649324   2.893   5.859   7.620  0.2963 -1.3393  0.1861
   80MOL   H18749325   2.974   5.846   7.466  0.6155 -0.1768  1.0636
   80MOL   C18849326   2.793   5.745   7.467 -0.2205 -0.9300  0.0385
   80MOL   O18949327   2.759   5.849   7.371 -0.1677  0.0052 -0.2433
   80MOL   C19049328   2.837   5.843   7.249  0.2833  0.2144  0.1880
   80MOL   C19149329   2.776   5.934   7.140 -0.5842 -0.0600  0.1966
   80MOL   C19249330   2.847   5.928   7.005 -0.8217  0.3931 -0.2526
   80MOL   C19349331   2.993   5.983   7.024  0.6076  0.1524 -0.4167
   80MOL   C19449332   3.071   6.010   6.895 -0.0042  0.1418 -0.0548
   80MOL   C19549333   3.222   6.029   6.919  1.0317  0.2200 -0.9243
   80MOL   C19649334   3.298   6.071   6.793  0.2669  0.2886  0.6504
   80MOL   C19749335   3.442   6.106   6.822 -0.0271 -0.1958  0.8850
   80MOL   C19849336   2.671   5.721   7.562  0.7977 -0.4040  0.6494
   80MOL   H19949337   2.813   5.650   7.417  1.1992 -0.5496 -0.1679
   80MOL   H20049338   2.936   5.872   7.286 -0.6580  1.2523  1.9521
   80MOL   H20149339   2.854   5.740   7.217 -1.5210  0.2675 -1.0067
   80MOL   H20249340   2.772   6.038   7.174  0.5589 -0.1574  0.6415
   80MOL   H20349341   2.676   5.892   7.130  0.6223 -2.7359 -1.1416
   80MOL   H20449342   2.852   5.822   6.980  0.6980  0.2278  0.6498
   80MOL   H20549343   2.787   5.985   6.934  0.6207  1.6627 -0.4767
   80MOL   H20649344   2.985   6.074   7.084  0.3738  0.0224 -0.2511
   80MOL   H20749345   3.050   5.926   7.097  0.2439 -0.5975 -0.7204
   80MOL   H20849346   3.045   5.931   6.824 -1.1216 -0.3806  0.9218
   80MOL   H20949347   3.046   6.106   6.849  0.3129  0.3595  0.2246
   80MOL   H21049348   3.266   5.942   6.968  1.4090  1.6720  1.4215
   80MOL   H21149349   3.251   6.102   6.995 -1.5576 -0.2570  0.5591
   80MOL   H21249350   3.290   5.983   6.730  2.0441 -0.9501  2.1276
   80MOL   H21349351   3.238   6.149   6.746 -0.7831 -1.6627 -1.3010
   80MOL   H21449352   3.499   6.022   6.863 -0.8280 -0.7504  0.8811
   80MOL   H21549353   3.444   6.197   6.881  1.9750 -0.3180  1.0570
   80MOL   H21649354   3.482   6.131   6.723  1.9147 -1.8952  1.1874
   80MOL   H21749355   2.697   5.635   7.624  1.9961 -0.4005  0.1504
   80MOL   H21849356   2.656   5.810   7.623 -0.9755 -1.7375  2.2470
   80MOL   C21949357   2.537   5.686   7.497  0.5421 -0.1810  0.4375
   80MOL   O22049358   2.457   5.804   7.497 -0.0933  0.1754  0.2173
   80MOL   C22149359   2.439   5.875   7.372  0.0201 -0.3053  0.1604
   80MOL   C22249360   2.320   5.966   7.403 -0.4694 -0.2418 -0.8468
   80MOL   C22349361   2.239   5.994   7.275 -0.4690 -0.5701 -0.8954
   80MOL   C22449362   2.143   6.116   7.281 -0.7351  0.2008  0.1544
   80MOL   C22549363   2.061   6.129   7.150 -0.5895  0.2256  0.4329
   80MOL   C22649364   2.002   6.264   7.121 -0.2506  0.4525 -0.8031
   80MOL   C22749365   1.918   6.271   6.998 -0.0441  0.2993  0.7856
   80MOL   C22849366   1.824   6.395   6.986  0.0894 -0.5310  0.9141
   80MOL   C22949367   2.452   5.583   7.571 -0.3594 -0.0541 -0.2167
   80MOL   H23049368   2.555   5.646   7.397 -3.8339  0.5362 -0.7553
   80MOL   H23149369   2.407   5.813   7.289  0.2371  0.4462 -0.4951
   80MOL   H23249370   2.533   5.924   7.346 -0.2758 -0.7576 -1.8589
   80MOL   H23349371   2.350   6.059   7.451  0.0800 -0.1729 -1.3137
   80MOL   H23449372   2.256   5.914   7.474  0.7982  2.1018  2.1383
   80MOL   H23549373   2.304   6.009   7.189  0.4410  0.9846  0.0412
   80MOL   H23649374   2.185   5.901   7.262  0.4777 -0.9980 -1.9283
   80MOL   H23749375   2.087   6.100   7.373 -0.4595  1.2849  0.5209
   80MOL   H23849376   2.204   6.205   7.299 -1.0137  0.1773  1.2753
   80MOL   H23949377   2.118   6.104   7.061  0.8265  0.0469  1.3879
   80MOL   H24049378   1.987   6.049   7.151 -1.6863  1.2185  0.0142
   80MOL   H24149379   2.079   6.341   7.108 -1.1726  1.3926 -0.7527
   80MOL   H24249380   1.944   6.292   7.209  0.3508 -2.4562  0.5750
   80MOL   H24349381   1.978   6.255   6.908  0.2365  2.1704  0.6247
   80MOL   H24449382   1.853   6.184   6.996  0.1473  0.1672 -0.0439
   80MOL   H24549383   1.761   6.370   6.900 -0.7685  0.9725  1.0990
   80MOL   H24649384   1.877   6.486   6.956 -0.4701 -0.2999  0.6233
   80MOL   H24749385   1.763   6.416   7.073 -1.1894  0.3149 -0.1698
   80MOL   H24849386   2.517   5.502   7.603  0.3959  1.7268  2.8965
   80MOL   H24949387   2.429   5.608   7.674  0.3415 -0.7066  0.0928
   80MOL   C25049388   2.325   5.522   7.504 -0.3495 -0.0723 -0.5881
   80MOL   O25149389   2.248   5.430   7.580  0.2869 -0.3659 -0.4670
   80MOL   C25249390   2.210   5.446   7.717  0.1884 -0.4841  0.3349
   80MOL   C25349391   2.107   5.342   7.742  0.3275 -0.6231 -0.5004
   80MOL   C25449392   1.969   5.400   7.693  0.1330  0.2885 -0.0248
   80MOL   C25549393   1.858   5.295   7.692 -0.0819  0.2049 -0.6745
   80MOL   C25649394   1.720   5.357   7.666 -0.8912  0.3153 -0.6380
   80MOL   C25749395   1.680   5.495   7.726 -0.5161  0.9189 -0.5983
   80MOL   C25849396   1.540   5.542   7.697 -0.2824 -0.4067  0.1991
   80MOL   C25949397   1.507   5.677   7.748 -0.3538  0.2696  0.1856
   80MOL   C26049398   2.356   5.457   7.365  0.3577  0.7724  0.3489
   80MOL   H26149399   2.251   5.599   7.484  0.0834  0.2763 -0.8312
   80MOL   H26249400   2.171   5.543   7.750  1.0942 -0.0877  0.2715
   80MOL   H26349401   2.301   5.432   0.002  0.4334 -2.0170 -0.3743
   80MOL   H26449402   2.108   5.330   0.076 -0.5697  1.2418 -0.2699
   80MOL   H26549403   2.139   5.242   7.712 -0.3464 -0.7128 -0.9316
   80MOL   H26649404   1.940   5.486   7.753  0.0050  0.0643  0.2339
   80MOL   H26749405   1.979   5.455   7.599  1.2654  1.3662  0.7156
   80MOL   H26849406   1.887   5.217   7.621 -0.8851  1.3791 -2.3294
   80MOL   H26949407   1.850   5.242   0.013 -2.1430  1.1937 -0.2534
   80MOL   H27049408   1.714   5.379   7.560  1.8840  0.6442 -0.7640
   80MOL   H27149409   1.641   5.285   7.684 -0.5309  0.3889  1.3824
   80MOL   H27249410   1.751   5.573   7.701  1.5001  0.0112  2.0863
   80MOL   H27349411   1.695   5.491   0.059  0.3354  1.3630 -0.6969
   80MOL   H27449412   1.519   5.548   7.590  0.2075  0.7825  0.1593
   80MOL   H27549413   1.471   5.468   7.737  0.2660 -1.2276 -0.3543
   80MOL   H27649414   1.546   5.682   0.075 -0.5929  0.0631  0.2889
   80MOL   H27749415   1.401   5.704   7.753 -0.0793  1.9375 -2.0697
   80MOL   H27849416   1.557   5.757   7.693  0.5904  0.6428  1.5645
   80MOL   H27949417   2.267   5.403   7.332 -0.3381  2.6099 -0.8323
   80MOL   H28049418   2.381   5.534   7.292  0.0055 -0.7991 -1.4758
   80MOL   C28149419   2.469   5.351   7.375 -0.2797  0.3481 -0.3413
   80MOL   O28249420   2.524   5.333   7.248 -0.2531  0.2660  0.2932
   80MOL   C28349421   2.615   5.426   7.208 -0.3982  0.1458 -0.2874
   80MOL   C28449422   2.674   5.390   7.077  0.4830  0.1379  0.7498
   80MOL   C28549423   2.809   5.457   7.043 -0.5523  0.7227 -0.1187
   80MOL   C28649424   2.892   5.364   6.949  0.2141  0.4295 -0.0519
   80MOL   C28749425   2.825   5.355   6.806 -1.1388 -0.7571  0.1167
   80MOL   C28849426   2.853   5.226   6.738  0.2186  0.4236  0.0148
   80MOL   C28949427   3.002   5.189   6.716  0.4085 -0.0231  0.5344
   80MOL   C29049428   2.994   5.046   6.655  0.5064 -0.2324  0.3055
   80MOL   C29149429   2.425   5.212   7.428  0.1948 -0.1899  0.1196
   80MOL   H29249430   2.556   5.378   7.435 -0.2192 -2.0091  0.6751
   80MOL   H29349431   2.688   5.428   7.289 -0.0387  3.9380 -0.5920
   80MOL   H29449432   2.572   5.526   7.202  1.2828  0.9391  0.2640
   80MOL   H29549433   2.591   5.422   7.013 -0.5533 -0.5382  1.7345
   80MOL   H29649434   2.680   5.282   7.067 -0.7737  0.1078  0.1103
   80MOL   H29749435   2.802   5.554   6.992 -0.5682  1.4253  1.2116
   80MOL   H29849436   2.867   5.489   7.130 -1.0347  0.8913  0.1408
   80MOL   H29949437   2.993   5.404   6.942  0.0392  1.4898  2.6603
   80MOL   H30049438   2.904   5.267   6.997  1.8427  0.5103 -0.2682
   80MOL   H30149439   2.717   5.358   6.825 -1.0040  0.0698  0.7925
   80MOL   H30249440   2.855   5.436   6.740 -0.8347 -1.1062 -0.1763
   80MOL   H30349441   2.779   5.228   6.659 -1.6964 -0.8405  1.7470
   80MOL   H30449442   2.817   5.155   6.813 -0.6569  1.5952  0.7265
   80MOL   H30549443   3.044   5.261   6.644  1.1197 -1.3545 -0.3966
   80MOL   H30649444   3.060   5.194   6.808  0.4125  1.2525  0.4740
   80MOL   H30749445   2.963   4.975   6.732 -0.2677 -2.1287 -1.7293
   80MOL   H30849446   3.087   5.019   6.605  0.6036  0.5588  0.0446
   80MOL   H30949447   2.921   5.043   6.574 -1.1947  0.7357  1.7665
   80MOL   H31049448   2.365   5.222   7.518 -1.4226 -2.0476 -0.7224
   80MOL   H31149449   2.357   5.168   7.355 -1.0345 -0.5272  1.4520
   80MOL   C31249450   2.536   5.108   7.454  0.3248  0.6043 -0.0090
   80MOL   O31349451   2.636   5.149   7.545  0.3986 -1.0741 -0.0197
   80MOL   C31449452   2.584   5.162   7.683  0.8042 -0.7554  0.6075
   80MOL   C31549453   2.704   5.207   7.770 -0.3390 -0.1619 -0.4356
   80MOL   C31649454   2.684   5.228   0.148 -0.1763  0.1722 -0.0974
   80MOL   C31749455   2.544   5.296   0.184  0.8052 -0.4743 -0.0809
   80MOL   C31849456   2.534   5.343   0.325 -0.7206  0.0526  0.7493
   80MOL   C31949457   2.402   5.423   0.332  0.2198 -0.5516 -0.1047
   80MOL   C32049458   2.393   5.516   0.453  0.6176  0.1775  0.1322
   80MOL   C32149459   2.264   5.598   0.450  0.0910 -0.4736  0.5725
   80MOL   C32249460   2.612   5.052   7.335  0.4079 -0.2237 -0.2564
   80MOL   H32349461   2.475   5.026   7.491 -1.0393  0.0856 -3.1941
   80MOL   H32449462   2.544   5.065   7.715  1.6582 -1.2753  0.1304
   80MOL   H32549463   2.500   5.231   7.682  0.8004 -0.7522  1.1402
   80MOL   H32649464   2.742   5.304   7.738  1.8211  0.0247  2.5128
   80MOL   H32749465   2.789   5.141   7.756 -2.0422 -2.3883 -0.3981
   80MOL   H32849466   2.679   5.132   0.199  1.4026  0.4466  0.6067
   80MOL   H32949467   2.766   5.279   0.199 -0.3348  0.8295 -0.4946
   80MOL   H33049468   2.542   5.372   0.106 -0.1291 -0.0336  0.3676
   80MOL   H33149469   2.458   5.238   0.151  0.2838  0.7108 -0.8176
   80MOL   H33249470   2.530   5.256   0.391  0.4673  0.3005  1.1630
   80MOL   H33349471   2.615   5.404   0.364 -0.5506  1.0309 -1.1108
   80MOL   H33449472   2.311   5.363   0.331 -0.7892  0.9005  2.2736
   80MOL   H33549473   2.397   5.487   0.244  2.0988 -1.5690 -0.9875
   80MOL   H33649474   2.409   5.468   0.550 -2.7593 -1.9728 -0.2954
   80MOL   H33749475   2.480   5.581   0.446 -0.5581  1.5335 -2.4378
   80MOL   H33849476   2.173   5.539   0.444  0.9544 -1.7995  0.2694
   80MOL   H33949477   2.261   5.679   0.376 -2.2607 -0.5505  0.5491
   80MOL   H34049478   2.253   5.665   0.535 -1.9806  1.0282 -0.8397
   80MOL   H34149479   2.640   5.131   7.265 -0.9806 -1.3090 -2.1042
   80MOL   H34249480   2.704   5.001   7.366 -0.1737 -0.3709  1.2721
   80MOL   C34349481   2.526   4.968   7.235  0.5193 -0.5561  1.0335
   80MOL   O34449482   2.578   4.836   7.232 -0.5449  0.3752  0.3980
   80MOL   C34549483   2.511   4.748   7.325  0.3710 -0.6590 -1.0248
   80MOL   C34649484   2.571   4.606   7.303  0.2361  0.1320 -0.6607
   80MOL   C34749485   2.549   4.546   7.155  0.4696 -0.5286 -0.3678
   80MOL   C34849486   2.613   4.406   7.141  0.1379 -0.0059  0.4541
   80MOL   C34949487   2.565   4.349   7.005 -1.1924  0.1795 -0.0661
   80MOL   C35049488   2.640   4.215   6.969  0.5601  0.3047 -0.0482
   80MOL   C35149489   2.597   4.177   6.827 -0.0493  0.8824 -0.3222
   80MOL   C35249490   2.687   4.067   6.774  0.1172  0.0638  0.2695
   80MOL   C35349491   2.545   5.021   7.093 -0.1114 -0.9493 -0.3349
   80MOL   H35449492   2.419   4.972   7.257  0.6964 -0.6912  1.9185
   80MOL   H35549493   2.405   4.744   7.301 -0.2138 -1.8816  1.6281
   80MOL   H35649494   2.525   4.776   7.429 -0.0627  0.3507 -1.2255
   80MOL   H35749495   2.516   4.551   7.379  2.0343  1.3302  1.5681
   80MOL   H35849496   2.677   4.601   7.330  0.0025  1.4741  0.4930
   80MOL   H35949497   2.441   4.534   7.152  0.5599 -0.9788 -1.8770
   80MOL   H36049498   2.583   4.615   7.078  0.7393 -0.5876 -0.3028
   80MOL   H36149499   2.722   4.410   7.144  0.0832  1.0835  6.9778
   80MOL   H36249500   2.581   4.340   7.222  0.0732  0.2374  0.6269
   80MOL   H36349501   2.458   4.329   7.005 -1.0387 -0.6380  0.0857
   80MOL   H36449502   2.578   4.417   6.921 -0.5286  0.0371 -0.0830
   80MOL   H36549503   2.621   4.132   7.037 -3.0061 -1.2602 -2.8361
   80MOL   H36649504   2.742   4.250   6.954  0.1294  1.6271  0.0220
   80MOL   H36749505   2.491   4.152   6.825  0.0710  0.3851 -0.3891
   80MOL   H36849506   2.600   4.265   6.762 -1.1675  0.6888 -0.6370
   80MOL   H36949507   2.647   4.030   6.679  1.7254  0.5003 -0.5917
   80MOL   H37049508   2.677   3.979   6.838  1.9065  1.3282  2.3082
   80MOL   H37149509   2.789   4.105   6.763  0.4579  0.2822  3.6978
   80MOL   H37249510   2.529   5.129   7.089  1.0156 -0.8313 -2.4872
   80MOL   H37349511   2.653   5.015   7.079  0.2808  1.4684  1.2388
   80MOL   C37449512   2.469   4.943   6.980 -0.0335  0.0605 -1.0482
   80MOL   O37549513   2.522   4.982   6.855  0.3746 -0.4746  0.1023
   80MOL   C37649514   2.489   4.902   6.743 -0.2183  0.5211  0.6531
   80MOL   C37749515   2.546   4.967   6.619  0.8766  0.4748 -0.8155
   80MOL   C37849516   2.688   4.923   6.588 -0.9922 -0.6043 -0.3182
   80MOL   C37949517   2.703   4.784   6.521  0.5208  0.0537  0.7076
   80MOL   C38049518   2.857   4.757   6.504 -0.0634 -0.0916 -0.1998
   80MOL   C38149519   2.896   4.611   6.465 -0.2950  0.4705  0.5604
   80MOL   C38249520   3.045   4.586   6.426 -0.1333  0.1539  0.6226
   80MOL   C38349521   3.061   4.445   6.366 -0.1523  1.0026 -0.0791
   80MOL   C38449522   2.318   4.975   6.998 -0.0824  0.3538  0.4121
   80MOL   H38549523   2.493   4.837   6.986  2.3986  0.6305  0.0839
   80MOL   H38649524   2.380   4.889   6.742 -0.1515  0.0064 -0.5135
   80MOL   H38749525   2.518   4.797   6.750 -0.3081  0.5115  0.8810
   80MOL   H38849526   2.537   5.074   6.640 -1.0523 -0.0453  1.2054
   80MOL   H38949527   2.482   4.950   6.533 -0.6369 -0.7028  0.4977
   80MOL   H39049528   2.729   5.000   6.523 -2.0862  0.9414  0.7917
   80MOL   H39149529   2.743   4.930   6.681 -0.4643  0.7553 -0.7280
   80MOL   H39249530   2.665   4.699   6.577 -1.0509 -1.6102 -2.7574
   80MOL   H39349531   2.663   4.786   6.419 -0.4502  1.0846  1.0921
   80MOL   H39449532   2.893   4.816   6.420 -1.0421  0.1309 -0.4643
   80MOL   H39549533   2.902   4.785   6.599  1.6752 -2.3904 -0.2849
   80MOL   H39649534   2.832   4.566   6.389 -0.7460  0.4521  0.9422
   80MOL   H39749535   2.868   4.552   6.552  0.4268  1.0393  1.1885
   80MOL   H39849536   3.074   4.651   6.343  0.5508  0.7886  1.3564
   80MOL   H39949537   3.111   4.600   6.512  0.0313  0.3887  0.4586
   80MOL   H40049538   3.019   4.378   6.441 -0.8966  2.9307  1.2883
   80MOL   H40149539   3.164   4.417   6.344 -0.4190  1.3583 -1.8025
   80MOL   H40249540   2.987   4.424   6.289  1.7411 -2.1601 -1.0919
   80MOL   H40349541   2.315   5.052   7.075 -0.7434 -0.1360  0.8836
   80MOL   H40449542   2.276   5.024   6.910  1.5084  3.1341  1.1474
   80MOL   C40549543   2.229   4.851   7.033  0.3627  0.1080  0.1417
   80MOL   O40649544   2.224   4.751   6.935 -1.2084  0.6865 -0.5024
   80MOL   C40749545   2.182   4.618   6.970  0.1861  0.4219  0.2435
   80MOL   C40849546   2.252   4.533   6.862  0.2817  0.4465  0.1772
   80MOL   C40949547   2.209   4.569   6.718 -0.7642 -0.0167 -0.4078
   80MOL   C41049548   2.270   4.468   6.621  0.0478 -0.9706  0.0059
   80MOL   C41149549   2.405   4.503   6.573  0.4883 -0.2976 -0.5432
   80MOL   C41249550   2.460   4.410   6.470  0.1905  0.8356  0.3888
   80MOL   C41349551   2.602   4.448   6.417 -0.0967  0.0815 -1.3543
   80MOL   C41449552   2.642   4.351   6.306 -0.3434 -0.2729 -0.1069
   80MOL   C41549553   2.081   4.888   7.064 -0.1864 -0.0722  0.0011
   80MOL   H41649554   2.277   4.794   7.112  2.4341 -0.8060 -1.7154
   80MOL   H41749555   2.074   4.608   6.975  0.3911 -1.0438  3.0710
   80MOL   H41849556   2.220   4.592   7.069 -0.4052  0.2442  0.4244
   80MOL   H41949557   2.240   4.427   6.884 -0.9172  0.2897 -1.1311
   80MOL   H42049558   2.358   4.554   6.869  0.3931 -0.7331  2.1407
   80MOL   H42149559   2.102   4.555   6.701 -0.2470 -2.3566 -1.9400
   80MOL   H42249560   2.228   4.674   6.696  2.2715 -0.7925 -1.7138
   80MOL   H42349561   2.267   4.367   6.662  1.2125 -1.3388 -0.7864
   80MOL   H42449562   2.202   4.460   6.537 -1.8137  1.1131  1.2438
   80MOL   H42549563   2.406   4.605   6.535  0.8825 -0.5712 -1.2553
   80MOL   H42649564   2.477   4.508   6.655  0.0507  0.1343 -0.1818
   80MOL   H42749565   2.389   4.413   6.388  1.3732 -0.9800 -0.7400
   80MOL   H42849566   2.464   4.306   6.501 -0.2650  0.6128 -0.3049
   80MOL   H42949567   2.610   4.552   6.387  0.6071  0.0899 -1.1559
   80MOL   H43049568   2.662   4.431   6.506 -0.1568  0.3285 -1.2673
   80MOL   H43149569   2.663   4.248   6.338 -0.1391  0.9572  3.9579
   80MOL   H43249570   2.727   4.387   6.248 -0.3332 -1.0457 -0.5800
   80MOL   H43349571   2.566   4.343   6.228  3.0373  0.0215 -3.5514
   80MOL   H43449572   2.020   4.932   6.985 -1.2716 -3.7679 -1.3300
   80MOL   H43549573   2.027   4.795   7.081  1.5254 -0.9300  0.8774
   80MOL   C43649574   2.060   4.969   7.188  0.2643  0.1416 -1.2587
   80MOL   O43749575   2.109   4.888   7.291 -0.8794 -0.5083 -0.9198
   80MOL   C43849576   2.107   4.945   7.421  0.3026  0.1787 -0.3025
   80MOL   C43949577   2.171   4.854   7.521 -0.0055  0.3613  0.2089
   80MOL   C44049578   2.200   4.937   7.655 -0.0602  0.5348 -0.6766
   80MOL   C44149579   2.073   4.955   7.737 -0.3002 -0.4650 -0.2098
   80MOL   C44249580   2.101   4.997   0.106 -0.0257  0.1021 -0.1077
   80MOL   C44349581   1.970   5.011   0.176  0.4409 -0.4953  0.1687
   80MOL   C44449582   1.975   5.056   0.331  0.0106  0.5897  0.2556
   80MOL   C44549583   2.029   5.202   0.344 -0.0140  0.5803 -0.4866
   80MOL   C44649584   1.908   5.013   7.210 -0.2763 -0.1808 -0.4756
   80MOL   H44749585   2.115   5.063   7.173  0.8544 -0.0061 -0.0517
   80MOL   H44849586   2.145   5.047   7.427 -1.4340  0.8881 -0.7989
   80MOL   H44949587   2.002   4.970   7.441  0.6201 -0.4875  2.2842
   80MOL   H45049588   2.270   4.815   7.496  0.6119  0.1901  2.7603
   80MOL   H45149589   2.113   4.765   7.542 -0.5373  1.5777  4.3510
   80MOL   H45249590   2.269   4.873   7.710 -2.0381 -0.6266  0.5064
   80MOL   H45349591   2.262   5.025   7.640 -0.2388  1.0149  1.3439
   80MOL   H45449592   2.007   5.033   7.698 -0.5310  1.0736  3.1335
   80MOL   H45549593   2.021   4.860   7.729 -2.3726  0.6457 -0.2612
   80MOL   H45649594   2.171   4.925   0.149  1.4678  1.4349 -0.2194
   80MOL   H45749595   2.166   5.084   0.106  1.9128 -1.3042 -0.2686
   80MOL   H45849596   1.918   4.916   0.179 -1.4410  0.5219  0.3660
   80MOL   H45949597   1.909   5.077   0.114 -1.2438 -2.7252 -0.6003
   80MOL   H46049598   1.870   5.054   0.359 -1.3383  1.6548 -4.2464
   80MOL   H46149599   2.043   4.998   0.394 -1.2767 -1.2230 -0.0122
   80MOL   H46249600   2.044   5.236   0.446 -1.0352  2.3867 -0.9150
   80MOL   H46349601   1.975   5.268   0.276 -0.3336  0.7896 -0.0281
   80MOL   H46449602   2.129   5.195   0.302 -0.3917  2.6252 -1.7745
   80MOL   H46549603   1.898   5.100   7.275  0.2966 -0.4956  0.0461
   80MOL   H46649604   1.880   5.067   7.119 -2.9152  0.8868  0.9075
   80MOL   C46749605   1.803   4.899   7.251  0.2099 -0.0274  0.0971
   80MOL   O46849606   1.774   4.827   7.133 -0.8796  0.3582 -0.0678
   80MOL   C46949607   1.737   4.691   7.166 -0.0544  0.6838 -0.4498
   80MOL   C47049608   1.670   4.623   7.049  0.2183  0.0605  0.1015
   80MOL   C47149609   1.758   4.625   6.919 -0.0055  0.1712 -0.4624
   80MOL   C47249610   1.683   4.551   6.808  0.2720 -0.8076 -0.2335
   80MOL   C47349611   1.772   4.541   6.678  0.7048 -0.3880 -0.4010
   80MOL   C47449612   1.691   4.508   6.559 -1.1473 -0.3646  0.7654
   80MOL   C47549613   1.637   4.629   6.481  0.3498 -0.0550  0.1644
   80MOL   C47649614   1.528   4.574   6.384 -0.1774  0.9435 -0.2584
   80MOL   C47749615   1.666   4.974   7.268 -0.3612 -0.5085  0.7295
   80MOL   H47849616   1.832   4.840   7.337  1.1116 -1.1823 -0.9831
   80MOL   H47949617   1.664   4.683   7.247 -0.9749 -0.3252 -1.3744
   80MOL   H48049618   1.828   4.634   7.185  1.0292  1.9688 -1.6739
   80MOL   H48149619   1.580   4.682   7.032  0.6345  0.6919  0.0749
   80MOL   H48249620   1.632   4.524   7.073 -0.1830  0.0583 -0.5386
   80MOL   H48349621   1.794   4.726   6.895 -0.6427  1.4321  3.5864
   80MOL   H48449622   1.851   4.573   6.942  0.2730  1.2431  0.9157
   80MOL   H48549623   1.657   4.449   6.839  1.5808 -0.8874  0.6562
   80MOL   H48649624   1.592   4.604   6.783 -0.2171 -1.5384 -0.0337
   80MOL   H48749625   1.831   4.632   6.668 -0.6849  0.5519 -0.1428
   80MOL   H48849626   1.845   4.469   6.716  0.2384 -0.6076  0.0891
   80MOL   H48949627   1.610   4.437   6.580 -1.6101  0.0181  0.3059
   80MOL   H49049628   1.759   4.454   6.494 -0.9736 -0.3434  0.9300
   80MOL   H49149629   1.570   4.683   6.547 -2.8186 -3.4112 -0.1458
   80MOL   H49249630   1.722   4.690   6.450  1.1951 -0.3320  1.8831
   80MOL   H49349631   1.446   4.517   6.428  0.5427  0.2169  0.1427
   80MOL   H49449632   1.571   4.504   6.313 -0.4986 -2.4660  2.7551
   80MOL   H49549633   1.483   4.649   6.319  0.8009  1.0908 -0.7673
   80MOL   H49649634   1.651   5.040   7.183 -2.4780 -2.7861 -0.7253
   80MOL   H49749635   1.581   4.906   7.262 -0.7134  0.0421 -0.8164
   80MOL   C49849636   1.652   5.043   7.403  0.2052  0.5124  0.4776
   80MOL   O49949637   1.644   4.934   7.495 -0.2510 -0.2642  0.0295
   80MOL   C50049638   1.715   4.954   7.614 -0.2095  0.7342  0.3896
   80MOL   C50149639   1.681   4.848   7.711  0.1670  0.2608 -0.0372
   80MOL   C50249640   1.721   4.708   7.657  0.3509  0.6209  0.1425
   80MOL   C50349641   1.674   4.594   7.759 -0.5371 -0.0210  0.4063
   80MOL   C50449642   1.737   4.453   7.719 -0.2535  0.3728 -0.7385
   80MOL   C50549643   1.726   4.360   0.068  0.1649 -0.5966 -0.2107
   80MOL   C50649644   1.586   4.350   0.134  0.1325 -0.1831 -0.5044
   80MOL   C50749645   1.578   4.219   0.216  0.0854 -0.3375 -0.0882
   80MOL   C50849646   1.523   5.122   7.424  1.2592 -0.2710  0.4941
   80MOL   H50949647   1.732   5.112   7.431 -0.6924  1.9523 -0.4321
   80MOL   H51049648   1.697   5.053   7.656  0.2876  0.2604  1.7493
   80MOL   H51149649   1.820   4.958   7.584 -0.1384  1.4165  0.7015
   80MOL   H51249650   1.573   4.846   7.725  0.6024  1.3856  3.9692
   80MOL   H51349651   1.727   4.869   0.033  0.4360  1.0836 -0.3457
   80MOL   H51449652   1.677   4.687   7.560 -0.5541  1.3169  0.3894
   80MOL   H51549653   1.830   4.708   7.647  0.7035  1.6985  3.2902
   80MOL   H51649654   1.720   4.625   0.079 -0.4426  0.8331  0.0932
   80MOL   H51749655   1.566   4.583   7.757 -0.4834 -0.3716 -0.9242
   80MOL   H51849656   1.675   4.412   7.640 -0.2338 -1.8904  0.3843
   80MOL   H51949657   1.840   4.452   7.683  0.3845 -1.2228  1.0768
   80MOL   H52049658   1.790   4.396   0.148 -0.7041 -2.2618  1.2770
   80MOL   H52149659   1.762   4.259   0.046 -0.1459 -0.9925  1.0263
   80MOL   H52249660   1.580   4.433   0.205  0.1633  1.0839 -1.9645
   80MOL   H52349661   1.510   4.362   0.058 -0.3286 -0.7206 -0.1312
   80MOL   H52449662   1.637   4.230   0.307 -0.1882  1.3530 -0.1065
   80MOL   H52549663   1.615   4.144   0.146  1.6875  0.8598 -0.5488
   80MOL   H52649664   1.473   4.202   0.242  0.6069 -1.6761  1.2446
   80MOL   H52749665   1.435   5.059   7.409 -0.4777  2.1163  0.3975
   80MOL   H52849666   1.520   5.143   7.531 -0.6805  0.5620  0.2890
   80MOL   C52949667   1.500   5.243   7.334  0.6490 -0.0800  0.2975
   80MOL   O53049668   1.617   5.324   7.324 -0.1739  0.1809  0.3684
   80MOL   C53149669   1.655   5.363   7.193 -0.0545  0.3396  0.0684
   80MOL   C53249670   1.785   5.438   7.200  0.1112 -0.1871 -0.1726
   80MOL   C53349671   1.872   5.408   7.076  0.5870 -0.0846 -0.0416
   80MOL   C53449672   2.016   5.466   7.083  0.6245 -0.2218  0.6754
   80MOL   C53549673   2.098   5.472   6.948  0.0800 -0.6534 -0.0310
   80MOL   C53649674   2.246   5.492   6.962 -0.3050 -0.3784 -0.1001
   80MOL   C53749675   2.338   5.466   6.836 -0.1051 -0.1490  0.4996
   80MOL   C53849676   2.376   5.316   6.827  0.1176  0.0471 -0.3085
   80MOL   C53949677   1.387   5.335   7.364 -0.1689  0.5705  0.4893
   80MOL   H54049678   1.487   5.193   7.239 -1.7261 -0.6960  0.9129
   80MOL   H54149679   1.669   5.272   7.135  1.0990  1.0671 -0.8324
   80MOL   H54249680   1.578   5.420   7.140 -0.6004  1.4004  1.9643
   80MOL   H54349681   1.850   5.398   7.278 -1.6799 -1.3856  0.7457
   80MOL   H54449682   1.771   5.541   7.232  1.1156 -0.1266  0.0721
   80MOL   H54549683   1.875   5.302   7.055  4.4847  0.2638 -1.7099
   80MOL   H54649684   1.826   5.441   6.983  0.5556 -1.1782 -0.4098
   80MOL   H54749685   2.006   5.570   7.116  1.7696  0.0171  0.2716
   80MOL   H54849686   2.070   5.412   7.160  1.5247  0.9393  0.8694
   80MOL   H54949687   2.075   5.373   6.908  0.8244  0.0734 -2.2679
   80MOL   H55049688   2.057   5.547   6.881  1.5729 -0.7322 -1.0456
   80MOL   H55149689   2.277   5.434   7.049  1.0995 -0.1022 -0.3945
   80MOL   H55249690   2.258   5.597   6.992 -3.2704 -0.5441  1.8331
   80MOL   H55349691   2.283   5.489   6.745 -0.7929 -1.2246  0.6353
   80MOL   H55449692   2.433   5.519   6.840  0.5798 -1.3564  0.4397
   80MOL   H55549693   2.388   5.255   6.916  0.2552  0.5390  0.0149
   80MOL   H55649694   2.461   5.301   6.760  0.1051  2.7700 -1.0260
   80MOL   H55749695   2.293   5.261   6.782 -0.3789 -0.0693  0.7328
   80MOL   H55849696   1.412   5.371   7.464 -0.0102 -1.6213  1.2606
   80MOL   H55949697   1.381   5.409   7.284 -0.1061 -0.0902 -0.1229
   80MOL   C56049698   1.250   5.270   7.374  0.3794 -0.3488 -0.6508
   80MOL   O56149699   1.224   5.201   7.255  0.1236  0.5977  0.2507
   80MOL   C56249700   1.106   5.115   7.254 -0.2259 -0.0098  0.2045
   80MOL   C56349701   1.091   5.056   7.110  0.5789 -0.5920 -0.4644
   80MOL   C56449702   1.202   4.969   7.061 -0.0738 -0.0319  0.6168
   80MOL   C56549703   1.198   4.916   6.916 -0.1262  0.0740 -0.8251
   80MOL   C56649704   1.332   4.854   6.873 -0.2370  0.5521  0.1754
   80MOL   C56749705   1.344   4.809   6.727 -0.0123  0.1455  0.5515
   80MOL   C56849706   1.270   4.682   6.681 -0.8010 -0.0594  0.2320
   80MOL   C56949707   1.319   4.548   6.752  0.9076 -0.6064  0.1141
   80MOL   C57049708   1.145   5.377   7.409  0.1483 -0.6482  0.5810
   80MOL   H57149709   1.244   5.195   7.454 -1.7324 -0.6326 -1.0492
   80MOL   H57249710   1.015   5.173   7.269 -0.3685 -0.3055  0.4745
   80MOL   H57349711   1.113   5.031   7.323  0.6865 -1.0715 -1.1328
   80MOL   H57449712   1.087   5.132   7.032  2.3309 -1.6821 -1.6395
   80MOL   H57549713   1.001   4.995   7.101 -0.1226  0.6284 -1.7503
   80MOL   H57649714   1.295   5.022   7.081 -0.5257  0.4892  1.4176
   80MOL   H57749715   1.211   4.881   7.125  0.7581 -0.1955  0.2778
   80MOL   H57849716   1.115   4.852   6.888  1.0946 -2.2568  0.6887
   80MOL   H57949717   1.179   5.003   6.853  0.3580  0.0414 -1.0228
   80MOL   H58049718   1.416   4.915   6.905  1.0615 -1.4894  0.7256
   80MOL   H58149719   1.343   4.765   6.936 -1.7270 -0.0562 -0.3866
   80MOL   H58249720   1.451   4.790   6.711  0.6329  2.1872  2.2260
   80MOL   H58349721   1.319   4.899   6.670 -1.5806  0.2826  1.4436
   80MOL   H58449722   1.161   4.687   6.689 -0.9968  0.1345 -2.1915
   80MOL   H58549723   1.290   4.682   6.574  1.2041  1.5020  0.5806
   80MOL   H58649724   1.244   4.479   6.713  1.6046 -0.2216 -1.9575
   80MOL   H58749725   1.320   4.552   6.861  2.0707 -2.8417  0.2128
   80MOL   H58849726   1.411   4.502   6.719 -0.5603 -1.5247 -2.8636
   80MOL   H58949727   1.186   5.477   7.403  1.1620 -1.0583  0.5537
   80MOL   H59049728   1.071   5.380   7.329 -0.2666  2.2856  1.0383
   80MOL   C59149729   1.073   5.350   7.548  0.1371  0.3849  0.0148
   80MOL   O59249730   0.957   5.426   7.566  0.1716  0.5748  0.4377
   80MOL   C59349731   0.839   5.373   7.504 -0.7880 -0.3012  0.1949
   80MOL   C59449732   0.711   5.454   7.543 -0.1108  0.3087 -0.0851
   80MOL   C59549733   0.585   5.414   7.465  0.4031 -0.0649  0.0887
   80MOL   C59649734   0.452   5.470   7.513 -0.6596 -0.7498 -0.2114
   80MOL   C59749735   0.343   5.423   7.413  0.5135 -0.3264  0.2677
   80MOL   C59849736   0.203   5.472   7.459 -0.0006  0.2095  0.9221
   80MOL   C59949737   0.091   5.411   7.364 -0.2111  0.1486  0.3680
   80MOL   C60049738   7.726   5.463   7.400  0.4469 -0.3422 -0.0661
   80MOL   C60149739   1.159   5.372   7.669  0.2487  0.3284  0.5210
   80MOL   H60249740   1.051   5.243   7.547 -1.2102  0.6243  2.0658
   80MOL   H60349741   0.823   5.269   7.529  0.9391 -1.0961 -1.8635
   80MOL   H60449742   0.860   5.370   7.397 -0.9543  1.6854  0.0728
   80MOL   H60549743   0.738   5.559   7.533  0.1586  0.2638  0.1552
   80MOL   H60649744   0.689   5.439   7.649  0.7816  0.9091  0.1873
   80MOL   H60749745   0.592   5.434   7.358  2.7799  0.0579  0.2549
   80MOL   H60849746   0.577   5.306   7.470 -0.5717 -0.0165 -0.3991
   80MOL   H60949747   0.431   5.427   7.611  2.3518 -0.5639  0.5555
   80MOL   H61049748   0.450   5.576   7.540  1.0393  0.1599 -3.3365
   80MOL   H61149749   0.362   5.450   7.309  1.1974  1.3676  0.8108
   80MOL   H61249750   0.331   5.315   7.413  0.4804 -0.3220 -0.2364
   80MOL   H61349751   0.217   5.580   7.453  2.4505 -0.2009 -1.9865
   80MOL   H61449752   0.180   5.451   7.564  3.2953  1.6252  2.0136
   80MOL   H61549753   0.130   5.436   7.266 -0.0321 -3.3746 -0.4965
   80MOL   H61649754   0.099   5.303   7.371 -2.4280 -0.2542 -2.3791
   80MOL   H61749755   7.726   5.572   7.406 -0.2219 -0.0232 -4.3734
   80MOL   H61849756   7.698   5.419   7.496  0.7560 -0.6759 -0.1295
   80MOL   H61949757   7.651   5.446   7.322  2.3977 -0.7365 -1.8994
   80MOL   H62049758   1.241   5.301   7.674 -0.5800 -0.6133  0.9591
   80MOL   H62149759   1.193   5.474   7.689  0.2865  0.3605  0.2885
   80MOL   H62249760   1.093   5.341   7.751 -0.9240 -2.5037 -1.4226
   7.77428   7.77428   7.77428
