;
; Gromacs include topology (itp) file.
; For Molecular Group XYZ
; Force field scheme: opls2005
; Produced from DL_FIELD v4.11
;


[ moleculetype ]
; name    nrexcl
XYZ    3

[ atoms ]
; nr   type   resnr   residu    atom    cgnr    charge    mass
    1        CT    1  MOL      C1     1   0.1400000   12.0115
    2        OS    1  MOL      O2     2  -0.4000000   15.9994
    3        CT    1  MOL      C3     3   0.1400000   12.0115
    4        CT    1  MOL      C4     4  -0.1200000   12.0115
    5        CT    1  MOL      C5     5  -0.1200000   12.0115
    6        CT    1  MOL      C6     6  -0.1200000   12.0115
    7        CT    1  MOL      C7     7  -0.1200000   12.0115
    8        CT    1  MOL      C8     8  -0.1200000   12.0115
    9        CT    1  MOL      C9     9  -0.1200000   12.0115
   10        CT    1  MOL     C10    10  -0.1800000   12.0115
   11        CT    1  MOL     C11    11  -0.1200000   12.0115
   12        HC    1  MOL     H12    12   0.0300000    1.0080
   13        HC    1  MOL     H13    13   0.0300000    1.0080
   14        HC    1  MOL     H14    14   0.0300000    1.0080
   15        HC    1  MOL     H15    15   0.0600000    1.0080
   16        HC    1  MOL     H16    16   0.0600000    1.0080
   17        HC    1  MOL     H17    17   0.0600000    1.0080
   18        HC    1  MOL     H18    18   0.0600000    1.0080
   19        HC    1  MOL     H19    19   0.0600000    1.0080
   20        HC    1  MOL     H20    20   0.0600000    1.0080
   21        HC    1  MOL     H21    21   0.0600000    1.0080
   22        HC    1  MOL     H22    22   0.0600000    1.0080
   23        HC    1  MOL     H23    23   0.0600000    1.0080
   24        HC    1  MOL     H24    24   0.0600000    1.0080
   25        HC    1  MOL     H25    25   0.0600000    1.0080
   26        HC    1  MOL     H26    26   0.0600000    1.0080
   27        HC    1  MOL     H27    27   0.0600000    1.0080
   28        HC    1  MOL     H28    28   0.0600000    1.0080
   29        HC    1  MOL     H29    29   0.0600000    1.0080
   30        HC    1  MOL     H30    30   0.0600000    1.0080
   31        HC    1  MOL     H31    31   0.0600000    1.0080
   32        HC    1  MOL     H32    32   0.0300000    1.0080
   33        CT    1  MOL     C33    33   0.1700000   12.0115
   34        OS    1  MOL     O34    34  -0.4000000   15.9994
   35        CT    1  MOL     C35    35   0.1400000   12.0115
   36        CT    1  MOL     C36    36  -0.1200000   12.0115
   37        CT    1  MOL     C37    37  -0.1200000   12.0115
   38        CT    1  MOL     C38    38  -0.1200000   12.0115
   39        CT    1  MOL     C39    39  -0.1200000   12.0115
   40        CT    1  MOL     C40    40  -0.1200000   12.0115
   41        CT    1  MOL     C41    41  -0.1200000   12.0115
   42        CT    1  MOL     C42    42  -0.1800000   12.0115
   43        CT    1  MOL     C43    43  -0.1200000   12.0115
   44        HC    1  MOL     H44    44   0.0300000    1.0080
   45        HC    1  MOL     H45    45   0.0300000    1.0080
   46        HC    1  MOL     H46    46   0.0300000    1.0080
   47        HC    1  MOL     H47    47   0.0600000    1.0080
   48        HC    1  MOL     H48    48   0.0600000    1.0080
   49        HC    1  MOL     H49    49   0.0600000    1.0080
   50        HC    1  MOL     H50    50   0.0600000    1.0080
   51        HC    1  MOL     H51    51   0.0600000    1.0080
   52        HC    1  MOL     H52    52   0.0600000    1.0080
   53        HC    1  MOL     H53    53   0.0600000    1.0080
   54        HC    1  MOL     H54    54   0.0600000    1.0080
   55        HC    1  MOL     H55    55   0.0600000    1.0080
   56        HC    1  MOL     H56    56   0.0600000    1.0080
   57        HC    1  MOL     H57    57   0.0600000    1.0080
   58        HC    1  MOL     H58    58   0.0600000    1.0080
   59        HC    1  MOL     H59    59   0.0600000    1.0080
   60        HC    1  MOL     H60    60   0.0600000    1.0080
   61        HC    1  MOL     H61    61   0.0600000    1.0080
   62        HC    1  MOL     H62    62   0.0600000    1.0080
   63        HC    1  MOL     H63    63   0.0600000    1.0080
   64        CT    1  MOL     C64    64   0.1700000   12.0115
   65        OS    1  MOL     O65    65  -0.4000000   15.9994
   66        CT    1  MOL     C66    66   0.1400000   12.0115
   67        CT    1  MOL     C67    67  -0.1200000   12.0115
   68        CT    1  MOL     C68    68  -0.1200000   12.0115
   69        CT    1  MOL     C69    69  -0.1200000   12.0115
   70        CT    1  MOL     C70    70  -0.1200000   12.0115
   71        CT    1  MOL     C71    71  -0.1200000   12.0115
   72        CT    1  MOL     C72    72  -0.1200000   12.0115
   73        CT    1  MOL     C73    73  -0.1800000   12.0115
   74        CT    1  MOL     C74    74  -0.1200000   12.0115
   75        HC    1  MOL     H75    75   0.0300000    1.0080
   76        HC    1  MOL     H76    76   0.0300000    1.0080
   77        HC    1  MOL     H77    77   0.0300000    1.0080
   78        HC    1  MOL     H78    78   0.0600000    1.0080
   79        HC    1  MOL     H79    79   0.0600000    1.0080
   80        HC    1  MOL     H80    80   0.0600000    1.0080
   81        HC    1  MOL     H81    81   0.0600000    1.0080
   82        HC    1  MOL     H82    82   0.0600000    1.0080
   83        HC    1  MOL     H83    83   0.0600000    1.0080
   84        HC    1  MOL     H84    84   0.0600000    1.0080
   85        HC    1  MOL     H85    85   0.0600000    1.0080
   86        HC    1  MOL     H86    86   0.0600000    1.0080
   87        HC    1  MOL     H87    87   0.0600000    1.0080
   88        HC    1  MOL     H88    88   0.0600000    1.0080
   89        HC    1  MOL     H89    89   0.0600000    1.0080
   90        HC    1  MOL     H90    90   0.0600000    1.0080
   91        HC    1  MOL     H91    91   0.0600000    1.0080
   92        HC    1  MOL     H92    92   0.0600000    1.0080
   93        HC    1  MOL     H93    93   0.0600000    1.0080
   94        HC    1  MOL     H94    94   0.0600000    1.0080
   95        CT    1  MOL     C95    95   0.1700000   12.0115
   96        OS    1  MOL     O96    96  -0.4000000   15.9994
   97        CT    1  MOL     C97    97   0.1400000   12.0115
   98        CT    1  MOL     C98    98  -0.1200000   12.0115
   99        CT    1  MOL     C99    99  -0.1200000   12.0115
  100        CT    1  MOL    C100   100  -0.1200000   12.0115
  101        CT    1  MOL    C101   101  -0.1200000   12.0115
  102        CT    1  MOL    C102   102  -0.1200000   12.0115
  103        CT    1  MOL    C103   103  -0.1200000   12.0115
  104        CT    1  MOL    C104   104  -0.1800000   12.0115
  105        CT    1  MOL    C105   105  -0.1200000   12.0115
  106        HC    1  MOL    H106   106   0.0300000    1.0080
  107        HC    1  MOL    H107   107   0.0300000    1.0080
  108        HC    1  MOL    H108   108   0.0300000    1.0080
  109        HC    1  MOL    H109   109   0.0600000    1.0080
  110        HC    1  MOL    H110   110   0.0600000    1.0080
  111        HC    1  MOL    H111   111   0.0600000    1.0080
  112        HC    1  MOL    H112   112   0.0600000    1.0080
  113        HC    1  MOL    H113   113   0.0600000    1.0080
  114        HC    1  MOL    H114   114   0.0600000    1.0080
  115        HC    1  MOL    H115   115   0.0600000    1.0080
  116        HC    1  MOL    H116   116   0.0600000    1.0080
  117        HC    1  MOL    H117   117   0.0600000    1.0080
  118        HC    1  MOL    H118   118   0.0600000    1.0080
  119        HC    1  MOL    H119   119   0.0600000    1.0080
  120        HC    1  MOL    H120   120   0.0600000    1.0080
  121        HC    1  MOL    H121   121   0.0600000    1.0080
  122        HC    1  MOL    H122   122   0.0600000    1.0080
  123        HC    1  MOL    H123   123   0.0600000    1.0080
  124        HC    1  MOL    H124   124   0.0600000    1.0080
  125        HC    1  MOL    H125   125   0.0600000    1.0080
  126        CT    1  MOL    C126   126   0.1700000   12.0115
  127        OS    1  MOL    O127   127  -0.4000000   15.9994
  128        CT    1  MOL    C128   128   0.1400000   12.0115
  129        CT    1  MOL    C129   129  -0.1200000   12.0115
  130        CT    1  MOL    C130   130  -0.1200000   12.0115
  131        CT    1  MOL    C131   131  -0.1200000   12.0115
  132        CT    1  MOL    C132   132  -0.1200000   12.0115
  133        CT    1  MOL    C133   133  -0.1200000   12.0115
  134        CT    1  MOL    C134   134  -0.1200000   12.0115
  135        CT    1  MOL    C135   135  -0.1800000   12.0115
  136        CT    1  MOL    C136   136  -0.1200000   12.0115
  137        HC    1  MOL    H137   137   0.0300000    1.0080
  138        HC    1  MOL    H138   138   0.0300000    1.0080
  139        HC    1  MOL    H139   139   0.0300000    1.0080
  140        HC    1  MOL    H140   140   0.0600000    1.0080
  141        HC    1  MOL    H141   141   0.0600000    1.0080
  142        HC    1  MOL    H142   142   0.0600000    1.0080
  143        HC    1  MOL    H143   143   0.0600000    1.0080
  144        HC    1  MOL    H144   144   0.0600000    1.0080
  145        HC    1  MOL    H145   145   0.0600000    1.0080
  146        HC    1  MOL    H146   146   0.0600000    1.0080
  147        HC    1  MOL    H147   147   0.0600000    1.0080
  148        HC    1  MOL    H148   148   0.0600000    1.0080
  149        HC    1  MOL    H149   149   0.0600000    1.0080
  150        HC    1  MOL    H150   150   0.0600000    1.0080
  151        HC    1  MOL    H151   151   0.0600000    1.0080
  152        HC    1  MOL    H152   152   0.0600000    1.0080
  153        HC    1  MOL    H153   153   0.0600000    1.0080
  154        HC    1  MOL    H154   154   0.0600000    1.0080
  155        HC    1  MOL    H155   155   0.0600000    1.0080
  156        HC    1  MOL    H156   156   0.0600000    1.0080
  157        CT    1  MOL    C157   157   0.1700000   12.0115
  158        OS    1  MOL    O158   158  -0.4000000   15.9994
  159        CT    1  MOL    C159   159   0.1400000   12.0115
  160        CT    1  MOL    C160   160  -0.1200000   12.0115
  161        CT    1  MOL    C161   161  -0.1200000   12.0115
  162        CT    1  MOL    C162   162  -0.1200000   12.0115
  163        CT    1  MOL    C163   163  -0.1200000   12.0115
  164        CT    1  MOL    C164   164  -0.1200000   12.0115
  165        CT    1  MOL    C165   165  -0.1200000   12.0115
  166        CT    1  MOL    C166   166  -0.1800000   12.0115
  167        CT    1  MOL    C167   167  -0.1200000   12.0115
  168        HC    1  MOL    H168   168   0.0300000    1.0080
  169        HC    1  MOL    H169   169   0.0300000    1.0080
  170        HC    1  MOL    H170   170   0.0300000    1.0080
  171        HC    1  MOL    H171   171   0.0600000    1.0080
  172        HC    1  MOL    H172   172   0.0600000    1.0080
  173        HC    1  MOL    H173   173   0.0600000    1.0080
  174        HC    1  MOL    H174   174   0.0600000    1.0080
  175        HC    1  MOL    H175   175   0.0600000    1.0080
  176        HC    1  MOL    H176   176   0.0600000    1.0080
  177        HC    1  MOL    H177   177   0.0600000    1.0080
  178        HC    1  MOL    H178   178   0.0600000    1.0080
  179        HC    1  MOL    H179   179   0.0600000    1.0080
  180        HC    1  MOL    H180   180   0.0600000    1.0080
  181        HC    1  MOL    H181   181   0.0600000    1.0080
  182        HC    1  MOL    H182   182   0.0600000    1.0080
  183        HC    1  MOL    H183   183   0.0600000    1.0080
  184        HC    1  MOL    H184   184   0.0600000    1.0080
  185        HC    1  MOL    H185   185   0.0600000    1.0080
  186        HC    1  MOL    H186   186   0.0600000    1.0080
  187        HC    1  MOL    H187   187   0.0600000    1.0080
  188        CT    1  MOL    C188   188   0.1700000   12.0115
  189        OS    1  MOL    O189   189  -0.4000000   15.9994
  190        CT    1  MOL    C190   190   0.1400000   12.0115
  191        CT    1  MOL    C191   191  -0.1200000   12.0115
  192        CT    1  MOL    C192   192  -0.1200000   12.0115
  193        CT    1  MOL    C193   193  -0.1200000   12.0115
  194        CT    1  MOL    C194   194  -0.1200000   12.0115
  195        CT    1  MOL    C195   195  -0.1200000   12.0115
  196        CT    1  MOL    C196   196  -0.1200000   12.0115
  197        CT    1  MOL    C197   197  -0.1800000   12.0115
  198        CT    1  MOL    C198   198  -0.1200000   12.0115
  199        HC    1  MOL    H199   199   0.0300000    1.0080
  200        HC    1  MOL    H200   200   0.0300000    1.0080
  201        HC    1  MOL    H201   201   0.0300000    1.0080
  202        HC    1  MOL    H202   202   0.0600000    1.0080
  203        HC    1  MOL    H203   203   0.0600000    1.0080
  204        HC    1  MOL    H204   204   0.0600000    1.0080
  205        HC    1  MOL    H205   205   0.0600000    1.0080
  206        HC    1  MOL    H206   206   0.0600000    1.0080
  207        HC    1  MOL    H207   207   0.0600000    1.0080
  208        HC    1  MOL    H208   208   0.0600000    1.0080
  209        HC    1  MOL    H209   209   0.0600000    1.0080
  210        HC    1  MOL    H210   210   0.0600000    1.0080
  211        HC    1  MOL    H211   211   0.0600000    1.0080
  212        HC    1  MOL    H212   212   0.0600000    1.0080
  213        HC    1  MOL    H213   213   0.0600000    1.0080
  214        HC    1  MOL    H214   214   0.0600000    1.0080
  215        HC    1  MOL    H215   215   0.0600000    1.0080
  216        HC    1  MOL    H216   216   0.0600000    1.0080
  217        HC    1  MOL    H217   217   0.0600000    1.0080
  218        HC    1  MOL    H218   218   0.0600000    1.0080
  219        CT    1  MOL    C219   219   0.1700000   12.0115
  220        OS    1  MOL    O220   220  -0.4000000   15.9994
  221        CT    1  MOL    C221   221   0.1400000   12.0115
  222        CT    1  MOL    C222   222  -0.1200000   12.0115
  223        CT    1  MOL    C223   223  -0.1200000   12.0115
  224        CT    1  MOL    C224   224  -0.1200000   12.0115
  225        CT    1  MOL    C225   225  -0.1200000   12.0115
  226        CT    1  MOL    C226   226  -0.1200000   12.0115
  227        CT    1  MOL    C227   227  -0.1200000   12.0115
  228        CT    1  MOL    C228   228  -0.1800000   12.0115
  229        CT    1  MOL    C229   229  -0.1200000   12.0115
  230        HC    1  MOL    H230   230   0.0300000    1.0080
  231        HC    1  MOL    H231   231   0.0300000    1.0080
  232        HC    1  MOL    H232   232   0.0300000    1.0080
  233        HC    1  MOL    H233   233   0.0600000    1.0080
  234        HC    1  MOL    H234   234   0.0600000    1.0080
  235        HC    1  MOL    H235   235   0.0600000    1.0080
  236        HC    1  MOL    H236   236   0.0600000    1.0080
  237        HC    1  MOL    H237   237   0.0600000    1.0080
  238        HC    1  MOL    H238   238   0.0600000    1.0080
  239        HC    1  MOL    H239   239   0.0600000    1.0080
  240        HC    1  MOL    H240   240   0.0600000    1.0080
  241        HC    1  MOL    H241   241   0.0600000    1.0080
  242        HC    1  MOL    H242   242   0.0600000    1.0080
  243        HC    1  MOL    H243   243   0.0600000    1.0080
  244        HC    1  MOL    H244   244   0.0600000    1.0080
  245        HC    1  MOL    H245   245   0.0600000    1.0080
  246        HC    1  MOL    H246   246   0.0600000    1.0080
  247        HC    1  MOL    H247   247   0.0600000    1.0080
  248        HC    1  MOL    H248   248   0.0600000    1.0080
  249        HC    1  MOL    H249   249   0.0600000    1.0080
  250        CT    1  MOL    C250   250   0.1700000   12.0115
  251        OS    1  MOL    O251   251  -0.4000000   15.9994
  252        CT    1  MOL    C252   252   0.1400000   12.0115
  253        CT    1  MOL    C253   253  -0.1200000   12.0115
  254        CT    1  MOL    C254   254  -0.1200000   12.0115
  255        CT    1  MOL    C255   255  -0.1200000   12.0115
  256        CT    1  MOL    C256   256  -0.1200000   12.0115
  257        CT    1  MOL    C257   257  -0.1200000   12.0115
  258        CT    1  MOL    C258   258  -0.1200000   12.0115
  259        CT    1  MOL    C259   259  -0.1800000   12.0115
  260        CT    1  MOL    C260   260  -0.1200000   12.0115
  261        HC    1  MOL    H261   261   0.0300000    1.0080
  262        HC    1  MOL    H262   262   0.0300000    1.0080
  263        HC    1  MOL    H263   263   0.0300000    1.0080
  264        HC    1  MOL    H264   264   0.0600000    1.0080
  265        HC    1  MOL    H265   265   0.0600000    1.0080
  266        HC    1  MOL    H266   266   0.0600000    1.0080
  267        HC    1  MOL    H267   267   0.0600000    1.0080
  268        HC    1  MOL    H268   268   0.0600000    1.0080
  269        HC    1  MOL    H269   269   0.0600000    1.0080
  270        HC    1  MOL    H270   270   0.0600000    1.0080
  271        HC    1  MOL    H271   271   0.0600000    1.0080
  272        HC    1  MOL    H272   272   0.0600000    1.0080
  273        HC    1  MOL    H273   273   0.0600000    1.0080
  274        HC    1  MOL    H274   274   0.0600000    1.0080
  275        HC    1  MOL    H275   275   0.0600000    1.0080
  276        HC    1  MOL    H276   276   0.0600000    1.0080
  277        HC    1  MOL    H277   277   0.0600000    1.0080
  278        HC    1  MOL    H278   278   0.0600000    1.0080
  279        HC    1  MOL    H279   279   0.0600000    1.0080
  280        HC    1  MOL    H280   280   0.0600000    1.0080
  281        CT    1  MOL    C281   281   0.1700000   12.0115
  282        OS    1  MOL    O282   282  -0.4000000   15.9994
  283        CT    1  MOL    C283   283   0.1400000   12.0115
  284        CT    1  MOL    C284   284  -0.1200000   12.0115
  285        CT    1  MOL    C285   285  -0.1200000   12.0115
  286        CT    1  MOL    C286   286  -0.1200000   12.0115
  287        CT    1  MOL    C287   287  -0.1200000   12.0115
  288        CT    1  MOL    C288   288  -0.1200000   12.0115
  289        CT    1  MOL    C289   289  -0.1200000   12.0115
  290        CT    1  MOL    C290   290  -0.1800000   12.0115
  291        CT    1  MOL    C291   291  -0.1200000   12.0115
  292        HC    1  MOL    H292   292   0.0300000    1.0080
  293        HC    1  MOL    H293   293   0.0300000    1.0080
  294        HC    1  MOL    H294   294   0.0300000    1.0080
  295        HC    1  MOL    H295   295   0.0600000    1.0080
  296        HC    1  MOL    H296   296   0.0600000    1.0080
  297        HC    1  MOL    H297   297   0.0600000    1.0080
  298        HC    1  MOL    H298   298   0.0600000    1.0080
  299        HC    1  MOL    H299   299   0.0600000    1.0080
  300        HC    1  MOL    H300   300   0.0600000    1.0080
  301        HC    1  MOL    H301   301   0.0600000    1.0080
  302        HC    1  MOL    H302   302   0.0600000    1.0080
  303        HC    1  MOL    H303   303   0.0600000    1.0080
  304        HC    1  MOL    H304   304   0.0600000    1.0080
  305        HC    1  MOL    H305   305   0.0600000    1.0080
  306        HC    1  MOL    H306   306   0.0600000    1.0080
  307        HC    1  MOL    H307   307   0.0600000    1.0080
  308        HC    1  MOL    H308   308   0.0600000    1.0080
  309        HC    1  MOL    H309   309   0.0600000    1.0080
  310        HC    1  MOL    H310   310   0.0600000    1.0080
  311        HC    1  MOL    H311   311   0.0600000    1.0080
  312        CT    1  MOL    C312   312   0.1700000   12.0115
  313        OS    1  MOL    O313   313  -0.4000000   15.9994
  314        CT    1  MOL    C314   314   0.1400000   12.0115
  315        CT    1  MOL    C315   315  -0.1200000   12.0115
  316        CT    1  MOL    C316   316  -0.1200000   12.0115
  317        CT    1  MOL    C317   317  -0.1200000   12.0115
  318        CT    1  MOL    C318   318  -0.1200000   12.0115
  319        CT    1  MOL    C319   319  -0.1200000   12.0115
  320        CT    1  MOL    C320   320  -0.1200000   12.0115
  321        CT    1  MOL    C321   321  -0.1800000   12.0115
  322        CT    1  MOL    C322   322  -0.1200000   12.0115
  323        HC    1  MOL    H323   323   0.0300000    1.0080
  324        HC    1  MOL    H324   324   0.0300000    1.0080
  325        HC    1  MOL    H325   325   0.0300000    1.0080
  326        HC    1  MOL    H326   326   0.0600000    1.0080
  327        HC    1  MOL    H327   327   0.0600000    1.0080
  328        HC    1  MOL    H328   328   0.0600000    1.0080
  329        HC    1  MOL    H329   329   0.0600000    1.0080
  330        HC    1  MOL    H330   330   0.0600000    1.0080
  331        HC    1  MOL    H331   331   0.0600000    1.0080
  332        HC    1  MOL    H332   332   0.0600000    1.0080
  333        HC    1  MOL    H333   333   0.0600000    1.0080
  334        HC    1  MOL    H334   334   0.0600000    1.0080
  335        HC    1  MOL    H335   335   0.0600000    1.0080
  336        HC    1  MOL    H336   336   0.0600000    1.0080
  337        HC    1  MOL    H337   337   0.0600000    1.0080
  338        HC    1  MOL    H338   338   0.0600000    1.0080
  339        HC    1  MOL    H339   339   0.0600000    1.0080
  340        HC    1  MOL    H340   340   0.0600000    1.0080
  341        HC    1  MOL    H341   341   0.0600000    1.0080
  342        HC    1  MOL    H342   342   0.0600000    1.0080
  343        CT    1  MOL    C343   343   0.1700000   12.0115
  344        OS    1  MOL    O344   344  -0.4000000   15.9994
  345        CT    1  MOL    C345   345   0.1400000   12.0115
  346        CT    1  MOL    C346   346  -0.1200000   12.0115
  347        CT    1  MOL    C347   347  -0.1200000   12.0115
  348        CT    1  MOL    C348   348  -0.1200000   12.0115
  349        CT    1  MOL    C349   349  -0.1200000   12.0115
  350        CT    1  MOL    C350   350  -0.1200000   12.0115
  351        CT    1  MOL    C351   351  -0.1200000   12.0115
  352        CT    1  MOL    C352   352  -0.1800000   12.0115
  353        CT    1  MOL    C353   353  -0.1200000   12.0115
  354        HC    1  MOL    H354   354   0.0300000    1.0080
  355        HC    1  MOL    H355   355   0.0300000    1.0080
  356        HC    1  MOL    H356   356   0.0300000    1.0080
  357        HC    1  MOL    H357   357   0.0600000    1.0080
  358        HC    1  MOL    H358   358   0.0600000    1.0080
  359        HC    1  MOL    H359   359   0.0600000    1.0080
  360        HC    1  MOL    H360   360   0.0600000    1.0080
  361        HC    1  MOL    H361   361   0.0600000    1.0080
  362        HC    1  MOL    H362   362   0.0600000    1.0080
  363        HC    1  MOL    H363   363   0.0600000    1.0080
  364        HC    1  MOL    H364   364   0.0600000    1.0080
  365        HC    1  MOL    H365   365   0.0600000    1.0080
  366        HC    1  MOL    H366   366   0.0600000    1.0080
  367        HC    1  MOL    H367   367   0.0600000    1.0080
  368        HC    1  MOL    H368   368   0.0600000    1.0080
  369        HC    1  MOL    H369   369   0.0600000    1.0080
  370        HC    1  MOL    H370   370   0.0600000    1.0080
  371        HC    1  MOL    H371   371   0.0600000    1.0080
  372        HC    1  MOL    H372   372   0.0600000    1.0080
  373        HC    1  MOL    H373   373   0.0600000    1.0080
  374        CT    1  MOL    C374   374   0.1700000   12.0115
  375        OS    1  MOL    O375   375  -0.4000000   15.9994
  376        CT    1  MOL    C376   376   0.1400000   12.0115
  377        CT    1  MOL    C377   377  -0.1200000   12.0115
  378        CT    1  MOL    C378   378  -0.1200000   12.0115
  379        CT    1  MOL    C379   379  -0.1200000   12.0115
  380        CT    1  MOL    C380   380  -0.1200000   12.0115
  381        CT    1  MOL    C381   381  -0.1200000   12.0115
  382        CT    1  MOL    C382   382  -0.1200000   12.0115
  383        CT    1  MOL    C383   383  -0.1800000   12.0115
  384        CT    1  MOL    C384   384  -0.1200000   12.0115
  385        HC    1  MOL    H385   385   0.0300000    1.0080
  386        HC    1  MOL    H386   386   0.0300000    1.0080
  387        HC    1  MOL    H387   387   0.0300000    1.0080
  388        HC    1  MOL    H388   388   0.0600000    1.0080
  389        HC    1  MOL    H389   389   0.0600000    1.0080
  390        HC    1  MOL    H390   390   0.0600000    1.0080
  391        HC    1  MOL    H391   391   0.0600000    1.0080
  392        HC    1  MOL    H392   392   0.0600000    1.0080
  393        HC    1  MOL    H393   393   0.0600000    1.0080
  394        HC    1  MOL    H394   394   0.0600000    1.0080
  395        HC    1  MOL    H395   395   0.0600000    1.0080
  396        HC    1  MOL    H396   396   0.0600000    1.0080
  397        HC    1  MOL    H397   397   0.0600000    1.0080
  398        HC    1  MOL    H398   398   0.0600000    1.0080
  399        HC    1  MOL    H399   399   0.0600000    1.0080
  400        HC    1  MOL    H400   400   0.0600000    1.0080
  401        HC    1  MOL    H401   401   0.0600000    1.0080
  402        HC    1  MOL    H402   402   0.0600000    1.0080
  403        HC    1  MOL    H403   403   0.0600000    1.0080
  404        HC    1  MOL    H404   404   0.0600000    1.0080
  405        CT    1  MOL    C405   405   0.1700000   12.0115
  406        OS    1  MOL    O406   406  -0.4000000   15.9994
  407        CT    1  MOL    C407   407   0.1400000   12.0115
  408        CT    1  MOL    C408   408  -0.1200000   12.0115
  409        CT    1  MOL    C409   409  -0.1200000   12.0115
  410        CT    1  MOL    C410   410  -0.1200000   12.0115
  411        CT    1  MOL    C411   411  -0.1200000   12.0115
  412        CT    1  MOL    C412   412  -0.1200000   12.0115
  413        CT    1  MOL    C413   413  -0.1200000   12.0115
  414        CT    1  MOL    C414   414  -0.1800000   12.0115
  415        CT    1  MOL    C415   415  -0.1200000   12.0115
  416        HC    1  MOL    H416   416   0.0300000    1.0080
  417        HC    1  MOL    H417   417   0.0300000    1.0080
  418        HC    1  MOL    H418   418   0.0300000    1.0080
  419        HC    1  MOL    H419   419   0.0600000    1.0080
  420        HC    1  MOL    H420   420   0.0600000    1.0080
  421        HC    1  MOL    H421   421   0.0600000    1.0080
  422        HC    1  MOL    H422   422   0.0600000    1.0080
  423        HC    1  MOL    H423   423   0.0600000    1.0080
  424        HC    1  MOL    H424   424   0.0600000    1.0080
  425        HC    1  MOL    H425   425   0.0600000    1.0080
  426        HC    1  MOL    H426   426   0.0600000    1.0080
  427        HC    1  MOL    H427   427   0.0600000    1.0080
  428        HC    1  MOL    H428   428   0.0600000    1.0080
  429        HC    1  MOL    H429   429   0.0600000    1.0080
  430        HC    1  MOL    H430   430   0.0600000    1.0080
  431        HC    1  MOL    H431   431   0.0600000    1.0080
  432        HC    1  MOL    H432   432   0.0600000    1.0080
  433        HC    1  MOL    H433   433   0.0600000    1.0080
  434        HC    1  MOL    H434   434   0.0600000    1.0080
  435        HC    1  MOL    H435   435   0.0600000    1.0080
  436        CT    1  MOL    C436   436   0.1700000   12.0115
  437        OS    1  MOL    O437   437  -0.4000000   15.9994
  438        CT    1  MOL    C438   438   0.1400000   12.0115
  439        CT    1  MOL    C439   439  -0.1200000   12.0115
  440        CT    1  MOL    C440   440  -0.1200000   12.0115
  441        CT    1  MOL    C441   441  -0.1200000   12.0115
  442        CT    1  MOL    C442   442  -0.1200000   12.0115
  443        CT    1  MOL    C443   443  -0.1200000   12.0115
  444        CT    1  MOL    C444   444  -0.1200000   12.0115
  445        CT    1  MOL    C445   445  -0.1800000   12.0115
  446        CT    1  MOL    C446   446  -0.1200000   12.0115
  447        HC    1  MOL    H447   447   0.0300000    1.0080
  448        HC    1  MOL    H448   448   0.0300000    1.0080
  449        HC    1  MOL    H449   449   0.0300000    1.0080
  450        HC    1  MOL    H450   450   0.0600000    1.0080
  451        HC    1  MOL    H451   451   0.0600000    1.0080
  452        HC    1  MOL    H452   452   0.0600000    1.0080
  453        HC    1  MOL    H453   453   0.0600000    1.0080
  454        HC    1  MOL    H454   454   0.0600000    1.0080
  455        HC    1  MOL    H455   455   0.0600000    1.0080
  456        HC    1  MOL    H456   456   0.0600000    1.0080
  457        HC    1  MOL    H457   457   0.0600000    1.0080
  458        HC    1  MOL    H458   458   0.0600000    1.0080
  459        HC    1  MOL    H459   459   0.0600000    1.0080
  460        HC    1  MOL    H460   460   0.0600000    1.0080
  461        HC    1  MOL    H461   461   0.0600000    1.0080
  462        HC    1  MOL    H462   462   0.0600000    1.0080
  463        HC    1  MOL    H463   463   0.0600000    1.0080
  464        HC    1  MOL    H464   464   0.0600000    1.0080
  465        HC    1  MOL    H465   465   0.0600000    1.0080
  466        HC    1  MOL    H466   466   0.0600000    1.0080
  467        CT    1  MOL    C467   467   0.1700000   12.0115
  468        OS    1  MOL    O468   468  -0.4000000   15.9994
  469        CT    1  MOL    C469   469   0.1400000   12.0115
  470        CT    1  MOL    C470   470  -0.1200000   12.0115
  471        CT    1  MOL    C471   471  -0.1200000   12.0115
  472        CT    1  MOL    C472   472  -0.1200000   12.0115
  473        CT    1  MOL    C473   473  -0.1200000   12.0115
  474        CT    1  MOL    C474   474  -0.1200000   12.0115
  475        CT    1  MOL    C475   475  -0.1200000   12.0115
  476        CT    1  MOL    C476   476  -0.1800000   12.0115
  477        CT    1  MOL    C477   477  -0.1200000   12.0115
  478        HC    1  MOL    H478   478   0.0300000    1.0080
  479        HC    1  MOL    H479   479   0.0300000    1.0080
  480        HC    1  MOL    H480   480   0.0300000    1.0080
  481        HC    1  MOL    H481   481   0.0600000    1.0080
  482        HC    1  MOL    H482   482   0.0600000    1.0080
  483        HC    1  MOL    H483   483   0.0600000    1.0080
  484        HC    1  MOL    H484   484   0.0600000    1.0080
  485        HC    1  MOL    H485   485   0.0600000    1.0080
  486        HC    1  MOL    H486   486   0.0600000    1.0080
  487        HC    1  MOL    H487   487   0.0600000    1.0080
  488        HC    1  MOL    H488   488   0.0600000    1.0080
  489        HC    1  MOL    H489   489   0.0600000    1.0080
  490        HC    1  MOL    H490   490   0.0600000    1.0080
  491        HC    1  MOL    H491   491   0.0600000    1.0080
  492        HC    1  MOL    H492   492   0.0600000    1.0080
  493        HC    1  MOL    H493   493   0.0600000    1.0080
  494        HC    1  MOL    H494   494   0.0600000    1.0080
  495        HC    1  MOL    H495   495   0.0600000    1.0080
  496        HC    1  MOL    H496   496   0.0600000    1.0080
  497        HC    1  MOL    H497   497   0.0600000    1.0080
  498        CT    1  MOL    C498   498   0.1700000   12.0115
  499        OS    1  MOL    O499   499  -0.4000000   15.9994
  500        CT    1  MOL    C500   500   0.1400000   12.0115
  501        CT    1  MOL    C501   501  -0.1200000   12.0115
  502        CT    1  MOL    C502   502  -0.1200000   12.0115
  503        CT    1  MOL    C503   503  -0.1200000   12.0115
  504        CT    1  MOL    C504   504  -0.1200000   12.0115
  505        CT    1  MOL    C505   505  -0.1200000   12.0115
  506        CT    1  MOL    C506   506  -0.1200000   12.0115
  507        CT    1  MOL    C507   507  -0.1800000   12.0115
  508        CT    1  MOL    C508   508  -0.1200000   12.0115
  509        HC    1  MOL    H509   509   0.0300000    1.0080
  510        HC    1  MOL    H510   510   0.0300000    1.0080
  511        HC    1  MOL    H511   511   0.0300000    1.0080
  512        HC    1  MOL    H512   512   0.0600000    1.0080
  513        HC    1  MOL    H513   513   0.0600000    1.0080
  514        HC    1  MOL    H514   514   0.0600000    1.0080
  515        HC    1  MOL    H515   515   0.0600000    1.0080
  516        HC    1  MOL    H516   516   0.0600000    1.0080
  517        HC    1  MOL    H517   517   0.0600000    1.0080
  518        HC    1  MOL    H518   518   0.0600000    1.0080
  519        HC    1  MOL    H519   519   0.0600000    1.0080
  520        HC    1  MOL    H520   520   0.0600000    1.0080
  521        HC    1  MOL    H521   521   0.0600000    1.0080
  522        HC    1  MOL    H522   522   0.0600000    1.0080
  523        HC    1  MOL    H523   523   0.0600000    1.0080
  524        HC    1  MOL    H524   524   0.0600000    1.0080
  525        HC    1  MOL    H525   525   0.0600000    1.0080
  526        HC    1  MOL    H526   526   0.0600000    1.0080
  527        HC    1  MOL    H527   527   0.0600000    1.0080
  528        HC    1  MOL    H528   528   0.0600000    1.0080
  529        CT    1  MOL    C529   529   0.1700000   12.0115
  530        OS    1  MOL    O530   530  -0.4000000   15.9994
  531        CT    1  MOL    C531   531   0.1400000   12.0115
  532        CT    1  MOL    C532   532  -0.1200000   12.0115
  533        CT    1  MOL    C533   533  -0.1200000   12.0115
  534        CT    1  MOL    C534   534  -0.1200000   12.0115
  535        CT    1  MOL    C535   535  -0.1200000   12.0115
  536        CT    1  MOL    C536   536  -0.1200000   12.0115
  537        CT    1  MOL    C537   537  -0.1200000   12.0115
  538        CT    1  MOL    C538   538  -0.1800000   12.0115
  539        CT    1  MOL    C539   539  -0.1200000   12.0115
  540        HC    1  MOL    H540   540   0.0300000    1.0080
  541        HC    1  MOL    H541   541   0.0300000    1.0080
  542        HC    1  MOL    H542   542   0.0300000    1.0080
  543        HC    1  MOL    H543   543   0.0600000    1.0080
  544        HC    1  MOL    H544   544   0.0600000    1.0080
  545        HC    1  MOL    H545   545   0.0600000    1.0080
  546        HC    1  MOL    H546   546   0.0600000    1.0080
  547        HC    1  MOL    H547   547   0.0600000    1.0080
  548        HC    1  MOL    H548   548   0.0600000    1.0080
  549        HC    1  MOL    H549   549   0.0600000    1.0080
  550        HC    1  MOL    H550   550   0.0600000    1.0080
  551        HC    1  MOL    H551   551   0.0600000    1.0080
  552        HC    1  MOL    H552   552   0.0600000    1.0080
  553        HC    1  MOL    H553   553   0.0600000    1.0080
  554        HC    1  MOL    H554   554   0.0600000    1.0080
  555        HC    1  MOL    H555   555   0.0600000    1.0080
  556        HC    1  MOL    H556   556   0.0600000    1.0080
  557        HC    1  MOL    H557   557   0.0600000    1.0080
  558        HC    1  MOL    H558   558   0.0600000    1.0080
  559        HC    1  MOL    H559   559   0.0600000    1.0080
  560        CT    1  MOL    C560   560   0.1700000   12.0115
  561        OS    1  MOL    O561   561  -0.4000000   15.9994
  562        CT    1  MOL    C562   562   0.1400000   12.0115
  563        CT    1  MOL    C563   563  -0.1200000   12.0115
  564        CT    1  MOL    C564   564  -0.1200000   12.0115
  565        CT    1  MOL    C565   565  -0.1200000   12.0115
  566        CT    1  MOL    C566   566  -0.1200000   12.0115
  567        CT    1  MOL    C567   567  -0.1200000   12.0115
  568        CT    1  MOL    C568   568  -0.1200000   12.0115
  569        CT    1  MOL    C569   569  -0.1800000   12.0115
  570        CT    1  MOL    C570   570  -0.1200000   12.0115
  571        HC    1  MOL    H571   571   0.0300000    1.0080
  572        HC    1  MOL    H572   572   0.0300000    1.0080
  573        HC    1  MOL    H573   573   0.0300000    1.0080
  574        HC    1  MOL    H574   574   0.0600000    1.0080
  575        HC    1  MOL    H575   575   0.0600000    1.0080
  576        HC    1  MOL    H576   576   0.0600000    1.0080
  577        HC    1  MOL    H577   577   0.0600000    1.0080
  578        HC    1  MOL    H578   578   0.0600000    1.0080
  579        HC    1  MOL    H579   579   0.0600000    1.0080
  580        HC    1  MOL    H580   580   0.0600000    1.0080
  581        HC    1  MOL    H581   581   0.0600000    1.0080
  582        HC    1  MOL    H582   582   0.0600000    1.0080
  583        HC    1  MOL    H583   583   0.0600000    1.0080
  584        HC    1  MOL    H584   584   0.0600000    1.0080
  585        HC    1  MOL    H585   585   0.0600000    1.0080
  586        HC    1  MOL    H586   586   0.0600000    1.0080
  587        HC    1  MOL    H587   587   0.0600000    1.0080
  588        HC    1  MOL    H588   588   0.0600000    1.0080
  589        HC    1  MOL    H589   589   0.0600000    1.0080
  590        HC    1  MOL    H590   590   0.0600000    1.0080
  591        CT    1  MOL    C591   591   0.1700000   12.0115
  592        OS    1  MOL    O592   592  -0.4000000   15.9994
  593        CT    1  MOL    C593   593   0.1400000   12.0115
  594        CT    1  MOL    C594   594  -0.1200000   12.0115
  595        CT    1  MOL    C595   595  -0.1200000   12.0115
  596        CT    1  MOL    C596   596  -0.1200000   12.0115
  597        CT    1  MOL    C597   597  -0.1200000   12.0115
  598        CT    1  MOL    C598   598  -0.1200000   12.0115
  599        CT    1  MOL    C599   599  -0.1200000   12.0115
  600        CT    1  MOL    C600   600  -0.1800000   12.0115
  601        CT    1  MOL    C601   601  -0.1800000   12.0115
  602        HC    1  MOL    H602   602   0.0300000    1.0080
  603        HC    1  MOL    H603   603   0.0300000    1.0080
  604        HC    1  MOL    H604   604   0.0300000    1.0080
  605        HC    1  MOL    H605   605   0.0600000    1.0080
  606        HC    1  MOL    H606   606   0.0600000    1.0080
  607        HC    1  MOL    H607   607   0.0600000    1.0080
  608        HC    1  MOL    H608   608   0.0600000    1.0080
  609        HC    1  MOL    H609   609   0.0600000    1.0080
  610        HC    1  MOL    H610   610   0.0600000    1.0080
  611        HC    1  MOL    H611   611   0.0600000    1.0080
  612        HC    1  MOL    H612   612   0.0600000    1.0080
  613        HC    1  MOL    H613   613   0.0600000    1.0080
  614        HC    1  MOL    H614   614   0.0600000    1.0080
  615        HC    1  MOL    H615   615   0.0600000    1.0080
  616        HC    1  MOL    H616   616   0.0600000    1.0080
  617        HC    1  MOL    H617   617   0.0600000    1.0080
  618        HC    1  MOL    H618   618   0.0600000    1.0080
  619        HC    1  MOL    H619   619   0.0600000    1.0080
  620        HC    1  MOL    H620   620   0.0600000    1.0080
  621        HC    1  MOL    H621   621   0.0600000    1.0080
  622        HC    1  MOL    H622   622   0.0600000    1.0080

[ bonds ]
      1      2   1      0.1410 267776.0000
      1     11   1      0.1529 224262.4000
      1     12   1      0.1090 284512.0000
      1     32   1      0.1090 284512.0000
      2      3   1      0.1410 267776.0000
      3      4   1      0.1529 224262.4000
      3     13   1      0.1090 284512.0000
      3     14   1      0.1090 284512.0000
      4      5   1      0.1529 224262.4000
      4     15   1      0.1090 284512.0000
      4     16   1      0.1090 284512.0000
      5      6   1      0.1529 224262.4000
      5     17   1      0.1090 284512.0000
      5     18   1      0.1090 284512.0000
      6      7   1      0.1529 224262.4000
      6     19   1      0.1090 284512.0000
      6     20   1      0.1090 284512.0000
      7      8   1      0.1529 224262.4000
      7     21   1      0.1090 284512.0000
      7     22   1      0.1090 284512.0000
      8      9   1      0.1529 224262.4000
      8     23   1      0.1090 284512.0000
      8     24   1      0.1090 284512.0000
      9     10   1      0.1529 224262.4000
      9     25   1      0.1090 284512.0000
      9     26   1      0.1090 284512.0000
     10     27   1      0.1090 284512.0000
     10     28   1      0.1090 284512.0000
     10     29   1      0.1090 284512.0000
     11     30   1      0.1090 284512.0000
     11     31   1      0.1090 284512.0000
     11     33   1      0.1529 224262.4000
     33     34   1      0.1410 267776.0000
     33     43   1      0.1529 224262.4000
     33     44   1      0.1090 284512.0000
     34     35   1      0.1410 267776.0000
     35     36   1      0.1529 224262.4000
     35     45   1      0.1090 284512.0000
     35     46   1      0.1090 284512.0000
     36     37   1      0.1529 224262.4000
     36     47   1      0.1090 284512.0000
     36     48   1      0.1090 284512.0000
     37     38   1      0.1529 224262.4000
     37     49   1      0.1090 284512.0000
     37     50   1      0.1090 284512.0000
     38     39   1      0.1529 224262.4000
     38     51   1      0.1090 284512.0000
     38     52   1      0.1090 284512.0000
     39     40   1      0.1529 224262.4000
     39     53   1      0.1090 284512.0000
     39     54   1      0.1090 284512.0000
     40     41   1      0.1529 224262.4000
     40     55   1      0.1090 284512.0000
     40     56   1      0.1090 284512.0000
     41     42   1      0.1529 224262.4000
     41     57   1      0.1090 284512.0000
     41     58   1      0.1090 284512.0000
     42     59   1      0.1090 284512.0000
     42     60   1      0.1090 284512.0000
     42     61   1      0.1090 284512.0000
     43     62   1      0.1090 284512.0000
     43     63   1      0.1090 284512.0000
     43     64   1      0.1529 224262.4000
     64     65   1      0.1410 267776.0000
     64     74   1      0.1529 224262.4000
     64     75   1      0.1090 284512.0000
     65     66   1      0.1410 267776.0000
     66     67   1      0.1529 224262.4000
     66     76   1      0.1090 284512.0000
     66     77   1      0.1090 284512.0000
     67     68   1      0.1529 224262.4000
     67     78   1      0.1090 284512.0000
     67     79   1      0.1090 284512.0000
     68     69   1      0.1529 224262.4000
     68     80   1      0.1090 284512.0000
     68     81   1      0.1090 284512.0000
     69     70   1      0.1529 224262.4000
     69     82   1      0.1090 284512.0000
     69     83   1      0.1090 284512.0000
     70     71   1      0.1529 224262.4000
     70     84   1      0.1090 284512.0000
     70     85   1      0.1090 284512.0000
     71     72   1      0.1529 224262.4000
     71     86   1      0.1090 284512.0000
     71     87   1      0.1090 284512.0000
     72     73   1      0.1529 224262.4000
     72     88   1      0.1090 284512.0000
     72     89   1      0.1090 284512.0000
     73     90   1      0.1090 284512.0000
     73     91   1      0.1090 284512.0000
     73     92   1      0.1090 284512.0000
     74     93   1      0.1090 284512.0000
     74     94   1      0.1090 284512.0000
     74     95   1      0.1529 224262.4000
     95     96   1      0.1410 267776.0000
     95    105   1      0.1529 224262.4000
     95    106   1      0.1090 284512.0000
     96     97   1      0.1410 267776.0000
     97     98   1      0.1529 224262.4000
     97    107   1      0.1090 284512.0000
     97    108   1      0.1090 284512.0000
     98     99   1      0.1529 224262.4000
     98    109   1      0.1090 284512.0000
     98    110   1      0.1090 284512.0000
     99    100   1      0.1529 224262.4000
     99    111   1      0.1090 284512.0000
     99    112   1      0.1090 284512.0000
    100    101   1      0.1529 224262.4000
    100    113   1      0.1090 284512.0000
    100    114   1      0.1090 284512.0000
    101    102   1      0.1529 224262.4000
    101    115   1      0.1090 284512.0000
    101    116   1      0.1090 284512.0000
    102    103   1      0.1529 224262.4000
    102    117   1      0.1090 284512.0000
    102    118   1      0.1090 284512.0000
    103    104   1      0.1529 224262.4000
    103    119   1      0.1090 284512.0000
    103    120   1      0.1090 284512.0000
    104    121   1      0.1090 284512.0000
    104    122   1      0.1090 284512.0000
    104    123   1      0.1090 284512.0000
    105    124   1      0.1090 284512.0000
    105    125   1      0.1090 284512.0000
    105    126   1      0.1529 224262.4000
    126    127   1      0.1410 267776.0000
    126    136   1      0.1529 224262.4000
    126    137   1      0.1090 284512.0000
    127    128   1      0.1410 267776.0000
    128    129   1      0.1529 224262.4000
    128    138   1      0.1090 284512.0000
    128    139   1      0.1090 284512.0000
    129    130   1      0.1529 224262.4000
    129    140   1      0.1090 284512.0000
    129    141   1      0.1090 284512.0000
    130    131   1      0.1529 224262.4000
    130    142   1      0.1090 284512.0000
    130    143   1      0.1090 284512.0000
    131    132   1      0.1529 224262.4000
    131    144   1      0.1090 284512.0000
    131    145   1      0.1090 284512.0000
    132    133   1      0.1529 224262.4000
    132    146   1      0.1090 284512.0000
    132    147   1      0.1090 284512.0000
    133    134   1      0.1529 224262.4000
    133    148   1      0.1090 284512.0000
    133    149   1      0.1090 284512.0000
    134    135   1      0.1529 224262.4000
    134    150   1      0.1090 284512.0000
    134    151   1      0.1090 284512.0000
    135    152   1      0.1090 284512.0000
    135    153   1      0.1090 284512.0000
    135    154   1      0.1090 284512.0000
    136    155   1      0.1090 284512.0000
    136    156   1      0.1090 284512.0000
    136    157   1      0.1529 224262.4000
    157    158   1      0.1410 267776.0000
    157    167   1      0.1529 224262.4000
    157    168   1      0.1090 284512.0000
    158    159   1      0.1410 267776.0000
    159    160   1      0.1529 224262.4000
    159    169   1      0.1090 284512.0000
    159    170   1      0.1090 284512.0000
    160    161   1      0.1529 224262.4000
    160    171   1      0.1090 284512.0000
    160    172   1      0.1090 284512.0000
    161    162   1      0.1529 224262.4000
    161    173   1      0.1090 284512.0000
    161    174   1      0.1090 284512.0000
    162    163   1      0.1529 224262.4000
    162    175   1      0.1090 284512.0000
    162    176   1      0.1090 284512.0000
    163    164   1      0.1529 224262.4000
    163    177   1      0.1090 284512.0000
    163    178   1      0.1090 284512.0000
    164    165   1      0.1529 224262.4000
    164    179   1      0.1090 284512.0000
    164    180   1      0.1090 284512.0000
    165    166   1      0.1529 224262.4000
    165    181   1      0.1090 284512.0000
    165    182   1      0.1090 284512.0000
    166    183   1      0.1090 284512.0000
    166    184   1      0.1090 284512.0000
    166    185   1      0.1090 284512.0000
    167    186   1      0.1090 284512.0000
    167    187   1      0.1090 284512.0000
    167    188   1      0.1529 224262.4000
    188    189   1      0.1410 267776.0000
    188    198   1      0.1529 224262.4000
    188    199   1      0.1090 284512.0000
    189    190   1      0.1410 267776.0000
    190    191   1      0.1529 224262.4000
    190    200   1      0.1090 284512.0000
    190    201   1      0.1090 284512.0000
    191    192   1      0.1529 224262.4000
    191    202   1      0.1090 284512.0000
    191    203   1      0.1090 284512.0000
    192    193   1      0.1529 224262.4000
    192    204   1      0.1090 284512.0000
    192    205   1      0.1090 284512.0000
    193    194   1      0.1529 224262.4000
    193    206   1      0.1090 284512.0000
    193    207   1      0.1090 284512.0000
    194    195   1      0.1529 224262.4000
    194    208   1      0.1090 284512.0000
    194    209   1      0.1090 284512.0000
    195    196   1      0.1529 224262.4000
    195    210   1      0.1090 284512.0000
    195    211   1      0.1090 284512.0000
    196    197   1      0.1529 224262.4000
    196    212   1      0.1090 284512.0000
    196    213   1      0.1090 284512.0000
    197    214   1      0.1090 284512.0000
    197    215   1      0.1090 284512.0000
    197    216   1      0.1090 284512.0000
    198    217   1      0.1090 284512.0000
    198    218   1      0.1090 284512.0000
    198    219   1      0.1529 224262.4000
    219    220   1      0.1410 267776.0000
    219    229   1      0.1529 224262.4000
    219    230   1      0.1090 284512.0000
    220    221   1      0.1410 267776.0000
    221    222   1      0.1529 224262.4000
    221    231   1      0.1090 284512.0000
    221    232   1      0.1090 284512.0000
    222    223   1      0.1529 224262.4000
    222    233   1      0.1090 284512.0000
    222    234   1      0.1090 284512.0000
    223    224   1      0.1529 224262.4000
    223    235   1      0.1090 284512.0000
    223    236   1      0.1090 284512.0000
    224    225   1      0.1529 224262.4000
    224    237   1      0.1090 284512.0000
    224    238   1      0.1090 284512.0000
    225    226   1      0.1529 224262.4000
    225    239   1      0.1090 284512.0000
    225    240   1      0.1090 284512.0000
    226    227   1      0.1529 224262.4000
    226    241   1      0.1090 284512.0000
    226    242   1      0.1090 284512.0000
    227    228   1      0.1529 224262.4000
    227    243   1      0.1090 284512.0000
    227    244   1      0.1090 284512.0000
    228    245   1      0.1090 284512.0000
    228    246   1      0.1090 284512.0000
    228    247   1      0.1090 284512.0000
    229    248   1      0.1090 284512.0000
    229    249   1      0.1090 284512.0000
    229    250   1      0.1529 224262.4000
    250    251   1      0.1410 267776.0000
    250    260   1      0.1529 224262.4000
    250    261   1      0.1090 284512.0000
    251    252   1      0.1410 267776.0000
    252    253   1      0.1529 224262.4000
    252    262   1      0.1090 284512.0000
    252    263   1      0.1090 284512.0000
    253    254   1      0.1529 224262.4000
    253    264   1      0.1090 284512.0000
    253    265   1      0.1090 284512.0000
    254    255   1      0.1529 224262.4000
    254    266   1      0.1090 284512.0000
    254    267   1      0.1090 284512.0000
    255    256   1      0.1529 224262.4000
    255    268   1      0.1090 284512.0000
    255    269   1      0.1090 284512.0000
    256    257   1      0.1529 224262.4000
    256    270   1      0.1090 284512.0000
    256    271   1      0.1090 284512.0000
    257    258   1      0.1529 224262.4000
    257    272   1      0.1090 284512.0000
    257    273   1      0.1090 284512.0000
    258    259   1      0.1529 224262.4000
    258    274   1      0.1090 284512.0000
    258    275   1      0.1090 284512.0000
    259    276   1      0.1090 284512.0000
    259    277   1      0.1090 284512.0000
    259    278   1      0.1090 284512.0000
    260    279   1      0.1090 284512.0000
    260    280   1      0.1090 284512.0000
    260    281   1      0.1529 224262.4000
    281    282   1      0.1410 267776.0000
    281    291   1      0.1529 224262.4000
    281    292   1      0.1090 284512.0000
    282    283   1      0.1410 267776.0000
    283    284   1      0.1529 224262.4000
    283    293   1      0.1090 284512.0000
    283    294   1      0.1090 284512.0000
    284    285   1      0.1529 224262.4000
    284    295   1      0.1090 284512.0000
    284    296   1      0.1090 284512.0000
    285    286   1      0.1529 224262.4000
    285    297   1      0.1090 284512.0000
    285    298   1      0.1090 284512.0000
    286    287   1      0.1529 224262.4000
    286    299   1      0.1090 284512.0000
    286    300   1      0.1090 284512.0000
    287    288   1      0.1529 224262.4000
    287    301   1      0.1090 284512.0000
    287    302   1      0.1090 284512.0000
    288    289   1      0.1529 224262.4000
    288    303   1      0.1090 284512.0000
    288    304   1      0.1090 284512.0000
    289    290   1      0.1529 224262.4000
    289    305   1      0.1090 284512.0000
    289    306   1      0.1090 284512.0000
    290    307   1      0.1090 284512.0000
    290    308   1      0.1090 284512.0000
    290    309   1      0.1090 284512.0000
    291    310   1      0.1090 284512.0000
    291    311   1      0.1090 284512.0000
    291    312   1      0.1529 224262.4000
    312    313   1      0.1410 267776.0000
    312    322   1      0.1529 224262.4000
    312    323   1      0.1090 284512.0000
    313    314   1      0.1410 267776.0000
    314    315   1      0.1529 224262.4000
    314    324   1      0.1090 284512.0000
    314    325   1      0.1090 284512.0000
    315    316   1      0.1529 224262.4000
    315    326   1      0.1090 284512.0000
    315    327   1      0.1090 284512.0000
    316    317   1      0.1529 224262.4000
    316    328   1      0.1090 284512.0000
    316    329   1      0.1090 284512.0000
    317    318   1      0.1529 224262.4000
    317    330   1      0.1090 284512.0000
    317    331   1      0.1090 284512.0000
    318    319   1      0.1529 224262.4000
    318    332   1      0.1090 284512.0000
    318    333   1      0.1090 284512.0000
    319    320   1      0.1529 224262.4000
    319    334   1      0.1090 284512.0000
    319    335   1      0.1090 284512.0000
    320    321   1      0.1529 224262.4000
    320    336   1      0.1090 284512.0000
    320    337   1      0.1090 284512.0000
    321    338   1      0.1090 284512.0000
    321    339   1      0.1090 284512.0000
    321    340   1      0.1090 284512.0000
    322    341   1      0.1090 284512.0000
    322    342   1      0.1090 284512.0000
    322    343   1      0.1529 224262.4000
    343    344   1      0.1410 267776.0000
    343    353   1      0.1529 224262.4000
    343    354   1      0.1090 284512.0000
    344    345   1      0.1410 267776.0000
    345    346   1      0.1529 224262.4000
    345    355   1      0.1090 284512.0000
    345    356   1      0.1090 284512.0000
    346    347   1      0.1529 224262.4000
    346    357   1      0.1090 284512.0000
    346    358   1      0.1090 284512.0000
    347    348   1      0.1529 224262.4000
    347    359   1      0.1090 284512.0000
    347    360   1      0.1090 284512.0000
    348    349   1      0.1529 224262.4000
    348    361   1      0.1090 284512.0000
    348    362   1      0.1090 284512.0000
    349    350   1      0.1529 224262.4000
    349    363   1      0.1090 284512.0000
    349    364   1      0.1090 284512.0000
    350    351   1      0.1529 224262.4000
    350    365   1      0.1090 284512.0000
    350    366   1      0.1090 284512.0000
    351    352   1      0.1529 224262.4000
    351    367   1      0.1090 284512.0000
    351    368   1      0.1090 284512.0000
    352    369   1      0.1090 284512.0000
    352    370   1      0.1090 284512.0000
    352    371   1      0.1090 284512.0000
    353    372   1      0.1090 284512.0000
    353    373   1      0.1090 284512.0000
    353    374   1      0.1529 224262.4000
    374    375   1      0.1410 267776.0000
    374    384   1      0.1529 224262.4000
    374    385   1      0.1090 284512.0000
    375    376   1      0.1410 267776.0000
    376    377   1      0.1529 224262.4000
    376    386   1      0.1090 284512.0000
    376    387   1      0.1090 284512.0000
    377    378   1      0.1529 224262.4000
    377    388   1      0.1090 284512.0000
    377    389   1      0.1090 284512.0000
    378    379   1      0.1529 224262.4000
    378    390   1      0.1090 284512.0000
    378    391   1      0.1090 284512.0000
    379    380   1      0.1529 224262.4000
    379    392   1      0.1090 284512.0000
    379    393   1      0.1090 284512.0000
    380    381   1      0.1529 224262.4000
    380    394   1      0.1090 284512.0000
    380    395   1      0.1090 284512.0000
    381    382   1      0.1529 224262.4000
    381    396   1      0.1090 284512.0000
    381    397   1      0.1090 284512.0000
    382    383   1      0.1529 224262.4000
    382    398   1      0.1090 284512.0000
    382    399   1      0.1090 284512.0000
    383    400   1      0.1090 284512.0000
    383    401   1      0.1090 284512.0000
    383    402   1      0.1090 284512.0000
    384    403   1      0.1090 284512.0000
    384    404   1      0.1090 284512.0000
    384    405   1      0.1529 224262.4000
    405    406   1      0.1410 267776.0000
    405    415   1      0.1529 224262.4000
    405    416   1      0.1090 284512.0000
    406    407   1      0.1410 267776.0000
    407    408   1      0.1529 224262.4000
    407    417   1      0.1090 284512.0000
    407    418   1      0.1090 284512.0000
    408    409   1      0.1529 224262.4000
    408    419   1      0.1090 284512.0000
    408    420   1      0.1090 284512.0000
    409    410   1      0.1529 224262.4000
    409    421   1      0.1090 284512.0000
    409    422   1      0.1090 284512.0000
    410    411   1      0.1529 224262.4000
    410    423   1      0.1090 284512.0000
    410    424   1      0.1090 284512.0000
    411    412   1      0.1529 224262.4000
    411    425   1      0.1090 284512.0000
    411    426   1      0.1090 284512.0000
    412    413   1      0.1529 224262.4000
    412    427   1      0.1090 284512.0000
    412    428   1      0.1090 284512.0000
    413    414   1      0.1529 224262.4000
    413    429   1      0.1090 284512.0000
    413    430   1      0.1090 284512.0000
    414    431   1      0.1090 284512.0000
    414    432   1      0.1090 284512.0000
    414    433   1      0.1090 284512.0000
    415    434   1      0.1090 284512.0000
    415    435   1      0.1090 284512.0000
    415    436   1      0.1529 224262.4000
    436    437   1      0.1410 267776.0000
    436    446   1      0.1529 224262.4000
    436    447   1      0.1090 284512.0000
    437    438   1      0.1410 267776.0000
    438    439   1      0.1529 224262.4000
    438    448   1      0.1090 284512.0000
    438    449   1      0.1090 284512.0000
    439    440   1      0.1529 224262.4000
    439    450   1      0.1090 284512.0000
    439    451   1      0.1090 284512.0000
    440    441   1      0.1529 224262.4000
    440    452   1      0.1090 284512.0000
    440    453   1      0.1090 284512.0000
    441    442   1      0.1529 224262.4000
    441    454   1      0.1090 284512.0000
    441    455   1      0.1090 284512.0000
    442    443   1      0.1529 224262.4000
    442    456   1      0.1090 284512.0000
    442    457   1      0.1090 284512.0000
    443    444   1      0.1529 224262.4000
    443    458   1      0.1090 284512.0000
    443    459   1      0.1090 284512.0000
    444    445   1      0.1529 224262.4000
    444    460   1      0.1090 284512.0000
    444    461   1      0.1090 284512.0000
    445    462   1      0.1090 284512.0000
    445    463   1      0.1090 284512.0000
    445    464   1      0.1090 284512.0000
    446    465   1      0.1090 284512.0000
    446    466   1      0.1090 284512.0000
    446    467   1      0.1529 224262.4000
    467    468   1      0.1410 267776.0000
    467    477   1      0.1529 224262.4000
    467    478   1      0.1090 284512.0000
    468    469   1      0.1410 267776.0000
    469    470   1      0.1529 224262.4000
    469    479   1      0.1090 284512.0000
    469    480   1      0.1090 284512.0000
    470    471   1      0.1529 224262.4000
    470    481   1      0.1090 284512.0000
    470    482   1      0.1090 284512.0000
    471    472   1      0.1529 224262.4000
    471    483   1      0.1090 284512.0000
    471    484   1      0.1090 284512.0000
    472    473   1      0.1529 224262.4000
    472    485   1      0.1090 284512.0000
    472    486   1      0.1090 284512.0000
    473    474   1      0.1529 224262.4000
    473    487   1      0.1090 284512.0000
    473    488   1      0.1090 284512.0000
    474    475   1      0.1529 224262.4000
    474    489   1      0.1090 284512.0000
    474    490   1      0.1090 284512.0000
    475    476   1      0.1529 224262.4000
    475    491   1      0.1090 284512.0000
    475    492   1      0.1090 284512.0000
    476    493   1      0.1090 284512.0000
    476    494   1      0.1090 284512.0000
    476    495   1      0.1090 284512.0000
    477    496   1      0.1090 284512.0000
    477    497   1      0.1090 284512.0000
    477    498   1      0.1529 224262.4000
    498    499   1      0.1410 267776.0000
    498    508   1      0.1529 224262.4000
    498    509   1      0.1090 284512.0000
    499    500   1      0.1410 267776.0000
    500    501   1      0.1529 224262.4000
    500    510   1      0.1090 284512.0000
    500    511   1      0.1090 284512.0000
    501    502   1      0.1529 224262.4000
    501    512   1      0.1090 284512.0000
    501    513   1      0.1090 284512.0000
    502    503   1      0.1529 224262.4000
    502    514   1      0.1090 284512.0000
    502    515   1      0.1090 284512.0000
    503    504   1      0.1529 224262.4000
    503    516   1      0.1090 284512.0000
    503    517   1      0.1090 284512.0000
    504    505   1      0.1529 224262.4000
    504    518   1      0.1090 284512.0000
    504    519   1      0.1090 284512.0000
    505    506   1      0.1529 224262.4000
    505    520   1      0.1090 284512.0000
    505    521   1      0.1090 284512.0000
    506    507   1      0.1529 224262.4000
    506    522   1      0.1090 284512.0000
    506    523   1      0.1090 284512.0000
    507    524   1      0.1090 284512.0000
    507    525   1      0.1090 284512.0000
    507    526   1      0.1090 284512.0000
    508    527   1      0.1090 284512.0000
    508    528   1      0.1090 284512.0000
    508    529   1      0.1529 224262.4000
    529    530   1      0.1410 267776.0000
    529    539   1      0.1529 224262.4000
    529    540   1      0.1090 284512.0000
    530    531   1      0.1410 267776.0000
    531    532   1      0.1529 224262.4000
    531    541   1      0.1090 284512.0000
    531    542   1      0.1090 284512.0000
    532    533   1      0.1529 224262.4000
    532    543   1      0.1090 284512.0000
    532    544   1      0.1090 284512.0000
    533    534   1      0.1529 224262.4000
    533    545   1      0.1090 284512.0000
    533    546   1      0.1090 284512.0000
    534    535   1      0.1529 224262.4000
    534    547   1      0.1090 284512.0000
    534    548   1      0.1090 284512.0000
    535    536   1      0.1529 224262.4000
    535    549   1      0.1090 284512.0000
    535    550   1      0.1090 284512.0000
    536    537   1      0.1529 224262.4000
    536    551   1      0.1090 284512.0000
    536    552   1      0.1090 284512.0000
    537    538   1      0.1529 224262.4000
    537    553   1      0.1090 284512.0000
    537    554   1      0.1090 284512.0000
    538    555   1      0.1090 284512.0000
    538    556   1      0.1090 284512.0000
    538    557   1      0.1090 284512.0000
    539    558   1      0.1090 284512.0000
    539    559   1      0.1090 284512.0000
    539    560   1      0.1529 224262.4000
    560    561   1      0.1410 267776.0000
    560    570   1      0.1529 224262.4000
    560    571   1      0.1090 284512.0000
    561    562   1      0.1410 267776.0000
    562    563   1      0.1529 224262.4000
    562    572   1      0.1090 284512.0000
    562    573   1      0.1090 284512.0000
    563    564   1      0.1529 224262.4000
    563    574   1      0.1090 284512.0000
    563    575   1      0.1090 284512.0000
    564    565   1      0.1529 224262.4000
    564    576   1      0.1090 284512.0000
    564    577   1      0.1090 284512.0000
    565    566   1      0.1529 224262.4000
    565    578   1      0.1090 284512.0000
    565    579   1      0.1090 284512.0000
    566    567   1      0.1529 224262.4000
    566    580   1      0.1090 284512.0000
    566    581   1      0.1090 284512.0000
    567    568   1      0.1529 224262.4000
    567    582   1      0.1090 284512.0000
    567    583   1      0.1090 284512.0000
    568    569   1      0.1529 224262.4000
    568    584   1      0.1090 284512.0000
    568    585   1      0.1090 284512.0000
    569    586   1      0.1090 284512.0000
    569    587   1      0.1090 284512.0000
    569    588   1      0.1090 284512.0000
    570    589   1      0.1090 284512.0000
    570    590   1      0.1090 284512.0000
    570    591   1      0.1529 224262.4000
    591    592   1      0.1410 267776.0000
    591    601   1      0.1529 224262.4000
    591    602   1      0.1090 284512.0000
    592    593   1      0.1410 267776.0000
    593    594   1      0.1529 224262.4000
    593    603   1      0.1090 284512.0000
    593    604   1      0.1090 284512.0000
    594    595   1      0.1529 224262.4000
    594    605   1      0.1090 284512.0000
    594    606   1      0.1090 284512.0000
    595    596   1      0.1529 224262.4000
    595    607   1      0.1090 284512.0000
    595    608   1      0.1090 284512.0000
    596    597   1      0.1529 224262.4000
    596    609   1      0.1090 284512.0000
    596    610   1      0.1090 284512.0000
    597    598   1      0.1529 224262.4000
    597    611   1      0.1090 284512.0000
    597    612   1      0.1090 284512.0000
    598    599   1      0.1529 224262.4000
    598    613   1      0.1090 284512.0000
    598    614   1      0.1090 284512.0000
    599    600   1      0.1529 224262.4000
    599    615   1      0.1090 284512.0000
    599    616   1      0.1090 284512.0000
    600    617   1      0.1090 284512.0000
    600    618   1      0.1090 284512.0000
    600    619   1      0.1090 284512.0000
    601    620   1      0.1090 284512.0000
    601    621   1      0.1090 284512.0000
    601    622   1      0.1090 284512.0000

[ pairs ]
; ai   aj   funct   fudge_QQ  charge_i   charge_j   c6    c12
     11      3   2   0.50000    -0.1200000    0.1400000   1.015252e-03  1.866303e-06
     12      3   2   0.50000     0.0300000    0.1400000   2.494471e-04  1.671101e-07
     32      3   2   0.50000     0.0300000    0.1400000   2.494471e-04  1.671101e-07
      2     30   2   0.50000    -0.4000000    0.0600000   2.066619e-04  7.875431e-08
      2     31   2   0.50000    -0.4000000    0.0600000   2.066619e-04  7.875431e-08
      2     33   2   0.50000    -0.4000000    0.1700000   8.411158e-04  8.795366e-07
     12     30   2   0.50000     0.0300000    0.0600000   6.128906e-05  1.496315e-08
     12     31   2   0.50000     0.0300000    0.0600000   6.128906e-05  1.496315e-08
     12     33   2   0.50000     0.0300000    0.1700000   2.494471e-04  1.671101e-07
     32     30   2   0.50000     0.0300000    0.0600000   6.128906e-05  1.496315e-08
     32     31   2   0.50000     0.0300000    0.0600000   6.128906e-05  1.496315e-08
     32     33   2   0.50000     0.0300000    0.1700000   2.494471e-04  1.671101e-07
      1      4   2   0.50000     0.1400000   -0.1200000   1.015252e-03  1.866303e-06
      1     13   2   0.50000     0.1400000    0.0300000   2.494471e-04  1.671101e-07
      1     14   2   0.50000     0.1400000    0.0300000   2.494471e-04  1.671101e-07
      2      5   2   0.50000    -0.4000000   -0.1200000   8.411158e-04  8.795366e-07
      2     15   2   0.50000    -0.4000000    0.0600000   2.066619e-04  7.875431e-08
      2     16   2   0.50000    -0.4000000    0.0600000   2.066619e-04  7.875431e-08
     13      5   2   0.50000     0.0300000   -0.1200000   2.494471e-04  1.671101e-07
     13     15   2   0.50000     0.0300000    0.0600000   6.128906e-05  1.496315e-08
     13     16   2   0.50000     0.0300000    0.0600000   6.128906e-05  1.496315e-08
     14      5   2   0.50000     0.0300000   -0.1200000   2.494471e-04  1.671101e-07
     14     15   2   0.50000     0.0300000    0.0600000   6.128906e-05  1.496315e-08
     14     16   2   0.50000     0.0300000    0.0600000   6.128906e-05  1.496315e-08
      3      6   2   0.50000     0.1400000   -0.1200000   1.015252e-03  1.866303e-06
      3     17   2   0.50000     0.1400000    0.0600000   2.494471e-04  1.671101e-07
      3     18   2   0.50000     0.1400000    0.0600000   2.494471e-04  1.671101e-07
     15      6   2   0.50000     0.0600000   -0.1200000   2.494471e-04  1.671101e-07
     15     17   2   0.50000     0.0600000    0.0600000   6.128906e-05  1.496315e-08
     15     18   2   0.50000     0.0600000    0.0600000   6.128906e-05  1.496315e-08
     16      6   2   0.50000     0.0600000   -0.1200000   2.494471e-04  1.671101e-07
     16     17   2   0.50000     0.0600000    0.0600000   6.128906e-05  1.496315e-08
     16     18   2   0.50000     0.0600000    0.0600000   6.128906e-05  1.496315e-08
      4      7   2   0.50000    -0.1200000   -0.1200000   1.015252e-03  1.866303e-06
      4     19   2   0.50000    -0.1200000    0.0600000   2.494471e-04  1.671101e-07
      4     20   2   0.50000    -0.1200000    0.0600000   2.494471e-04  1.671101e-07
     17      7   2   0.50000     0.0600000   -0.1200000   2.494471e-04  1.671101e-07
     17     19   2   0.50000     0.0600000    0.0600000   6.128906e-05  1.496315e-08
     17     20   2   0.50000     0.0600000    0.0600000   6.128906e-05  1.496315e-08
     18      7   2   0.50000     0.0600000   -0.1200000   2.494471e-04  1.671101e-07
     18     19   2   0.50000     0.0600000    0.0600000   6.128906e-05  1.496315e-08
     18     20   2   0.50000     0.0600000    0.0600000   6.128906e-05  1.496315e-08
      5      8   2   0.50000    -0.1200000   -0.1200000   1.015252e-03  1.866303e-06
      5     21   2   0.50000    -0.1200000    0.0600000   2.494471e-04  1.671101e-07
      5     22   2   0.50000    -0.1200000    0.0600000   2.494471e-04  1.671101e-07
     19      8   2   0.50000     0.0600000   -0.1200000   2.494471e-04  1.671101e-07
     19     21   2   0.50000     0.0600000    0.0600000   6.128906e-05  1.496315e-08
     19     22   2   0.50000     0.0600000    0.0600000   6.128906e-05  1.496315e-08
     20      8   2   0.50000     0.0600000   -0.1200000   2.494471e-04  1.671101e-07
     20     21   2   0.50000     0.0600000    0.0600000   6.128906e-05  1.496315e-08
     20     22   2   0.50000     0.0600000    0.0600000   6.128906e-05  1.496315e-08
      6      9   2   0.50000    -0.1200000   -0.1200000   1.015252e-03  1.866303e-06
      6     23   2   0.50000    -0.1200000    0.0600000   2.494471e-04  1.671101e-07
      6     24   2   0.50000    -0.1200000    0.0600000   2.494471e-04  1.671101e-07
     21      9   2   0.50000     0.0600000   -0.1200000   2.494471e-04  1.671101e-07
     21     23   2   0.50000     0.0600000    0.0600000   6.128906e-05  1.496315e-08
     21     24   2   0.50000     0.0600000    0.0600000   6.128906e-05  1.496315e-08
     22      9   2   0.50000     0.0600000   -0.1200000   2.494471e-04  1.671101e-07
     22     23   2   0.50000     0.0600000    0.0600000   6.128906e-05  1.496315e-08
     22     24   2   0.50000     0.0600000    0.0600000   6.128906e-05  1.496315e-08
      7     10   2   0.50000    -0.1200000   -0.1800000   1.015252e-03  1.866303e-06
      7     25   2   0.50000    -0.1200000    0.0600000   2.494471e-04  1.671101e-07
      7     26   2   0.50000    -0.1200000    0.0600000   2.494471e-04  1.671101e-07
     23     10   2   0.50000     0.0600000   -0.1800000   2.494471e-04  1.671101e-07
     23     25   2   0.50000     0.0600000    0.0600000   6.128906e-05  1.496315e-08
     23     26   2   0.50000     0.0600000    0.0600000   6.128906e-05  1.496315e-08
     24     10   2   0.50000     0.0600000   -0.1800000   2.494471e-04  1.671101e-07
     24     25   2   0.50000     0.0600000    0.0600000   6.128906e-05  1.496315e-08
     24     26   2   0.50000     0.0600000    0.0600000   6.128906e-05  1.496315e-08
      8     27   2   0.50000    -0.1200000    0.0600000   2.494471e-04  1.671101e-07
      8     28   2   0.50000    -0.1200000    0.0600000   2.494471e-04  1.671101e-07
      8     29   2   0.50000    -0.1200000    0.0600000   2.494471e-04  1.671101e-07
     25     27   2   0.50000     0.0600000    0.0600000   6.128906e-05  1.496315e-08
     25     28   2   0.50000     0.0600000    0.0600000   6.128906e-05  1.496315e-08
     25     29   2   0.50000     0.0600000    0.0600000   6.128906e-05  1.496315e-08
     26     27   2   0.50000     0.0600000    0.0600000   6.128906e-05  1.496315e-08
     26     28   2   0.50000     0.0600000    0.0600000   6.128906e-05  1.496315e-08
     26     29   2   0.50000     0.0600000    0.0600000   6.128906e-05  1.496315e-08
      1     34   2   0.50000     0.1400000   -0.4000000   8.411158e-04  8.795366e-07
      1     43   2   0.50000     0.1400000   -0.1200000   1.015252e-03  1.866303e-06
      1     44   2   0.50000     0.1400000    0.0300000   2.494471e-04  1.671101e-07
     30     34   2   0.50000     0.0600000   -0.4000000   2.066619e-04  7.875431e-08
     30     43   2   0.50000     0.0600000   -0.1200000   2.494471e-04  1.671101e-07
     30     44   2   0.50000     0.0600000    0.0300000   6.128906e-05  1.496315e-08
     31     34   2   0.50000     0.0600000   -0.4000000   2.066619e-04  7.875431e-08
     31     43   2   0.50000     0.0600000   -0.1200000   2.494471e-04  1.671101e-07
     31     44   2   0.50000     0.0600000    0.0300000   6.128906e-05  1.496315e-08
     11     35   2   0.50000    -0.1200000    0.1400000   1.015252e-03  1.866303e-06
     43     35   2   0.50000    -0.1200000    0.1400000   1.015252e-03  1.866303e-06
     44     35   2   0.50000     0.0300000    0.1400000   2.494471e-04  1.671101e-07
     11     62   2   0.50000    -0.1200000    0.0600000   2.494471e-04  1.671101e-07
     11     63   2   0.50000    -0.1200000    0.0600000   2.494471e-04  1.671101e-07
     11     64   2   0.50000    -0.1200000    0.1700000   1.015252e-03  1.866303e-06
     34     62   2   0.50000    -0.4000000    0.0600000   2.066619e-04  7.875431e-08
     34     63   2   0.50000    -0.4000000    0.0600000   2.066619e-04  7.875431e-08
     34     64   2   0.50000    -0.4000000    0.1700000   8.411158e-04  8.795366e-07
     44     62   2   0.50000     0.0300000    0.0600000   6.128906e-05  1.496315e-08
     44     63   2   0.50000     0.0300000    0.0600000   6.128906e-05  1.496315e-08
     44     64   2   0.50000     0.0300000    0.1700000   2.494471e-04  1.671101e-07
     33     36   2   0.50000     0.1700000   -0.1200000   1.015252e-03  1.866303e-06
     33     45   2   0.50000     0.1700000    0.0300000   2.494471e-04  1.671101e-07
     33     46   2   0.50000     0.1700000    0.0300000   2.494471e-04  1.671101e-07
     34     37   2   0.50000    -0.4000000   -0.1200000   8.411158e-04  8.795366e-07
     34     47   2   0.50000    -0.4000000    0.0600000   2.066619e-04  7.875431e-08
     34     48   2   0.50000    -0.4000000    0.0600000   2.066619e-04  7.875431e-08
     45     37   2   0.50000     0.0300000   -0.1200000   2.494471e-04  1.671101e-07
     45     47   2   0.50000     0.0300000    0.0600000   6.128906e-05  1.496315e-08
     45     48   2   0.50000     0.0300000    0.0600000   6.128906e-05  1.496315e-08
     46     37   2   0.50000     0.0300000   -0.1200000   2.494471e-04  1.671101e-07
     46     47   2   0.50000     0.0300000    0.0600000   6.128906e-05  1.496315e-08
     46     48   2   0.50000     0.0300000    0.0600000   6.128906e-05  1.496315e-08
     35     38   2   0.50000     0.1400000   -0.1200000   1.015252e-03  1.866303e-06
     35     49   2   0.50000     0.1400000    0.0600000   2.494471e-04  1.671101e-07
     35     50   2   0.50000     0.1400000    0.0600000   2.494471e-04  1.671101e-07
     47     38   2   0.50000     0.0600000   -0.1200000   2.494471e-04  1.671101e-07
     47     49   2   0.50000     0.0600000    0.0600000   6.128906e-05  1.496315e-08
     47     50   2   0.50000     0.0600000    0.0600000   6.128906e-05  1.496315e-08
     48     38   2   0.50000     0.0600000   -0.1200000   2.494471e-04  1.671101e-07
     48     49   2   0.50000     0.0600000    0.0600000   6.128906e-05  1.496315e-08
     48     50   2   0.50000     0.0600000    0.0600000   6.128906e-05  1.496315e-08
     36     39   2   0.50000    -0.1200000   -0.1200000   1.015252e-03  1.866303e-06
     36     51   2   0.50000    -0.1200000    0.0600000   2.494471e-04  1.671101e-07
     36     52   2   0.50000    -0.1200000    0.0600000   2.494471e-04  1.671101e-07
     49     39   2   0.50000     0.0600000   -0.1200000   2.494471e-04  1.671101e-07
     49     51   2   0.50000     0.0600000    0.0600000   6.128906e-05  1.496315e-08
     49     52   2   0.50000     0.0600000    0.0600000   6.128906e-05  1.496315e-08
     50     39   2   0.50000     0.0600000   -0.1200000   2.494471e-04  1.671101e-07
     50     51   2   0.50000     0.0600000    0.0600000   6.128906e-05  1.496315e-08
     50     52   2   0.50000     0.0600000    0.0600000   6.128906e-05  1.496315e-08
     37     40   2   0.50000    -0.1200000   -0.1200000   1.015252e-03  1.866303e-06
     37     53   2   0.50000    -0.1200000    0.0600000   2.494471e-04  1.671101e-07
     37     54   2   0.50000    -0.1200000    0.0600000   2.494471e-04  1.671101e-07
     51     40   2   0.50000     0.0600000   -0.1200000   2.494471e-04  1.671101e-07
     51     53   2   0.50000     0.0600000    0.0600000   6.128906e-05  1.496315e-08
     51     54   2   0.50000     0.0600000    0.0600000   6.128906e-05  1.496315e-08
     52     40   2   0.50000     0.0600000   -0.1200000   2.494471e-04  1.671101e-07
     52     53   2   0.50000     0.0600000    0.0600000   6.128906e-05  1.496315e-08
     52     54   2   0.50000     0.0600000    0.0600000   6.128906e-05  1.496315e-08
     38     41   2   0.50000    -0.1200000   -0.1200000   1.015252e-03  1.866303e-06
     38     55   2   0.50000    -0.1200000    0.0600000   2.494471e-04  1.671101e-07
     38     56   2   0.50000    -0.1200000    0.0600000   2.494471e-04  1.671101e-07
     53     41   2   0.50000     0.0600000   -0.1200000   2.494471e-04  1.671101e-07
     53     55   2   0.50000     0.0600000    0.0600000   6.128906e-05  1.496315e-08
     53     56   2   0.50000     0.0600000    0.0600000   6.128906e-05  1.496315e-08
     54     41   2   0.50000     0.0600000   -0.1200000   2.494471e-04  1.671101e-07
     54     55   2   0.50000     0.0600000    0.0600000   6.128906e-05  1.496315e-08
     54     56   2   0.50000     0.0600000    0.0600000   6.128906e-05  1.496315e-08
     39     42   2   0.50000    -0.1200000   -0.1800000   1.015252e-03  1.866303e-06
     39     57   2   0.50000    -0.1200000    0.0600000   2.494471e-04  1.671101e-07
     39     58   2   0.50000    -0.1200000    0.0600000   2.494471e-04  1.671101e-07
     55     42   2   0.50000     0.0600000   -0.1800000   2.494471e-04  1.671101e-07
     55     57   2   0.50000     0.0600000    0.0600000   6.128906e-05  1.496315e-08
     55     58   2   0.50000     0.0600000    0.0600000   6.128906e-05  1.496315e-08
     56     42   2   0.50000     0.0600000   -0.1800000   2.494471e-04  1.671101e-07
     56     57   2   0.50000     0.0600000    0.0600000   6.128906e-05  1.496315e-08
     56     58   2   0.50000     0.0600000    0.0600000   6.128906e-05  1.496315e-08
     40     59   2   0.50000    -0.1200000    0.0600000   2.494471e-04  1.671101e-07
     40     60   2   0.50000    -0.1200000    0.0600000   2.494471e-04  1.671101e-07
     40     61   2   0.50000    -0.1200000    0.0600000   2.494471e-04  1.671101e-07
     57     59   2   0.50000     0.0600000    0.0600000   6.128906e-05  1.496315e-08
     57     60   2   0.50000     0.0600000    0.0600000   6.128906e-05  1.496315e-08
     57     61   2   0.50000     0.0600000    0.0600000   6.128906e-05  1.496315e-08
     58     59   2   0.50000     0.0600000    0.0600000   6.128906e-05  1.496315e-08
     58     60   2   0.50000     0.0600000    0.0600000   6.128906e-05  1.496315e-08
     58     61   2   0.50000     0.0600000    0.0600000   6.128906e-05  1.496315e-08
     33     65   2   0.50000     0.1700000   -0.4000000   8.411158e-04  8.795366e-07
     33     74   2   0.50000     0.1700000   -0.1200000   1.015252e-03  1.866303e-06
     33     75   2   0.50000     0.1700000    0.0300000   2.494471e-04  1.671101e-07
     62     65   2   0.50000     0.0600000   -0.4000000   2.066619e-04  7.875431e-08
     62     74   2   0.50000     0.0600000   -0.1200000   2.494471e-04  1.671101e-07
     62     75   2   0.50000     0.0600000    0.0300000   6.128906e-05  1.496315e-08
     63     65   2   0.50000     0.0600000   -0.4000000   2.066619e-04  7.875431e-08
     63     74   2   0.50000     0.0600000   -0.1200000   2.494471e-04  1.671101e-07
     63     75   2   0.50000     0.0600000    0.0300000   6.128906e-05  1.496315e-08
     43     66   2   0.50000    -0.1200000    0.1400000   1.015252e-03  1.866303e-06
     74     66   2   0.50000    -0.1200000    0.1400000   1.015252e-03  1.866303e-06
     75     66   2   0.50000     0.0300000    0.1400000   2.494471e-04  1.671101e-07
     43     93   2   0.50000    -0.1200000    0.0600000   2.494471e-04  1.671101e-07
     43     94   2   0.50000    -0.1200000    0.0600000   2.494471e-04  1.671101e-07
     43     95   2   0.50000    -0.1200000    0.1700000   1.015252e-03  1.866303e-06
     65     93   2   0.50000    -0.4000000    0.0600000   2.066619e-04  7.875431e-08
     65     94   2   0.50000    -0.4000000    0.0600000   2.066619e-04  7.875431e-08
     65     95   2   0.50000    -0.4000000    0.1700000   8.411158e-04  8.795366e-07
     75     93   2   0.50000     0.0300000    0.0600000   6.128906e-05  1.496315e-08
     75     94   2   0.50000     0.0300000    0.0600000   6.128906e-05  1.496315e-08
     75     95   2   0.50000     0.0300000    0.1700000   2.494471e-04  1.671101e-07
     64     67   2   0.50000     0.1700000   -0.1200000   1.015252e-03  1.866303e-06
     64     76   2   0.50000     0.1700000    0.0300000   2.494471e-04  1.671101e-07
     64     77   2   0.50000     0.1700000    0.0300000   2.494471e-04  1.671101e-07
     65     68   2   0.50000    -0.4000000   -0.1200000   8.411158e-04  8.795366e-07
     65     78   2   0.50000    -0.4000000    0.0600000   2.066619e-04  7.875431e-08
     65     79   2   0.50000    -0.4000000    0.0600000   2.066619e-04  7.875431e-08
     76     68   2   0.50000     0.0300000   -0.1200000   2.494471e-04  1.671101e-07
     76     78   2   0.50000     0.0300000    0.0600000   6.128906e-05  1.496315e-08
     76     79   2   0.50000     0.0300000    0.0600000   6.128906e-05  1.496315e-08
     77     68   2   0.50000     0.0300000   -0.1200000   2.494471e-04  1.671101e-07
     77     78   2   0.50000     0.0300000    0.0600000   6.128906e-05  1.496315e-08
     77     79   2   0.50000     0.0300000    0.0600000   6.128906e-05  1.496315e-08
     66     69   2   0.50000     0.1400000   -0.1200000   1.015252e-03  1.866303e-06
     66     80   2   0.50000     0.1400000    0.0600000   2.494471e-04  1.671101e-07
     66     81   2   0.50000     0.1400000    0.0600000   2.494471e-04  1.671101e-07
     78     69   2   0.50000     0.0600000   -0.1200000   2.494471e-04  1.671101e-07
     78     80   2   0.50000     0.0600000    0.0600000   6.128906e-05  1.496315e-08
     78     81   2   0.50000     0.0600000    0.0600000   6.128906e-05  1.496315e-08
     79     69   2   0.50000     0.0600000   -0.1200000   2.494471e-04  1.671101e-07
     79     80   2   0.50000     0.0600000    0.0600000   6.128906e-05  1.496315e-08
     79     81   2   0.50000     0.0600000    0.0600000   6.128906e-05  1.496315e-08
     67     70   2   0.50000    -0.1200000   -0.1200000   1.015252e-03  1.866303e-06
     67     82   2   0.50000    -0.1200000    0.0600000   2.494471e-04  1.671101e-07
     67     83   2   0.50000    -0.1200000    0.0600000   2.494471e-04  1.671101e-07
     80     70   2   0.50000     0.0600000   -0.1200000   2.494471e-04  1.671101e-07
     80     82   2   0.50000     0.0600000    0.0600000   6.128906e-05  1.496315e-08
     80     83   2   0.50000     0.0600000    0.0600000   6.128906e-05  1.496315e-08
     81     70   2   0.50000     0.0600000   -0.1200000   2.494471e-04  1.671101e-07
     81     82   2   0.50000     0.0600000    0.0600000   6.128906e-05  1.496315e-08
     81     83   2   0.50000     0.0600000    0.0600000   6.128906e-05  1.496315e-08
     68     71   2   0.50000    -0.1200000   -0.1200000   1.015252e-03  1.866303e-06
     68     84   2   0.50000    -0.1200000    0.0600000   2.494471e-04  1.671101e-07
     68     85   2   0.50000    -0.1200000    0.0600000   2.494471e-04  1.671101e-07
     82     71   2   0.50000     0.0600000   -0.1200000   2.494471e-04  1.671101e-07
     82     84   2   0.50000     0.0600000    0.0600000   6.128906e-05  1.496315e-08
     82     85   2   0.50000     0.0600000    0.0600000   6.128906e-05  1.496315e-08
     83     71   2   0.50000     0.0600000   -0.1200000   2.494471e-04  1.671101e-07
     83     84   2   0.50000     0.0600000    0.0600000   6.128906e-05  1.496315e-08
     83     85   2   0.50000     0.0600000    0.0600000   6.128906e-05  1.496315e-08
     69     72   2   0.50000    -0.1200000   -0.1200000   1.015252e-03  1.866303e-06
     69     86   2   0.50000    -0.1200000    0.0600000   2.494471e-04  1.671101e-07
     69     87   2   0.50000    -0.1200000    0.0600000   2.494471e-04  1.671101e-07
     84     72   2   0.50000     0.0600000   -0.1200000   2.494471e-04  1.671101e-07
     84     86   2   0.50000     0.0600000    0.0600000   6.128906e-05  1.496315e-08
     84     87   2   0.50000     0.0600000    0.0600000   6.128906e-05  1.496315e-08
     85     72   2   0.50000     0.0600000   -0.1200000   2.494471e-04  1.671101e-07
     85     86   2   0.50000     0.0600000    0.0600000   6.128906e-05  1.496315e-08
     85     87   2   0.50000     0.0600000    0.0600000   6.128906e-05  1.496315e-08
     70     73   2   0.50000    -0.1200000   -0.1800000   1.015252e-03  1.866303e-06
     70     88   2   0.50000    -0.1200000    0.0600000   2.494471e-04  1.671101e-07
     70     89   2   0.50000    -0.1200000    0.0600000   2.494471e-04  1.671101e-07
     86     73   2   0.50000     0.0600000   -0.1800000   2.494471e-04  1.671101e-07
     86     88   2   0.50000     0.0600000    0.0600000   6.128906e-05  1.496315e-08
     86     89   2   0.50000     0.0600000    0.0600000   6.128906e-05  1.496315e-08
     87     73   2   0.50000     0.0600000   -0.1800000   2.494471e-04  1.671101e-07
     87     88   2   0.50000     0.0600000    0.0600000   6.128906e-05  1.496315e-08
     87     89   2   0.50000     0.0600000    0.0600000   6.128906e-05  1.496315e-08
     71     90   2   0.50000    -0.1200000    0.0600000   2.494471e-04  1.671101e-07
     71     91   2   0.50000    -0.1200000    0.0600000   2.494471e-04  1.671101e-07
     71     92   2   0.50000    -0.1200000    0.0600000   2.494471e-04  1.671101e-07
     88     90   2   0.50000     0.0600000    0.0600000   6.128906e-05  1.496315e-08
     88     91   2   0.50000     0.0600000    0.0600000   6.128906e-05  1.496315e-08
     88     92   2   0.50000     0.0600000    0.0600000   6.128906e-05  1.496315e-08
     89     90   2   0.50000     0.0600000    0.0600000   6.128906e-05  1.496315e-08
     89     91   2   0.50000     0.0600000    0.0600000   6.128906e-05  1.496315e-08
     89     92   2   0.50000     0.0600000    0.0600000   6.128906e-05  1.496315e-08
     64     96   2   0.50000     0.1700000   -0.4000000   8.411158e-04  8.795366e-07
     64    105   2   0.50000     0.1700000   -0.1200000   1.015252e-03  1.866303e-06
     64    106   2   0.50000     0.1700000    0.0300000   2.494471e-04  1.671101e-07
     93     96   2   0.50000     0.0600000   -0.4000000   2.066619e-04  7.875431e-08
     93    105   2   0.50000     0.0600000   -0.1200000   2.494471e-04  1.671101e-07
     93    106   2   0.50000     0.0600000    0.0300000   6.128906e-05  1.496315e-08
     94     96   2   0.50000     0.0600000   -0.4000000   2.066619e-04  7.875431e-08
     94    105   2   0.50000     0.0600000   -0.1200000   2.494471e-04  1.671101e-07
     94    106   2   0.50000     0.0600000    0.0300000   6.128906e-05  1.496315e-08
     74     97   2   0.50000    -0.1200000    0.1400000   1.015252e-03  1.866303e-06
    105     97   2   0.50000    -0.1200000    0.1400000   1.015252e-03  1.866303e-06
    106     97   2   0.50000     0.0300000    0.1400000   2.494471e-04  1.671101e-07
     74    124   2   0.50000    -0.1200000    0.0600000   2.494471e-04  1.671101e-07
     74    125   2   0.50000    -0.1200000    0.0600000   2.494471e-04  1.671101e-07
     74    126   2   0.50000    -0.1200000    0.1700000   1.015252e-03  1.866303e-06
     96    124   2   0.50000    -0.4000000    0.0600000   2.066619e-04  7.875431e-08
     96    125   2   0.50000    -0.4000000    0.0600000   2.066619e-04  7.875431e-08
     96    126   2   0.50000    -0.4000000    0.1700000   8.411158e-04  8.795366e-07
    106    124   2   0.50000     0.0300000    0.0600000   6.128906e-05  1.496315e-08
    106    125   2   0.50000     0.0300000    0.0600000   6.128906e-05  1.496315e-08
    106    126   2   0.50000     0.0300000    0.1700000   2.494471e-04  1.671101e-07
     95     98   2   0.50000     0.1700000   -0.1200000   1.015252e-03  1.866303e-06
     95    107   2   0.50000     0.1700000    0.0300000   2.494471e-04  1.671101e-07
     95    108   2   0.50000     0.1700000    0.0300000   2.494471e-04  1.671101e-07
     96     99   2   0.50000    -0.4000000   -0.1200000   8.411158e-04  8.795366e-07
     96    109   2   0.50000    -0.4000000    0.0600000   2.066619e-04  7.875431e-08
     96    110   2   0.50000    -0.4000000    0.0600000   2.066619e-04  7.875431e-08
    107     99   2   0.50000     0.0300000   -0.1200000   2.494471e-04  1.671101e-07
    107    109   2   0.50000     0.0300000    0.0600000   6.128906e-05  1.496315e-08
    107    110   2   0.50000     0.0300000    0.0600000   6.128906e-05  1.496315e-08
    108     99   2   0.50000     0.0300000   -0.1200000   2.494471e-04  1.671101e-07
    108    109   2   0.50000     0.0300000    0.0600000   6.128906e-05  1.496315e-08
    108    110   2   0.50000     0.0300000    0.0600000   6.128906e-05  1.496315e-08
     97    100   2   0.50000     0.1400000   -0.1200000   1.015252e-03  1.866303e-06
     97    111   2   0.50000     0.1400000    0.0600000   2.494471e-04  1.671101e-07
     97    112   2   0.50000     0.1400000    0.0600000   2.494471e-04  1.671101e-07
    109    100   2   0.50000     0.0600000   -0.1200000   2.494471e-04  1.671101e-07
    109    111   2   0.50000     0.0600000    0.0600000   6.128906e-05  1.496315e-08
    109    112   2   0.50000     0.0600000    0.0600000   6.128906e-05  1.496315e-08
    110    100   2   0.50000     0.0600000   -0.1200000   2.494471e-04  1.671101e-07
    110    111   2   0.50000     0.0600000    0.0600000   6.128906e-05  1.496315e-08
    110    112   2   0.50000     0.0600000    0.0600000   6.128906e-05  1.496315e-08
     98    101   2   0.50000    -0.1200000   -0.1200000   1.015252e-03  1.866303e-06
     98    113   2   0.50000    -0.1200000    0.0600000   2.494471e-04  1.671101e-07
     98    114   2   0.50000    -0.1200000    0.0600000   2.494471e-04  1.671101e-07
    111    101   2   0.50000     0.0600000   -0.1200000   2.494471e-04  1.671101e-07
    111    113   2   0.50000     0.0600000    0.0600000   6.128906e-05  1.496315e-08
    111    114   2   0.50000     0.0600000    0.0600000   6.128906e-05  1.496315e-08
    112    101   2   0.50000     0.0600000   -0.1200000   2.494471e-04  1.671101e-07
    112    113   2   0.50000     0.0600000    0.0600000   6.128906e-05  1.496315e-08
    112    114   2   0.50000     0.0600000    0.0600000   6.128906e-05  1.496315e-08
     99    102   2   0.50000    -0.1200000   -0.1200000   1.015252e-03  1.866303e-06
     99    115   2   0.50000    -0.1200000    0.0600000   2.494471e-04  1.671101e-07
     99    116   2   0.50000    -0.1200000    0.0600000   2.494471e-04  1.671101e-07
    113    102   2   0.50000     0.0600000   -0.1200000   2.494471e-04  1.671101e-07
    113    115   2   0.50000     0.0600000    0.0600000   6.128906e-05  1.496315e-08
    113    116   2   0.50000     0.0600000    0.0600000   6.128906e-05  1.496315e-08
    114    102   2   0.50000     0.0600000   -0.1200000   2.494471e-04  1.671101e-07
    114    115   2   0.50000     0.0600000    0.0600000   6.128906e-05  1.496315e-08
    114    116   2   0.50000     0.0600000    0.0600000   6.128906e-05  1.496315e-08
    100    103   2   0.50000    -0.1200000   -0.1200000   1.015252e-03  1.866303e-06
    100    117   2   0.50000    -0.1200000    0.0600000   2.494471e-04  1.671101e-07
    100    118   2   0.50000    -0.1200000    0.0600000   2.494471e-04  1.671101e-07
    115    103   2   0.50000     0.0600000   -0.1200000   2.494471e-04  1.671101e-07
    115    117   2   0.50000     0.0600000    0.0600000   6.128906e-05  1.496315e-08
    115    118   2   0.50000     0.0600000    0.0600000   6.128906e-05  1.496315e-08
    116    103   2   0.50000     0.0600000   -0.1200000   2.494471e-04  1.671101e-07
    116    117   2   0.50000     0.0600000    0.0600000   6.128906e-05  1.496315e-08
    116    118   2   0.50000     0.0600000    0.0600000   6.128906e-05  1.496315e-08
    101    104   2   0.50000    -0.1200000   -0.1800000   1.015252e-03  1.866303e-06
    101    119   2   0.50000    -0.1200000    0.0600000   2.494471e-04  1.671101e-07
    101    120   2   0.50000    -0.1200000    0.0600000   2.494471e-04  1.671101e-07
    117    104   2   0.50000     0.0600000   -0.1800000   2.494471e-04  1.671101e-07
    117    119   2   0.50000     0.0600000    0.0600000   6.128906e-05  1.496315e-08
    117    120   2   0.50000     0.0600000    0.0600000   6.128906e-05  1.496315e-08
    118    104   2   0.50000     0.0600000   -0.1800000   2.494471e-04  1.671101e-07
    118    119   2   0.50000     0.0600000    0.0600000   6.128906e-05  1.496315e-08
    118    120   2   0.50000     0.0600000    0.0600000   6.128906e-05  1.496315e-08
    102    121   2   0.50000    -0.1200000    0.0600000   2.494471e-04  1.671101e-07
    102    122   2   0.50000    -0.1200000    0.0600000   2.494471e-04  1.671101e-07
    102    123   2   0.50000    -0.1200000    0.0600000   2.494471e-04  1.671101e-07
    119    121   2   0.50000     0.0600000    0.0600000   6.128906e-05  1.496315e-08
    119    122   2   0.50000     0.0600000    0.0600000   6.128906e-05  1.496315e-08
    119    123   2   0.50000     0.0600000    0.0600000   6.128906e-05  1.496315e-08
    120    121   2   0.50000     0.0600000    0.0600000   6.128906e-05  1.496315e-08
    120    122   2   0.50000     0.0600000    0.0600000   6.128906e-05  1.496315e-08
    120    123   2   0.50000     0.0600000    0.0600000   6.128906e-05  1.496315e-08
     95    127   2   0.50000     0.1700000   -0.4000000   8.411158e-04  8.795366e-07
     95    136   2   0.50000     0.1700000   -0.1200000   1.015252e-03  1.866303e-06
     95    137   2   0.50000     0.1700000    0.0300000   2.494471e-04  1.671101e-07
    124    127   2   0.50000     0.0600000   -0.4000000   2.066619e-04  7.875431e-08
    124    136   2   0.50000     0.0600000   -0.1200000   2.494471e-04  1.671101e-07
    124    137   2   0.50000     0.0600000    0.0300000   6.128906e-05  1.496315e-08
    125    127   2   0.50000     0.0600000   -0.4000000   2.066619e-04  7.875431e-08
    125    136   2   0.50000     0.0600000   -0.1200000   2.494471e-04  1.671101e-07
    125    137   2   0.50000     0.0600000    0.0300000   6.128906e-05  1.496315e-08
    105    128   2   0.50000    -0.1200000    0.1400000   1.015252e-03  1.866303e-06
    136    128   2   0.50000    -0.1200000    0.1400000   1.015252e-03  1.866303e-06
    137    128   2   0.50000     0.0300000    0.1400000   2.494471e-04  1.671101e-07
    105    155   2   0.50000    -0.1200000    0.0600000   2.494471e-04  1.671101e-07
    105    156   2   0.50000    -0.1200000    0.0600000   2.494471e-04  1.671101e-07
    105    157   2   0.50000    -0.1200000    0.1700000   1.015252e-03  1.866303e-06
    127    155   2   0.50000    -0.4000000    0.0600000   2.066619e-04  7.875431e-08
    127    156   2   0.50000    -0.4000000    0.0600000   2.066619e-04  7.875431e-08
    127    157   2   0.50000    -0.4000000    0.1700000   8.411158e-04  8.795366e-07
    137    155   2   0.50000     0.0300000    0.0600000   6.128906e-05  1.496315e-08
    137    156   2   0.50000     0.0300000    0.0600000   6.128906e-05  1.496315e-08
    137    157   2   0.50000     0.0300000    0.1700000   2.494471e-04  1.671101e-07
    126    129   2   0.50000     0.1700000   -0.1200000   1.015252e-03  1.866303e-06
    126    138   2   0.50000     0.1700000    0.0300000   2.494471e-04  1.671101e-07
    126    139   2   0.50000     0.1700000    0.0300000   2.494471e-04  1.671101e-07
    127    130   2   0.50000    -0.4000000   -0.1200000   8.411158e-04  8.795366e-07
    127    140   2   0.50000    -0.4000000    0.0600000   2.066619e-04  7.875431e-08
    127    141   2   0.50000    -0.4000000    0.0600000   2.066619e-04  7.875431e-08
    138    130   2   0.50000     0.0300000   -0.1200000   2.494471e-04  1.671101e-07
    138    140   2   0.50000     0.0300000    0.0600000   6.128906e-05  1.496315e-08
    138    141   2   0.50000     0.0300000    0.0600000   6.128906e-05  1.496315e-08
    139    130   2   0.50000     0.0300000   -0.1200000   2.494471e-04  1.671101e-07
    139    140   2   0.50000     0.0300000    0.0600000   6.128906e-05  1.496315e-08
    139    141   2   0.50000     0.0300000    0.0600000   6.128906e-05  1.496315e-08
    128    131   2   0.50000     0.1400000   -0.1200000   1.015252e-03  1.866303e-06
    128    142   2   0.50000     0.1400000    0.0600000   2.494471e-04  1.671101e-07
    128    143   2   0.50000     0.1400000    0.0600000   2.494471e-04  1.671101e-07
    140    131   2   0.50000     0.0600000   -0.1200000   2.494471e-04  1.671101e-07
    140    142   2   0.50000     0.0600000    0.0600000   6.128906e-05  1.496315e-08
    140    143   2   0.50000     0.0600000    0.0600000   6.128906e-05  1.496315e-08
    141    131   2   0.50000     0.0600000   -0.1200000   2.494471e-04  1.671101e-07
    141    142   2   0.50000     0.0600000    0.0600000   6.128906e-05  1.496315e-08
    141    143   2   0.50000     0.0600000    0.0600000   6.128906e-05  1.496315e-08
    129    132   2   0.50000    -0.1200000   -0.1200000   1.015252e-03  1.866303e-06
    129    144   2   0.50000    -0.1200000    0.0600000   2.494471e-04  1.671101e-07
    129    145   2   0.50000    -0.1200000    0.0600000   2.494471e-04  1.671101e-07
    142    132   2   0.50000     0.0600000   -0.1200000   2.494471e-04  1.671101e-07
    142    144   2   0.50000     0.0600000    0.0600000   6.128906e-05  1.496315e-08
    142    145   2   0.50000     0.0600000    0.0600000   6.128906e-05  1.496315e-08
    143    132   2   0.50000     0.0600000   -0.1200000   2.494471e-04  1.671101e-07
    143    144   2   0.50000     0.0600000    0.0600000   6.128906e-05  1.496315e-08
    143    145   2   0.50000     0.0600000    0.0600000   6.128906e-05  1.496315e-08
    130    133   2   0.50000    -0.1200000   -0.1200000   1.015252e-03  1.866303e-06
    130    146   2   0.50000    -0.1200000    0.0600000   2.494471e-04  1.671101e-07
    130    147   2   0.50000    -0.1200000    0.0600000   2.494471e-04  1.671101e-07
    144    133   2   0.50000     0.0600000   -0.1200000   2.494471e-04  1.671101e-07
    144    146   2   0.50000     0.0600000    0.0600000   6.128906e-05  1.496315e-08
    144    147   2   0.50000     0.0600000    0.0600000   6.128906e-05  1.496315e-08
    145    133   2   0.50000     0.0600000   -0.1200000   2.494471e-04  1.671101e-07
    145    146   2   0.50000     0.0600000    0.0600000   6.128906e-05  1.496315e-08
    145    147   2   0.50000     0.0600000    0.0600000   6.128906e-05  1.496315e-08
    131    134   2   0.50000    -0.1200000   -0.1200000   1.015252e-03  1.866303e-06
    131    148   2   0.50000    -0.1200000    0.0600000   2.494471e-04  1.671101e-07
    131    149   2   0.50000    -0.1200000    0.0600000   2.494471e-04  1.671101e-07
    146    134   2   0.50000     0.0600000   -0.1200000   2.494471e-04  1.671101e-07
    146    148   2   0.50000     0.0600000    0.0600000   6.128906e-05  1.496315e-08
    146    149   2   0.50000     0.0600000    0.0600000   6.128906e-05  1.496315e-08
    147    134   2   0.50000     0.0600000   -0.1200000   2.494471e-04  1.671101e-07
    147    148   2   0.50000     0.0600000    0.0600000   6.128906e-05  1.496315e-08
    147    149   2   0.50000     0.0600000    0.0600000   6.128906e-05  1.496315e-08
    132    135   2   0.50000    -0.1200000   -0.1800000   1.015252e-03  1.866303e-06
    132    150   2   0.50000    -0.1200000    0.0600000   2.494471e-04  1.671101e-07
    132    151   2   0.50000    -0.1200000    0.0600000   2.494471e-04  1.671101e-07
    148    135   2   0.50000     0.0600000   -0.1800000   2.494471e-04  1.671101e-07
    148    150   2   0.50000     0.0600000    0.0600000   6.128906e-05  1.496315e-08
    148    151   2   0.50000     0.0600000    0.0600000   6.128906e-05  1.496315e-08
    149    135   2   0.50000     0.0600000   -0.1800000   2.494471e-04  1.671101e-07
    149    150   2   0.50000     0.0600000    0.0600000   6.128906e-05  1.496315e-08
    149    151   2   0.50000     0.0600000    0.0600000   6.128906e-05  1.496315e-08
    133    152   2   0.50000    -0.1200000    0.0600000   2.494471e-04  1.671101e-07
    133    153   2   0.50000    -0.1200000    0.0600000   2.494471e-04  1.671101e-07
    133    154   2   0.50000    -0.1200000    0.0600000   2.494471e-04  1.671101e-07
    150    152   2   0.50000     0.0600000    0.0600000   6.128906e-05  1.496315e-08
    150    153   2   0.50000     0.0600000    0.0600000   6.128906e-05  1.496315e-08
    150    154   2   0.50000     0.0600000    0.0600000   6.128906e-05  1.496315e-08
    151    152   2   0.50000     0.0600000    0.0600000   6.128906e-05  1.496315e-08
    151    153   2   0.50000     0.0600000    0.0600000   6.128906e-05  1.496315e-08
    151    154   2   0.50000     0.0600000    0.0600000   6.128906e-05  1.496315e-08
    126    158   2   0.50000     0.1700000   -0.4000000   8.411158e-04  8.795366e-07
    126    167   2   0.50000     0.1700000   -0.1200000   1.015252e-03  1.866303e-06
    126    168   2   0.50000     0.1700000    0.0300000   2.494471e-04  1.671101e-07
    155    158   2   0.50000     0.0600000   -0.4000000   2.066619e-04  7.875431e-08
    155    167   2   0.50000     0.0600000   -0.1200000   2.494471e-04  1.671101e-07
    155    168   2   0.50000     0.0600000    0.0300000   6.128906e-05  1.496315e-08
    156    158   2   0.50000     0.0600000   -0.4000000   2.066619e-04  7.875431e-08
    156    167   2   0.50000     0.0600000   -0.1200000   2.494471e-04  1.671101e-07
    156    168   2   0.50000     0.0600000    0.0300000   6.128906e-05  1.496315e-08
    136    159   2   0.50000    -0.1200000    0.1400000   1.015252e-03  1.866303e-06
    167    159   2   0.50000    -0.1200000    0.1400000   1.015252e-03  1.866303e-06
    168    159   2   0.50000     0.0300000    0.1400000   2.494471e-04  1.671101e-07
    136    186   2   0.50000    -0.1200000    0.0600000   2.494471e-04  1.671101e-07
    136    187   2   0.50000    -0.1200000    0.0600000   2.494471e-04  1.671101e-07
    136    188   2   0.50000    -0.1200000    0.1700000   1.015252e-03  1.866303e-06
    158    186   2   0.50000    -0.4000000    0.0600000   2.066619e-04  7.875431e-08
    158    187   2   0.50000    -0.4000000    0.0600000   2.066619e-04  7.875431e-08
    158    188   2   0.50000    -0.4000000    0.1700000   8.411158e-04  8.795366e-07
    168    186   2   0.50000     0.0300000    0.0600000   6.128906e-05  1.496315e-08
    168    187   2   0.50000     0.0300000    0.0600000   6.128906e-05  1.496315e-08
    168    188   2   0.50000     0.0300000    0.1700000   2.494471e-04  1.671101e-07
    157    160   2   0.50000     0.1700000   -0.1200000   1.015252e-03  1.866303e-06
    157    169   2   0.50000     0.1700000    0.0300000   2.494471e-04  1.671101e-07
    157    170   2   0.50000     0.1700000    0.0300000   2.494471e-04  1.671101e-07
    158    161   2   0.50000    -0.4000000   -0.1200000   8.411158e-04  8.795366e-07
    158    171   2   0.50000    -0.4000000    0.0600000   2.066619e-04  7.875431e-08
    158    172   2   0.50000    -0.4000000    0.0600000   2.066619e-04  7.875431e-08
    169    161   2   0.50000     0.0300000   -0.1200000   2.494471e-04  1.671101e-07
    169    171   2   0.50000     0.0300000    0.0600000   6.128906e-05  1.496315e-08
    169    172   2   0.50000     0.0300000    0.0600000   6.128906e-05  1.496315e-08
    170    161   2   0.50000     0.0300000   -0.1200000   2.494471e-04  1.671101e-07
    170    171   2   0.50000     0.0300000    0.0600000   6.128906e-05  1.496315e-08
    170    172   2   0.50000     0.0300000    0.0600000   6.128906e-05  1.496315e-08
    159    162   2   0.50000     0.1400000   -0.1200000   1.015252e-03  1.866303e-06
    159    173   2   0.50000     0.1400000    0.0600000   2.494471e-04  1.671101e-07
    159    174   2   0.50000     0.1400000    0.0600000   2.494471e-04  1.671101e-07
    171    162   2   0.50000     0.0600000   -0.1200000   2.494471e-04  1.671101e-07
    171    173   2   0.50000     0.0600000    0.0600000   6.128906e-05  1.496315e-08
    171    174   2   0.50000     0.0600000    0.0600000   6.128906e-05  1.496315e-08
    172    162   2   0.50000     0.0600000   -0.1200000   2.494471e-04  1.671101e-07
    172    173   2   0.50000     0.0600000    0.0600000   6.128906e-05  1.496315e-08
    172    174   2   0.50000     0.0600000    0.0600000   6.128906e-05  1.496315e-08
    160    163   2   0.50000    -0.1200000   -0.1200000   1.015252e-03  1.866303e-06
    160    175   2   0.50000    -0.1200000    0.0600000   2.494471e-04  1.671101e-07
    160    176   2   0.50000    -0.1200000    0.0600000   2.494471e-04  1.671101e-07
    173    163   2   0.50000     0.0600000   -0.1200000   2.494471e-04  1.671101e-07
    173    175   2   0.50000     0.0600000    0.0600000   6.128906e-05  1.496315e-08
    173    176   2   0.50000     0.0600000    0.0600000   6.128906e-05  1.496315e-08
    174    163   2   0.50000     0.0600000   -0.1200000   2.494471e-04  1.671101e-07
    174    175   2   0.50000     0.0600000    0.0600000   6.128906e-05  1.496315e-08
    174    176   2   0.50000     0.0600000    0.0600000   6.128906e-05  1.496315e-08
    161    164   2   0.50000    -0.1200000   -0.1200000   1.015252e-03  1.866303e-06
    161    177   2   0.50000    -0.1200000    0.0600000   2.494471e-04  1.671101e-07
    161    178   2   0.50000    -0.1200000    0.0600000   2.494471e-04  1.671101e-07
    175    164   2   0.50000     0.0600000   -0.1200000   2.494471e-04  1.671101e-07
    175    177   2   0.50000     0.0600000    0.0600000   6.128906e-05  1.496315e-08
    175    178   2   0.50000     0.0600000    0.0600000   6.128906e-05  1.496315e-08
    176    164   2   0.50000     0.0600000   -0.1200000   2.494471e-04  1.671101e-07
    176    177   2   0.50000     0.0600000    0.0600000   6.128906e-05  1.496315e-08
    176    178   2   0.50000     0.0600000    0.0600000   6.128906e-05  1.496315e-08
    162    165   2   0.50000    -0.1200000   -0.1200000   1.015252e-03  1.866303e-06
    162    179   2   0.50000    -0.1200000    0.0600000   2.494471e-04  1.671101e-07
    162    180   2   0.50000    -0.1200000    0.0600000   2.494471e-04  1.671101e-07
    177    165   2   0.50000     0.0600000   -0.1200000   2.494471e-04  1.671101e-07
    177    179   2   0.50000     0.0600000    0.0600000   6.128906e-05  1.496315e-08
    177    180   2   0.50000     0.0600000    0.0600000   6.128906e-05  1.496315e-08
    178    165   2   0.50000     0.0600000   -0.1200000   2.494471e-04  1.671101e-07
    178    179   2   0.50000     0.0600000    0.0600000   6.128906e-05  1.496315e-08
    178    180   2   0.50000     0.0600000    0.0600000   6.128906e-05  1.496315e-08
    163    166   2   0.50000    -0.1200000   -0.1800000   1.015252e-03  1.866303e-06
    163    181   2   0.50000    -0.1200000    0.0600000   2.494471e-04  1.671101e-07
    163    182   2   0.50000    -0.1200000    0.0600000   2.494471e-04  1.671101e-07
    179    166   2   0.50000     0.0600000   -0.1800000   2.494471e-04  1.671101e-07
    179    181   2   0.50000     0.0600000    0.0600000   6.128906e-05  1.496315e-08
    179    182   2   0.50000     0.0600000    0.0600000   6.128906e-05  1.496315e-08
    180    166   2   0.50000     0.0600000   -0.1800000   2.494471e-04  1.671101e-07
    180    181   2   0.50000     0.0600000    0.0600000   6.128906e-05  1.496315e-08
    180    182   2   0.50000     0.0600000    0.0600000   6.128906e-05  1.496315e-08
    164    183   2   0.50000    -0.1200000    0.0600000   2.494471e-04  1.671101e-07
    164    184   2   0.50000    -0.1200000    0.0600000   2.494471e-04  1.671101e-07
    164    185   2   0.50000    -0.1200000    0.0600000   2.494471e-04  1.671101e-07
    181    183   2   0.50000     0.0600000    0.0600000   6.128906e-05  1.496315e-08
    181    184   2   0.50000     0.0600000    0.0600000   6.128906e-05  1.496315e-08
    181    185   2   0.50000     0.0600000    0.0600000   6.128906e-05  1.496315e-08
    182    183   2   0.50000     0.0600000    0.0600000   6.128906e-05  1.496315e-08
    182    184   2   0.50000     0.0600000    0.0600000   6.128906e-05  1.496315e-08
    182    185   2   0.50000     0.0600000    0.0600000   6.128906e-05  1.496315e-08
    157    189   2   0.50000     0.1700000   -0.4000000   8.411158e-04  8.795366e-07
    157    198   2   0.50000     0.1700000   -0.1200000   1.015252e-03  1.866303e-06
    157    199   2   0.50000     0.1700000    0.0300000   2.494471e-04  1.671101e-07
    186    189   2   0.50000     0.0600000   -0.4000000   2.066619e-04  7.875431e-08
    186    198   2   0.50000     0.0600000   -0.1200000   2.494471e-04  1.671101e-07
    186    199   2   0.50000     0.0600000    0.0300000   6.128906e-05  1.496315e-08
    187    189   2   0.50000     0.0600000   -0.4000000   2.066619e-04  7.875431e-08
    187    198   2   0.50000     0.0600000   -0.1200000   2.494471e-04  1.671101e-07
    187    199   2   0.50000     0.0600000    0.0300000   6.128906e-05  1.496315e-08
    167    190   2   0.50000    -0.1200000    0.1400000   1.015252e-03  1.866303e-06
    198    190   2   0.50000    -0.1200000    0.1400000   1.015252e-03  1.866303e-06
    199    190   2   0.50000     0.0300000    0.1400000   2.494471e-04  1.671101e-07
    167    217   2   0.50000    -0.1200000    0.0600000   2.494471e-04  1.671101e-07
    167    218   2   0.50000    -0.1200000    0.0600000   2.494471e-04  1.671101e-07
    167    219   2   0.50000    -0.1200000    0.1700000   1.015252e-03  1.866303e-06
    189    217   2   0.50000    -0.4000000    0.0600000   2.066619e-04  7.875431e-08
    189    218   2   0.50000    -0.4000000    0.0600000   2.066619e-04  7.875431e-08
    189    219   2   0.50000    -0.4000000    0.1700000   8.411158e-04  8.795366e-07
    199    217   2   0.50000     0.0300000    0.0600000   6.128906e-05  1.496315e-08
    199    218   2   0.50000     0.0300000    0.0600000   6.128906e-05  1.496315e-08
    199    219   2   0.50000     0.0300000    0.1700000   2.494471e-04  1.671101e-07
    188    191   2   0.50000     0.1700000   -0.1200000   1.015252e-03  1.866303e-06
    188    200   2   0.50000     0.1700000    0.0300000   2.494471e-04  1.671101e-07
    188    201   2   0.50000     0.1700000    0.0300000   2.494471e-04  1.671101e-07
    189    192   2   0.50000    -0.4000000   -0.1200000   8.411158e-04  8.795366e-07
    189    202   2   0.50000    -0.4000000    0.0600000   2.066619e-04  7.875431e-08
    189    203   2   0.50000    -0.4000000    0.0600000   2.066619e-04  7.875431e-08
    200    192   2   0.50000     0.0300000   -0.1200000   2.494471e-04  1.671101e-07
    200    202   2   0.50000     0.0300000    0.0600000   6.128906e-05  1.496315e-08
    200    203   2   0.50000     0.0300000    0.0600000   6.128906e-05  1.496315e-08
    201    192   2   0.50000     0.0300000   -0.1200000   2.494471e-04  1.671101e-07
    201    202   2   0.50000     0.0300000    0.0600000   6.128906e-05  1.496315e-08
    201    203   2   0.50000     0.0300000    0.0600000   6.128906e-05  1.496315e-08
    190    193   2   0.50000     0.1400000   -0.1200000   1.015252e-03  1.866303e-06
    190    204   2   0.50000     0.1400000    0.0600000   2.494471e-04  1.671101e-07
    190    205   2   0.50000     0.1400000    0.0600000   2.494471e-04  1.671101e-07
    202    193   2   0.50000     0.0600000   -0.1200000   2.494471e-04  1.671101e-07
    202    204   2   0.50000     0.0600000    0.0600000   6.128906e-05  1.496315e-08
    202    205   2   0.50000     0.0600000    0.0600000   6.128906e-05  1.496315e-08
    203    193   2   0.50000     0.0600000   -0.1200000   2.494471e-04  1.671101e-07
    203    204   2   0.50000     0.0600000    0.0600000   6.128906e-05  1.496315e-08
    203    205   2   0.50000     0.0600000    0.0600000   6.128906e-05  1.496315e-08
    191    194   2   0.50000    -0.1200000   -0.1200000   1.015252e-03  1.866303e-06
    191    206   2   0.50000    -0.1200000    0.0600000   2.494471e-04  1.671101e-07
    191    207   2   0.50000    -0.1200000    0.0600000   2.494471e-04  1.671101e-07
    204    194   2   0.50000     0.0600000   -0.1200000   2.494471e-04  1.671101e-07
    204    206   2   0.50000     0.0600000    0.0600000   6.128906e-05  1.496315e-08
    204    207   2   0.50000     0.0600000    0.0600000   6.128906e-05  1.496315e-08
    205    194   2   0.50000     0.0600000   -0.1200000   2.494471e-04  1.671101e-07
    205    206   2   0.50000     0.0600000    0.0600000   6.128906e-05  1.496315e-08
    205    207   2   0.50000     0.0600000    0.0600000   6.128906e-05  1.496315e-08
    192    195   2   0.50000    -0.1200000   -0.1200000   1.015252e-03  1.866303e-06
    192    208   2   0.50000    -0.1200000    0.0600000   2.494471e-04  1.671101e-07
    192    209   2   0.50000    -0.1200000    0.0600000   2.494471e-04  1.671101e-07
    206    195   2   0.50000     0.0600000   -0.1200000   2.494471e-04  1.671101e-07
    206    208   2   0.50000     0.0600000    0.0600000   6.128906e-05  1.496315e-08
    206    209   2   0.50000     0.0600000    0.0600000   6.128906e-05  1.496315e-08
    207    195   2   0.50000     0.0600000   -0.1200000   2.494471e-04  1.671101e-07
    207    208   2   0.50000     0.0600000    0.0600000   6.128906e-05  1.496315e-08
    207    209   2   0.50000     0.0600000    0.0600000   6.128906e-05  1.496315e-08
    193    196   2   0.50000    -0.1200000   -0.1200000   1.015252e-03  1.866303e-06
    193    210   2   0.50000    -0.1200000    0.0600000   2.494471e-04  1.671101e-07
    193    211   2   0.50000    -0.1200000    0.0600000   2.494471e-04  1.671101e-07
    208    196   2   0.50000     0.0600000   -0.1200000   2.494471e-04  1.671101e-07
    208    210   2   0.50000     0.0600000    0.0600000   6.128906e-05  1.496315e-08
    208    211   2   0.50000     0.0600000    0.0600000   6.128906e-05  1.496315e-08
    209    196   2   0.50000     0.0600000   -0.1200000   2.494471e-04  1.671101e-07
    209    210   2   0.50000     0.0600000    0.0600000   6.128906e-05  1.496315e-08
    209    211   2   0.50000     0.0600000    0.0600000   6.128906e-05  1.496315e-08
    194    197   2   0.50000    -0.1200000   -0.1800000   1.015252e-03  1.866303e-06
    194    212   2   0.50000    -0.1200000    0.0600000   2.494471e-04  1.671101e-07
    194    213   2   0.50000    -0.1200000    0.0600000   2.494471e-04  1.671101e-07
    210    197   2   0.50000     0.0600000   -0.1800000   2.494471e-04  1.671101e-07
    210    212   2   0.50000     0.0600000    0.0600000   6.128906e-05  1.496315e-08
    210    213   2   0.50000     0.0600000    0.0600000   6.128906e-05  1.496315e-08
    211    197   2   0.50000     0.0600000   -0.1800000   2.494471e-04  1.671101e-07
    211    212   2   0.50000     0.0600000    0.0600000   6.128906e-05  1.496315e-08
    211    213   2   0.50000     0.0600000    0.0600000   6.128906e-05  1.496315e-08
    195    214   2   0.50000    -0.1200000    0.0600000   2.494471e-04  1.671101e-07
    195    215   2   0.50000    -0.1200000    0.0600000   2.494471e-04  1.671101e-07
    195    216   2   0.50000    -0.1200000    0.0600000   2.494471e-04  1.671101e-07
    212    214   2   0.50000     0.0600000    0.0600000   6.128906e-05  1.496315e-08
    212    215   2   0.50000     0.0600000    0.0600000   6.128906e-05  1.496315e-08
    212    216   2   0.50000     0.0600000    0.0600000   6.128906e-05  1.496315e-08
    213    214   2   0.50000     0.0600000    0.0600000   6.128906e-05  1.496315e-08
    213    215   2   0.50000     0.0600000    0.0600000   6.128906e-05  1.496315e-08
    213    216   2   0.50000     0.0600000    0.0600000   6.128906e-05  1.496315e-08
    188    220   2   0.50000     0.1700000   -0.4000000   8.411158e-04  8.795366e-07
    188    229   2   0.50000     0.1700000   -0.1200000   1.015252e-03  1.866303e-06
    188    230   2   0.50000     0.1700000    0.0300000   2.494471e-04  1.671101e-07
    217    220   2   0.50000     0.0600000   -0.4000000   2.066619e-04  7.875431e-08
    217    229   2   0.50000     0.0600000   -0.1200000   2.494471e-04  1.671101e-07
    217    230   2   0.50000     0.0600000    0.0300000   6.128906e-05  1.496315e-08
    218    220   2   0.50000     0.0600000   -0.4000000   2.066619e-04  7.875431e-08
    218    229   2   0.50000     0.0600000   -0.1200000   2.494471e-04  1.671101e-07
    218    230   2   0.50000     0.0600000    0.0300000   6.128906e-05  1.496315e-08
    198    221   2   0.50000    -0.1200000    0.1400000   1.015252e-03  1.866303e-06
    229    221   2   0.50000    -0.1200000    0.1400000   1.015252e-03  1.866303e-06
    230    221   2   0.50000     0.0300000    0.1400000   2.494471e-04  1.671101e-07
    198    248   2   0.50000    -0.1200000    0.0600000   2.494471e-04  1.671101e-07
    198    249   2   0.50000    -0.1200000    0.0600000   2.494471e-04  1.671101e-07
    198    250   2   0.50000    -0.1200000    0.1700000   1.015252e-03  1.866303e-06
    220    248   2   0.50000    -0.4000000    0.0600000   2.066619e-04  7.875431e-08
    220    249   2   0.50000    -0.4000000    0.0600000   2.066619e-04  7.875431e-08
    220    250   2   0.50000    -0.4000000    0.1700000   8.411158e-04  8.795366e-07
    230    248   2   0.50000     0.0300000    0.0600000   6.128906e-05  1.496315e-08
    230    249   2   0.50000     0.0300000    0.0600000   6.128906e-05  1.496315e-08
    230    250   2   0.50000     0.0300000    0.1700000   2.494471e-04  1.671101e-07
    219    222   2   0.50000     0.1700000   -0.1200000   1.015252e-03  1.866303e-06
    219    231   2   0.50000     0.1700000    0.0300000   2.494471e-04  1.671101e-07
    219    232   2   0.50000     0.1700000    0.0300000   2.494471e-04  1.671101e-07
    220    223   2   0.50000    -0.4000000   -0.1200000   8.411158e-04  8.795366e-07
    220    233   2   0.50000    -0.4000000    0.0600000   2.066619e-04  7.875431e-08
    220    234   2   0.50000    -0.4000000    0.0600000   2.066619e-04  7.875431e-08
    231    223   2   0.50000     0.0300000   -0.1200000   2.494471e-04  1.671101e-07
    231    233   2   0.50000     0.0300000    0.0600000   6.128906e-05  1.496315e-08
    231    234   2   0.50000     0.0300000    0.0600000   6.128906e-05  1.496315e-08
    232    223   2   0.50000     0.0300000   -0.1200000   2.494471e-04  1.671101e-07
    232    233   2   0.50000     0.0300000    0.0600000   6.128906e-05  1.496315e-08
    232    234   2   0.50000     0.0300000    0.0600000   6.128906e-05  1.496315e-08
    221    224   2   0.50000     0.1400000   -0.1200000   1.015252e-03  1.866303e-06
    221    235   2   0.50000     0.1400000    0.0600000   2.494471e-04  1.671101e-07
    221    236   2   0.50000     0.1400000    0.0600000   2.494471e-04  1.671101e-07
    233    224   2   0.50000     0.0600000   -0.1200000   2.494471e-04  1.671101e-07
    233    235   2   0.50000     0.0600000    0.0600000   6.128906e-05  1.496315e-08
    233    236   2   0.50000     0.0600000    0.0600000   6.128906e-05  1.496315e-08
    234    224   2   0.50000     0.0600000   -0.1200000   2.494471e-04  1.671101e-07
    234    235   2   0.50000     0.0600000    0.0600000   6.128906e-05  1.496315e-08
    234    236   2   0.50000     0.0600000    0.0600000   6.128906e-05  1.496315e-08
    222    225   2   0.50000    -0.1200000   -0.1200000   1.015252e-03  1.866303e-06
    222    237   2   0.50000    -0.1200000    0.0600000   2.494471e-04  1.671101e-07
    222    238   2   0.50000    -0.1200000    0.0600000   2.494471e-04  1.671101e-07
    235    225   2   0.50000     0.0600000   -0.1200000   2.494471e-04  1.671101e-07
    235    237   2   0.50000     0.0600000    0.0600000   6.128906e-05  1.496315e-08
    235    238   2   0.50000     0.0600000    0.0600000   6.128906e-05  1.496315e-08
    236    225   2   0.50000     0.0600000   -0.1200000   2.494471e-04  1.671101e-07
    236    237   2   0.50000     0.0600000    0.0600000   6.128906e-05  1.496315e-08
    236    238   2   0.50000     0.0600000    0.0600000   6.128906e-05  1.496315e-08
    223    226   2   0.50000    -0.1200000   -0.1200000   1.015252e-03  1.866303e-06
    223    239   2   0.50000    -0.1200000    0.0600000   2.494471e-04  1.671101e-07
    223    240   2   0.50000    -0.1200000    0.0600000   2.494471e-04  1.671101e-07
    237    226   2   0.50000     0.0600000   -0.1200000   2.494471e-04  1.671101e-07
    237    239   2   0.50000     0.0600000    0.0600000   6.128906e-05  1.496315e-08
    237    240   2   0.50000     0.0600000    0.0600000   6.128906e-05  1.496315e-08
    238    226   2   0.50000     0.0600000   -0.1200000   2.494471e-04  1.671101e-07
    238    239   2   0.50000     0.0600000    0.0600000   6.128906e-05  1.496315e-08
    238    240   2   0.50000     0.0600000    0.0600000   6.128906e-05  1.496315e-08
    224    227   2   0.50000    -0.1200000   -0.1200000   1.015252e-03  1.866303e-06
    224    241   2   0.50000    -0.1200000    0.0600000   2.494471e-04  1.671101e-07
    224    242   2   0.50000    -0.1200000    0.0600000   2.494471e-04  1.671101e-07
    239    227   2   0.50000     0.0600000   -0.1200000   2.494471e-04  1.671101e-07
    239    241   2   0.50000     0.0600000    0.0600000   6.128906e-05  1.496315e-08
    239    242   2   0.50000     0.0600000    0.0600000   6.128906e-05  1.496315e-08
    240    227   2   0.50000     0.0600000   -0.1200000   2.494471e-04  1.671101e-07
    240    241   2   0.50000     0.0600000    0.0600000   6.128906e-05  1.496315e-08
    240    242   2   0.50000     0.0600000    0.0600000   6.128906e-05  1.496315e-08
    225    228   2   0.50000    -0.1200000   -0.1800000   1.015252e-03  1.866303e-06
    225    243   2   0.50000    -0.1200000    0.0600000   2.494471e-04  1.671101e-07
    225    244   2   0.50000    -0.1200000    0.0600000   2.494471e-04  1.671101e-07
    241    228   2   0.50000     0.0600000   -0.1800000   2.494471e-04  1.671101e-07
    241    243   2   0.50000     0.0600000    0.0600000   6.128906e-05  1.496315e-08
    241    244   2   0.50000     0.0600000    0.0600000   6.128906e-05  1.496315e-08
    242    228   2   0.50000     0.0600000   -0.1800000   2.494471e-04  1.671101e-07
    242    243   2   0.50000     0.0600000    0.0600000   6.128906e-05  1.496315e-08
    242    244   2   0.50000     0.0600000    0.0600000   6.128906e-05  1.496315e-08
    226    245   2   0.50000    -0.1200000    0.0600000   2.494471e-04  1.671101e-07
    226    246   2   0.50000    -0.1200000    0.0600000   2.494471e-04  1.671101e-07
    226    247   2   0.50000    -0.1200000    0.0600000   2.494471e-04  1.671101e-07
    243    245   2   0.50000     0.0600000    0.0600000   6.128906e-05  1.496315e-08
    243    246   2   0.50000     0.0600000    0.0600000   6.128906e-05  1.496315e-08
    243    247   2   0.50000     0.0600000    0.0600000   6.128906e-05  1.496315e-08
    244    245   2   0.50000     0.0600000    0.0600000   6.128906e-05  1.496315e-08
    244    246   2   0.50000     0.0600000    0.0600000   6.128906e-05  1.496315e-08
    244    247   2   0.50000     0.0600000    0.0600000   6.128906e-05  1.496315e-08
    219    251   2   0.50000     0.1700000   -0.4000000   8.411158e-04  8.795366e-07
    219    260   2   0.50000     0.1700000   -0.1200000   1.015252e-03  1.866303e-06
    219    261   2   0.50000     0.1700000    0.0300000   2.494471e-04  1.671101e-07
    248    251   2   0.50000     0.0600000   -0.4000000   2.066619e-04  7.875431e-08
    248    260   2   0.50000     0.0600000   -0.1200000   2.494471e-04  1.671101e-07
    248    261   2   0.50000     0.0600000    0.0300000   6.128906e-05  1.496315e-08
    249    251   2   0.50000     0.0600000   -0.4000000   2.066619e-04  7.875431e-08
    249    260   2   0.50000     0.0600000   -0.1200000   2.494471e-04  1.671101e-07
    249    261   2   0.50000     0.0600000    0.0300000   6.128906e-05  1.496315e-08
    229    252   2   0.50000    -0.1200000    0.1400000   1.015252e-03  1.866303e-06
    260    252   2   0.50000    -0.1200000    0.1400000   1.015252e-03  1.866303e-06
    261    252   2   0.50000     0.0300000    0.1400000   2.494471e-04  1.671101e-07
    229    279   2   0.50000    -0.1200000    0.0600000   2.494471e-04  1.671101e-07
    229    280   2   0.50000    -0.1200000    0.0600000   2.494471e-04  1.671101e-07
    229    281   2   0.50000    -0.1200000    0.1700000   1.015252e-03  1.866303e-06
    251    279   2   0.50000    -0.4000000    0.0600000   2.066619e-04  7.875431e-08
    251    280   2   0.50000    -0.4000000    0.0600000   2.066619e-04  7.875431e-08
    251    281   2   0.50000    -0.4000000    0.1700000   8.411158e-04  8.795366e-07
    261    279   2   0.50000     0.0300000    0.0600000   6.128906e-05  1.496315e-08
    261    280   2   0.50000     0.0300000    0.0600000   6.128906e-05  1.496315e-08
    261    281   2   0.50000     0.0300000    0.1700000   2.494471e-04  1.671101e-07
    250    253   2   0.50000     0.1700000   -0.1200000   1.015252e-03  1.866303e-06
    250    262   2   0.50000     0.1700000    0.0300000   2.494471e-04  1.671101e-07
    250    263   2   0.50000     0.1700000    0.0300000   2.494471e-04  1.671101e-07
    251    254   2   0.50000    -0.4000000   -0.1200000   8.411158e-04  8.795366e-07
    251    264   2   0.50000    -0.4000000    0.0600000   2.066619e-04  7.875431e-08
    251    265   2   0.50000    -0.4000000    0.0600000   2.066619e-04  7.875431e-08
    262    254   2   0.50000     0.0300000   -0.1200000   2.494471e-04  1.671101e-07
    262    264   2   0.50000     0.0300000    0.0600000   6.128906e-05  1.496315e-08
    262    265   2   0.50000     0.0300000    0.0600000   6.128906e-05  1.496315e-08
    263    254   2   0.50000     0.0300000   -0.1200000   2.494471e-04  1.671101e-07
    263    264   2   0.50000     0.0300000    0.0600000   6.128906e-05  1.496315e-08
    263    265   2   0.50000     0.0300000    0.0600000   6.128906e-05  1.496315e-08
    252    255   2   0.50000     0.1400000   -0.1200000   1.015252e-03  1.866303e-06
    252    266   2   0.50000     0.1400000    0.0600000   2.494471e-04  1.671101e-07
    252    267   2   0.50000     0.1400000    0.0600000   2.494471e-04  1.671101e-07
    264    255   2   0.50000     0.0600000   -0.1200000   2.494471e-04  1.671101e-07
    264    266   2   0.50000     0.0600000    0.0600000   6.128906e-05  1.496315e-08
    264    267   2   0.50000     0.0600000    0.0600000   6.128906e-05  1.496315e-08
    265    255   2   0.50000     0.0600000   -0.1200000   2.494471e-04  1.671101e-07
    265    266   2   0.50000     0.0600000    0.0600000   6.128906e-05  1.496315e-08
    265    267   2   0.50000     0.0600000    0.0600000   6.128906e-05  1.496315e-08
    253    256   2   0.50000    -0.1200000   -0.1200000   1.015252e-03  1.866303e-06
    253    268   2   0.50000    -0.1200000    0.0600000   2.494471e-04  1.671101e-07
    253    269   2   0.50000    -0.1200000    0.0600000   2.494471e-04  1.671101e-07
    266    256   2   0.50000     0.0600000   -0.1200000   2.494471e-04  1.671101e-07
    266    268   2   0.50000     0.0600000    0.0600000   6.128906e-05  1.496315e-08
    266    269   2   0.50000     0.0600000    0.0600000   6.128906e-05  1.496315e-08
    267    256   2   0.50000     0.0600000   -0.1200000   2.494471e-04  1.671101e-07
    267    268   2   0.50000     0.0600000    0.0600000   6.128906e-05  1.496315e-08
    267    269   2   0.50000     0.0600000    0.0600000   6.128906e-05  1.496315e-08
    254    257   2   0.50000    -0.1200000   -0.1200000   1.015252e-03  1.866303e-06
    254    270   2   0.50000    -0.1200000    0.0600000   2.494471e-04  1.671101e-07
    254    271   2   0.50000    -0.1200000    0.0600000   2.494471e-04  1.671101e-07
    268    257   2   0.50000     0.0600000   -0.1200000   2.494471e-04  1.671101e-07
    268    270   2   0.50000     0.0600000    0.0600000   6.128906e-05  1.496315e-08
    268    271   2   0.50000     0.0600000    0.0600000   6.128906e-05  1.496315e-08
    269    257   2   0.50000     0.0600000   -0.1200000   2.494471e-04  1.671101e-07
    269    270   2   0.50000     0.0600000    0.0600000   6.128906e-05  1.496315e-08
    269    271   2   0.50000     0.0600000    0.0600000   6.128906e-05  1.496315e-08
    255    258   2   0.50000    -0.1200000   -0.1200000   1.015252e-03  1.866303e-06
    255    272   2   0.50000    -0.1200000    0.0600000   2.494471e-04  1.671101e-07
    255    273   2   0.50000    -0.1200000    0.0600000   2.494471e-04  1.671101e-07
    270    258   2   0.50000     0.0600000   -0.1200000   2.494471e-04  1.671101e-07
    270    272   2   0.50000     0.0600000    0.0600000   6.128906e-05  1.496315e-08
    270    273   2   0.50000     0.0600000    0.0600000   6.128906e-05  1.496315e-08
    271    258   2   0.50000     0.0600000   -0.1200000   2.494471e-04  1.671101e-07
    271    272   2   0.50000     0.0600000    0.0600000   6.128906e-05  1.496315e-08
    271    273   2   0.50000     0.0600000    0.0600000   6.128906e-05  1.496315e-08
    256    259   2   0.50000    -0.1200000   -0.1800000   1.015252e-03  1.866303e-06
    256    274   2   0.50000    -0.1200000    0.0600000   2.494471e-04  1.671101e-07
    256    275   2   0.50000    -0.1200000    0.0600000   2.494471e-04  1.671101e-07
    272    259   2   0.50000     0.0600000   -0.1800000   2.494471e-04  1.671101e-07
    272    274   2   0.50000     0.0600000    0.0600000   6.128906e-05  1.496315e-08
    272    275   2   0.50000     0.0600000    0.0600000   6.128906e-05  1.496315e-08
    273    259   2   0.50000     0.0600000   -0.1800000   2.494471e-04  1.671101e-07
    273    274   2   0.50000     0.0600000    0.0600000   6.128906e-05  1.496315e-08
    273    275   2   0.50000     0.0600000    0.0600000   6.128906e-05  1.496315e-08
    257    276   2   0.50000    -0.1200000    0.0600000   2.494471e-04  1.671101e-07
    257    277   2   0.50000    -0.1200000    0.0600000   2.494471e-04  1.671101e-07
    257    278   2   0.50000    -0.1200000    0.0600000   2.494471e-04  1.671101e-07
    274    276   2   0.50000     0.0600000    0.0600000   6.128906e-05  1.496315e-08
    274    277   2   0.50000     0.0600000    0.0600000   6.128906e-05  1.496315e-08
    274    278   2   0.50000     0.0600000    0.0600000   6.128906e-05  1.496315e-08
    275    276   2   0.50000     0.0600000    0.0600000   6.128906e-05  1.496315e-08
    275    277   2   0.50000     0.0600000    0.0600000   6.128906e-05  1.496315e-08
    275    278   2   0.50000     0.0600000    0.0600000   6.128906e-05  1.496315e-08
    250    282   2   0.50000     0.1700000   -0.4000000   8.411158e-04  8.795366e-07
    250    291   2   0.50000     0.1700000   -0.1200000   1.015252e-03  1.866303e-06
    250    292   2   0.50000     0.1700000    0.0300000   2.494471e-04  1.671101e-07
    279    282   2   0.50000     0.0600000   -0.4000000   2.066619e-04  7.875431e-08
    279    291   2   0.50000     0.0600000   -0.1200000   2.494471e-04  1.671101e-07
    279    292   2   0.50000     0.0600000    0.0300000   6.128906e-05  1.496315e-08
    280    282   2   0.50000     0.0600000   -0.4000000   2.066619e-04  7.875431e-08
    280    291   2   0.50000     0.0600000   -0.1200000   2.494471e-04  1.671101e-07
    280    292   2   0.50000     0.0600000    0.0300000   6.128906e-05  1.496315e-08
    260    283   2   0.50000    -0.1200000    0.1400000   1.015252e-03  1.866303e-06
    291    283   2   0.50000    -0.1200000    0.1400000   1.015252e-03  1.866303e-06
    292    283   2   0.50000     0.0300000    0.1400000   2.494471e-04  1.671101e-07
    260    310   2   0.50000    -0.1200000    0.0600000   2.494471e-04  1.671101e-07
    260    311   2   0.50000    -0.1200000    0.0600000   2.494471e-04  1.671101e-07
    260    312   2   0.50000    -0.1200000    0.1700000   1.015252e-03  1.866303e-06
    282    310   2   0.50000    -0.4000000    0.0600000   2.066619e-04  7.875431e-08
    282    311   2   0.50000    -0.4000000    0.0600000   2.066619e-04  7.875431e-08
    282    312   2   0.50000    -0.4000000    0.1700000   8.411158e-04  8.795366e-07
    292    310   2   0.50000     0.0300000    0.0600000   6.128906e-05  1.496315e-08
    292    311   2   0.50000     0.0300000    0.0600000   6.128906e-05  1.496315e-08
    292    312   2   0.50000     0.0300000    0.1700000   2.494471e-04  1.671101e-07
    281    284   2   0.50000     0.1700000   -0.1200000   1.015252e-03  1.866303e-06
    281    293   2   0.50000     0.1700000    0.0300000   2.494471e-04  1.671101e-07
    281    294   2   0.50000     0.1700000    0.0300000   2.494471e-04  1.671101e-07
    282    285   2   0.50000    -0.4000000   -0.1200000   8.411158e-04  8.795366e-07
    282    295   2   0.50000    -0.4000000    0.0600000   2.066619e-04  7.875431e-08
    282    296   2   0.50000    -0.4000000    0.0600000   2.066619e-04  7.875431e-08
    293    285   2   0.50000     0.0300000   -0.1200000   2.494471e-04  1.671101e-07
    293    295   2   0.50000     0.0300000    0.0600000   6.128906e-05  1.496315e-08
    293    296   2   0.50000     0.0300000    0.0600000   6.128906e-05  1.496315e-08
    294    285   2   0.50000     0.0300000   -0.1200000   2.494471e-04  1.671101e-07
    294    295   2   0.50000     0.0300000    0.0600000   6.128906e-05  1.496315e-08
    294    296   2   0.50000     0.0300000    0.0600000   6.128906e-05  1.496315e-08
    283    286   2   0.50000     0.1400000   -0.1200000   1.015252e-03  1.866303e-06
    283    297   2   0.50000     0.1400000    0.0600000   2.494471e-04  1.671101e-07
    283    298   2   0.50000     0.1400000    0.0600000   2.494471e-04  1.671101e-07
    295    286   2   0.50000     0.0600000   -0.1200000   2.494471e-04  1.671101e-07
    295    297   2   0.50000     0.0600000    0.0600000   6.128906e-05  1.496315e-08
    295    298   2   0.50000     0.0600000    0.0600000   6.128906e-05  1.496315e-08
    296    286   2   0.50000     0.0600000   -0.1200000   2.494471e-04  1.671101e-07
    296    297   2   0.50000     0.0600000    0.0600000   6.128906e-05  1.496315e-08
    296    298   2   0.50000     0.0600000    0.0600000   6.128906e-05  1.496315e-08
    284    287   2   0.50000    -0.1200000   -0.1200000   1.015252e-03  1.866303e-06
    284    299   2   0.50000    -0.1200000    0.0600000   2.494471e-04  1.671101e-07
    284    300   2   0.50000    -0.1200000    0.0600000   2.494471e-04  1.671101e-07
    297    287   2   0.50000     0.0600000   -0.1200000   2.494471e-04  1.671101e-07
    297    299   2   0.50000     0.0600000    0.0600000   6.128906e-05  1.496315e-08
    297    300   2   0.50000     0.0600000    0.0600000   6.128906e-05  1.496315e-08
    298    287   2   0.50000     0.0600000   -0.1200000   2.494471e-04  1.671101e-07
    298    299   2   0.50000     0.0600000    0.0600000   6.128906e-05  1.496315e-08
    298    300   2   0.50000     0.0600000    0.0600000   6.128906e-05  1.496315e-08
    285    288   2   0.50000    -0.1200000   -0.1200000   1.015252e-03  1.866303e-06
    285    301   2   0.50000    -0.1200000    0.0600000   2.494471e-04  1.671101e-07
    285    302   2   0.50000    -0.1200000    0.0600000   2.494471e-04  1.671101e-07
    299    288   2   0.50000     0.0600000   -0.1200000   2.494471e-04  1.671101e-07
    299    301   2   0.50000     0.0600000    0.0600000   6.128906e-05  1.496315e-08
    299    302   2   0.50000     0.0600000    0.0600000   6.128906e-05  1.496315e-08
    300    288   2   0.50000     0.0600000   -0.1200000   2.494471e-04  1.671101e-07
    300    301   2   0.50000     0.0600000    0.0600000   6.128906e-05  1.496315e-08
    300    302   2   0.50000     0.0600000    0.0600000   6.128906e-05  1.496315e-08
    286    289   2   0.50000    -0.1200000   -0.1200000   1.015252e-03  1.866303e-06
    286    303   2   0.50000    -0.1200000    0.0600000   2.494471e-04  1.671101e-07
    286    304   2   0.50000    -0.1200000    0.0600000   2.494471e-04  1.671101e-07
    301    289   2   0.50000     0.0600000   -0.1200000   2.494471e-04  1.671101e-07
    301    303   2   0.50000     0.0600000    0.0600000   6.128906e-05  1.496315e-08
    301    304   2   0.50000     0.0600000    0.0600000   6.128906e-05  1.496315e-08
    302    289   2   0.50000     0.0600000   -0.1200000   2.494471e-04  1.671101e-07
    302    303   2   0.50000     0.0600000    0.0600000   6.128906e-05  1.496315e-08
    302    304   2   0.50000     0.0600000    0.0600000   6.128906e-05  1.496315e-08
    287    290   2   0.50000    -0.1200000   -0.1800000   1.015252e-03  1.866303e-06
    287    305   2   0.50000    -0.1200000    0.0600000   2.494471e-04  1.671101e-07
    287    306   2   0.50000    -0.1200000    0.0600000   2.494471e-04  1.671101e-07
    303    290   2   0.50000     0.0600000   -0.1800000   2.494471e-04  1.671101e-07
    303    305   2   0.50000     0.0600000    0.0600000   6.128906e-05  1.496315e-08
    303    306   2   0.50000     0.0600000    0.0600000   6.128906e-05  1.496315e-08
    304    290   2   0.50000     0.0600000   -0.1800000   2.494471e-04  1.671101e-07
    304    305   2   0.50000     0.0600000    0.0600000   6.128906e-05  1.496315e-08
    304    306   2   0.50000     0.0600000    0.0600000   6.128906e-05  1.496315e-08
    288    307   2   0.50000    -0.1200000    0.0600000   2.494471e-04  1.671101e-07
    288    308   2   0.50000    -0.1200000    0.0600000   2.494471e-04  1.671101e-07
    288    309   2   0.50000    -0.1200000    0.0600000   2.494471e-04  1.671101e-07
    305    307   2   0.50000     0.0600000    0.0600000   6.128906e-05  1.496315e-08
    305    308   2   0.50000     0.0600000    0.0600000   6.128906e-05  1.496315e-08
    305    309   2   0.50000     0.0600000    0.0600000   6.128906e-05  1.496315e-08
    306    307   2   0.50000     0.0600000    0.0600000   6.128906e-05  1.496315e-08
    306    308   2   0.50000     0.0600000    0.0600000   6.128906e-05  1.496315e-08
    306    309   2   0.50000     0.0600000    0.0600000   6.128906e-05  1.496315e-08
    281    313   2   0.50000     0.1700000   -0.4000000   8.411158e-04  8.795366e-07
    281    322   2   0.50000     0.1700000   -0.1200000   1.015252e-03  1.866303e-06
    281    323   2   0.50000     0.1700000    0.0300000   2.494471e-04  1.671101e-07
    310    313   2   0.50000     0.0600000   -0.4000000   2.066619e-04  7.875431e-08
    310    322   2   0.50000     0.0600000   -0.1200000   2.494471e-04  1.671101e-07
    310    323   2   0.50000     0.0600000    0.0300000   6.128906e-05  1.496315e-08
    311    313   2   0.50000     0.0600000   -0.4000000   2.066619e-04  7.875431e-08
    311    322   2   0.50000     0.0600000   -0.1200000   2.494471e-04  1.671101e-07
    311    323   2   0.50000     0.0600000    0.0300000   6.128906e-05  1.496315e-08
    291    314   2   0.50000    -0.1200000    0.1400000   1.015252e-03  1.866303e-06
    322    314   2   0.50000    -0.1200000    0.1400000   1.015252e-03  1.866303e-06
    323    314   2   0.50000     0.0300000    0.1400000   2.494471e-04  1.671101e-07
    291    341   2   0.50000    -0.1200000    0.0600000   2.494471e-04  1.671101e-07
    291    342   2   0.50000    -0.1200000    0.0600000   2.494471e-04  1.671101e-07
    291    343   2   0.50000    -0.1200000    0.1700000   1.015252e-03  1.866303e-06
    313    341   2   0.50000    -0.4000000    0.0600000   2.066619e-04  7.875431e-08
    313    342   2   0.50000    -0.4000000    0.0600000   2.066619e-04  7.875431e-08
    313    343   2   0.50000    -0.4000000    0.1700000   8.411158e-04  8.795366e-07
    323    341   2   0.50000     0.0300000    0.0600000   6.128906e-05  1.496315e-08
    323    342   2   0.50000     0.0300000    0.0600000   6.128906e-05  1.496315e-08
    323    343   2   0.50000     0.0300000    0.1700000   2.494471e-04  1.671101e-07
    312    315   2   0.50000     0.1700000   -0.1200000   1.015252e-03  1.866303e-06
    312    324   2   0.50000     0.1700000    0.0300000   2.494471e-04  1.671101e-07
    312    325   2   0.50000     0.1700000    0.0300000   2.494471e-04  1.671101e-07
    313    316   2   0.50000    -0.4000000   -0.1200000   8.411158e-04  8.795366e-07
    313    326   2   0.50000    -0.4000000    0.0600000   2.066619e-04  7.875431e-08
    313    327   2   0.50000    -0.4000000    0.0600000   2.066619e-04  7.875431e-08
    324    316   2   0.50000     0.0300000   -0.1200000   2.494471e-04  1.671101e-07
    324    326   2   0.50000     0.0300000    0.0600000   6.128906e-05  1.496315e-08
    324    327   2   0.50000     0.0300000    0.0600000   6.128906e-05  1.496315e-08
    325    316   2   0.50000     0.0300000   -0.1200000   2.494471e-04  1.671101e-07
    325    326   2   0.50000     0.0300000    0.0600000   6.128906e-05  1.496315e-08
    325    327   2   0.50000     0.0300000    0.0600000   6.128906e-05  1.496315e-08
    314    317   2   0.50000     0.1400000   -0.1200000   1.015252e-03  1.866303e-06
    314    328   2   0.50000     0.1400000    0.0600000   2.494471e-04  1.671101e-07
    314    329   2   0.50000     0.1400000    0.0600000   2.494471e-04  1.671101e-07
    326    317   2   0.50000     0.0600000   -0.1200000   2.494471e-04  1.671101e-07
    326    328   2   0.50000     0.0600000    0.0600000   6.128906e-05  1.496315e-08
    326    329   2   0.50000     0.0600000    0.0600000   6.128906e-05  1.496315e-08
    327    317   2   0.50000     0.0600000   -0.1200000   2.494471e-04  1.671101e-07
    327    328   2   0.50000     0.0600000    0.0600000   6.128906e-05  1.496315e-08
    327    329   2   0.50000     0.0600000    0.0600000   6.128906e-05  1.496315e-08
    315    318   2   0.50000    -0.1200000   -0.1200000   1.015252e-03  1.866303e-06
    315    330   2   0.50000    -0.1200000    0.0600000   2.494471e-04  1.671101e-07
    315    331   2   0.50000    -0.1200000    0.0600000   2.494471e-04  1.671101e-07
    328    318   2   0.50000     0.0600000   -0.1200000   2.494471e-04  1.671101e-07
    328    330   2   0.50000     0.0600000    0.0600000   6.128906e-05  1.496315e-08
    328    331   2   0.50000     0.0600000    0.0600000   6.128906e-05  1.496315e-08
    329    318   2   0.50000     0.0600000   -0.1200000   2.494471e-04  1.671101e-07
    329    330   2   0.50000     0.0600000    0.0600000   6.128906e-05  1.496315e-08
    329    331   2   0.50000     0.0600000    0.0600000   6.128906e-05  1.496315e-08
    316    319   2   0.50000    -0.1200000   -0.1200000   1.015252e-03  1.866303e-06
    316    332   2   0.50000    -0.1200000    0.0600000   2.494471e-04  1.671101e-07
    316    333   2   0.50000    -0.1200000    0.0600000   2.494471e-04  1.671101e-07
    330    319   2   0.50000     0.0600000   -0.1200000   2.494471e-04  1.671101e-07
    330    332   2   0.50000     0.0600000    0.0600000   6.128906e-05  1.496315e-08
    330    333   2   0.50000     0.0600000    0.0600000   6.128906e-05  1.496315e-08
    331    319   2   0.50000     0.0600000   -0.1200000   2.494471e-04  1.671101e-07
    331    332   2   0.50000     0.0600000    0.0600000   6.128906e-05  1.496315e-08
    331    333   2   0.50000     0.0600000    0.0600000   6.128906e-05  1.496315e-08
    317    320   2   0.50000    -0.1200000   -0.1200000   1.015252e-03  1.866303e-06
    317    334   2   0.50000    -0.1200000    0.0600000   2.494471e-04  1.671101e-07
    317    335   2   0.50000    -0.1200000    0.0600000   2.494471e-04  1.671101e-07
    332    320   2   0.50000     0.0600000   -0.1200000   2.494471e-04  1.671101e-07
    332    334   2   0.50000     0.0600000    0.0600000   6.128906e-05  1.496315e-08
    332    335   2   0.50000     0.0600000    0.0600000   6.128906e-05  1.496315e-08
    333    320   2   0.50000     0.0600000   -0.1200000   2.494471e-04  1.671101e-07
    333    334   2   0.50000     0.0600000    0.0600000   6.128906e-05  1.496315e-08
    333    335   2   0.50000     0.0600000    0.0600000   6.128906e-05  1.496315e-08
    318    321   2   0.50000    -0.1200000   -0.1800000   1.015252e-03  1.866303e-06
    318    336   2   0.50000    -0.1200000    0.0600000   2.494471e-04  1.671101e-07
    318    337   2   0.50000    -0.1200000    0.0600000   2.494471e-04  1.671101e-07
    334    321   2   0.50000     0.0600000   -0.1800000   2.494471e-04  1.671101e-07
    334    336   2   0.50000     0.0600000    0.0600000   6.128906e-05  1.496315e-08
    334    337   2   0.50000     0.0600000    0.0600000   6.128906e-05  1.496315e-08
    335    321   2   0.50000     0.0600000   -0.1800000   2.494471e-04  1.671101e-07
    335    336   2   0.50000     0.0600000    0.0600000   6.128906e-05  1.496315e-08
    335    337   2   0.50000     0.0600000    0.0600000   6.128906e-05  1.496315e-08
    319    338   2   0.50000    -0.1200000    0.0600000   2.494471e-04  1.671101e-07
    319    339   2   0.50000    -0.1200000    0.0600000   2.494471e-04  1.671101e-07
    319    340   2   0.50000    -0.1200000    0.0600000   2.494471e-04  1.671101e-07
    336    338   2   0.50000     0.0600000    0.0600000   6.128906e-05  1.496315e-08
    336    339   2   0.50000     0.0600000    0.0600000   6.128906e-05  1.496315e-08
    336    340   2   0.50000     0.0600000    0.0600000   6.128906e-05  1.496315e-08
    337    338   2   0.50000     0.0600000    0.0600000   6.128906e-05  1.496315e-08
    337    339   2   0.50000     0.0600000    0.0600000   6.128906e-05  1.496315e-08
    337    340   2   0.50000     0.0600000    0.0600000   6.128906e-05  1.496315e-08
    312    344   2   0.50000     0.1700000   -0.4000000   8.411158e-04  8.795366e-07
    312    353   2   0.50000     0.1700000   -0.1200000   1.015252e-03  1.866303e-06
    312    354   2   0.50000     0.1700000    0.0300000   2.494471e-04  1.671101e-07
    341    344   2   0.50000     0.0600000   -0.4000000   2.066619e-04  7.875431e-08
    341    353   2   0.50000     0.0600000   -0.1200000   2.494471e-04  1.671101e-07
    341    354   2   0.50000     0.0600000    0.0300000   6.128906e-05  1.496315e-08
    342    344   2   0.50000     0.0600000   -0.4000000   2.066619e-04  7.875431e-08
    342    353   2   0.50000     0.0600000   -0.1200000   2.494471e-04  1.671101e-07
    342    354   2   0.50000     0.0600000    0.0300000   6.128906e-05  1.496315e-08
    322    345   2   0.50000    -0.1200000    0.1400000   1.015252e-03  1.866303e-06
    353    345   2   0.50000    -0.1200000    0.1400000   1.015252e-03  1.866303e-06
    354    345   2   0.50000     0.0300000    0.1400000   2.494471e-04  1.671101e-07
    322    372   2   0.50000    -0.1200000    0.0600000   2.494471e-04  1.671101e-07
    322    373   2   0.50000    -0.1200000    0.0600000   2.494471e-04  1.671101e-07
    322    374   2   0.50000    -0.1200000    0.1700000   1.015252e-03  1.866303e-06
    344    372   2   0.50000    -0.4000000    0.0600000   2.066619e-04  7.875431e-08
    344    373   2   0.50000    -0.4000000    0.0600000   2.066619e-04  7.875431e-08
    344    374   2   0.50000    -0.4000000    0.1700000   8.411158e-04  8.795366e-07
    354    372   2   0.50000     0.0300000    0.0600000   6.128906e-05  1.496315e-08
    354    373   2   0.50000     0.0300000    0.0600000   6.128906e-05  1.496315e-08
    354    374   2   0.50000     0.0300000    0.1700000   2.494471e-04  1.671101e-07
    343    346   2   0.50000     0.1700000   -0.1200000   1.015252e-03  1.866303e-06
    343    355   2   0.50000     0.1700000    0.0300000   2.494471e-04  1.671101e-07
    343    356   2   0.50000     0.1700000    0.0300000   2.494471e-04  1.671101e-07
    344    347   2   0.50000    -0.4000000   -0.1200000   8.411158e-04  8.795366e-07
    344    357   2   0.50000    -0.4000000    0.0600000   2.066619e-04  7.875431e-08
    344    358   2   0.50000    -0.4000000    0.0600000   2.066619e-04  7.875431e-08
    355    347   2   0.50000     0.0300000   -0.1200000   2.494471e-04  1.671101e-07
    355    357   2   0.50000     0.0300000    0.0600000   6.128906e-05  1.496315e-08
    355    358   2   0.50000     0.0300000    0.0600000   6.128906e-05  1.496315e-08
    356    347   2   0.50000     0.0300000   -0.1200000   2.494471e-04  1.671101e-07
    356    357   2   0.50000     0.0300000    0.0600000   6.128906e-05  1.496315e-08
    356    358   2   0.50000     0.0300000    0.0600000   6.128906e-05  1.496315e-08
    345    348   2   0.50000     0.1400000   -0.1200000   1.015252e-03  1.866303e-06
    345    359   2   0.50000     0.1400000    0.0600000   2.494471e-04  1.671101e-07
    345    360   2   0.50000     0.1400000    0.0600000   2.494471e-04  1.671101e-07
    357    348   2   0.50000     0.0600000   -0.1200000   2.494471e-04  1.671101e-07
    357    359   2   0.50000     0.0600000    0.0600000   6.128906e-05  1.496315e-08
    357    360   2   0.50000     0.0600000    0.0600000   6.128906e-05  1.496315e-08
    358    348   2   0.50000     0.0600000   -0.1200000   2.494471e-04  1.671101e-07
    358    359   2   0.50000     0.0600000    0.0600000   6.128906e-05  1.496315e-08
    358    360   2   0.50000     0.0600000    0.0600000   6.128906e-05  1.496315e-08
    346    349   2   0.50000    -0.1200000   -0.1200000   1.015252e-03  1.866303e-06
    346    361   2   0.50000    -0.1200000    0.0600000   2.494471e-04  1.671101e-07
    346    362   2   0.50000    -0.1200000    0.0600000   2.494471e-04  1.671101e-07
    359    349   2   0.50000     0.0600000   -0.1200000   2.494471e-04  1.671101e-07
    359    361   2   0.50000     0.0600000    0.0600000   6.128906e-05  1.496315e-08
    359    362   2   0.50000     0.0600000    0.0600000   6.128906e-05  1.496315e-08
    360    349   2   0.50000     0.0600000   -0.1200000   2.494471e-04  1.671101e-07
    360    361   2   0.50000     0.0600000    0.0600000   6.128906e-05  1.496315e-08
    360    362   2   0.50000     0.0600000    0.0600000   6.128906e-05  1.496315e-08
    347    350   2   0.50000    -0.1200000   -0.1200000   1.015252e-03  1.866303e-06
    347    363   2   0.50000    -0.1200000    0.0600000   2.494471e-04  1.671101e-07
    347    364   2   0.50000    -0.1200000    0.0600000   2.494471e-04  1.671101e-07
    361    350   2   0.50000     0.0600000   -0.1200000   2.494471e-04  1.671101e-07
    361    363   2   0.50000     0.0600000    0.0600000   6.128906e-05  1.496315e-08
    361    364   2   0.50000     0.0600000    0.0600000   6.128906e-05  1.496315e-08
    362    350   2   0.50000     0.0600000   -0.1200000   2.494471e-04  1.671101e-07
    362    363   2   0.50000     0.0600000    0.0600000   6.128906e-05  1.496315e-08
    362    364   2   0.50000     0.0600000    0.0600000   6.128906e-05  1.496315e-08
    348    351   2   0.50000    -0.1200000   -0.1200000   1.015252e-03  1.866303e-06
    348    365   2   0.50000    -0.1200000    0.0600000   2.494471e-04  1.671101e-07
    348    366   2   0.50000    -0.1200000    0.0600000   2.494471e-04  1.671101e-07
    363    351   2   0.50000     0.0600000   -0.1200000   2.494471e-04  1.671101e-07
    363    365   2   0.50000     0.0600000    0.0600000   6.128906e-05  1.496315e-08
    363    366   2   0.50000     0.0600000    0.0600000   6.128906e-05  1.496315e-08
    364    351   2   0.50000     0.0600000   -0.1200000   2.494471e-04  1.671101e-07
    364    365   2   0.50000     0.0600000    0.0600000   6.128906e-05  1.496315e-08
    364    366   2   0.50000     0.0600000    0.0600000   6.128906e-05  1.496315e-08
    349    352   2   0.50000    -0.1200000   -0.1800000   1.015252e-03  1.866303e-06
    349    367   2   0.50000    -0.1200000    0.0600000   2.494471e-04  1.671101e-07
    349    368   2   0.50000    -0.1200000    0.0600000   2.494471e-04  1.671101e-07
    365    352   2   0.50000     0.0600000   -0.1800000   2.494471e-04  1.671101e-07
    365    367   2   0.50000     0.0600000    0.0600000   6.128906e-05  1.496315e-08
    365    368   2   0.50000     0.0600000    0.0600000   6.128906e-05  1.496315e-08
    366    352   2   0.50000     0.0600000   -0.1800000   2.494471e-04  1.671101e-07
    366    367   2   0.50000     0.0600000    0.0600000   6.128906e-05  1.496315e-08
    366    368   2   0.50000     0.0600000    0.0600000   6.128906e-05  1.496315e-08
    350    369   2   0.50000    -0.1200000    0.0600000   2.494471e-04  1.671101e-07
    350    370   2   0.50000    -0.1200000    0.0600000   2.494471e-04  1.671101e-07
    350    371   2   0.50000    -0.1200000    0.0600000   2.494471e-04  1.671101e-07
    367    369   2   0.50000     0.0600000    0.0600000   6.128906e-05  1.496315e-08
    367    370   2   0.50000     0.0600000    0.0600000   6.128906e-05  1.496315e-08
    367    371   2   0.50000     0.0600000    0.0600000   6.128906e-05  1.496315e-08
    368    369   2   0.50000     0.0600000    0.0600000   6.128906e-05  1.496315e-08
    368    370   2   0.50000     0.0600000    0.0600000   6.128906e-05  1.496315e-08
    368    371   2   0.50000     0.0600000    0.0600000   6.128906e-05  1.496315e-08
    343    375   2   0.50000     0.1700000   -0.4000000   8.411158e-04  8.795366e-07
    343    384   2   0.50000     0.1700000   -0.1200000   1.015252e-03  1.866303e-06
    343    385   2   0.50000     0.1700000    0.0300000   2.494471e-04  1.671101e-07
    372    375   2   0.50000     0.0600000   -0.4000000   2.066619e-04  7.875431e-08
    372    384   2   0.50000     0.0600000   -0.1200000   2.494471e-04  1.671101e-07
    372    385   2   0.50000     0.0600000    0.0300000   6.128906e-05  1.496315e-08
    373    375   2   0.50000     0.0600000   -0.4000000   2.066619e-04  7.875431e-08
    373    384   2   0.50000     0.0600000   -0.1200000   2.494471e-04  1.671101e-07
    373    385   2   0.50000     0.0600000    0.0300000   6.128906e-05  1.496315e-08
    353    376   2   0.50000    -0.1200000    0.1400000   1.015252e-03  1.866303e-06
    384    376   2   0.50000    -0.1200000    0.1400000   1.015252e-03  1.866303e-06
    385    376   2   0.50000     0.0300000    0.1400000   2.494471e-04  1.671101e-07
    353    403   2   0.50000    -0.1200000    0.0600000   2.494471e-04  1.671101e-07
    353    404   2   0.50000    -0.1200000    0.0600000   2.494471e-04  1.671101e-07
    353    405   2   0.50000    -0.1200000    0.1700000   1.015252e-03  1.866303e-06
    375    403   2   0.50000    -0.4000000    0.0600000   2.066619e-04  7.875431e-08
    375    404   2   0.50000    -0.4000000    0.0600000   2.066619e-04  7.875431e-08
    375    405   2   0.50000    -0.4000000    0.1700000   8.411158e-04  8.795366e-07
    385    403   2   0.50000     0.0300000    0.0600000   6.128906e-05  1.496315e-08
    385    404   2   0.50000     0.0300000    0.0600000   6.128906e-05  1.496315e-08
    385    405   2   0.50000     0.0300000    0.1700000   2.494471e-04  1.671101e-07
    374    377   2   0.50000     0.1700000   -0.1200000   1.015252e-03  1.866303e-06
    374    386   2   0.50000     0.1700000    0.0300000   2.494471e-04  1.671101e-07
    374    387   2   0.50000     0.1700000    0.0300000   2.494471e-04  1.671101e-07
    375    378   2   0.50000    -0.4000000   -0.1200000   8.411158e-04  8.795366e-07
    375    388   2   0.50000    -0.4000000    0.0600000   2.066619e-04  7.875431e-08
    375    389   2   0.50000    -0.4000000    0.0600000   2.066619e-04  7.875431e-08
    386    378   2   0.50000     0.0300000   -0.1200000   2.494471e-04  1.671101e-07
    386    388   2   0.50000     0.0300000    0.0600000   6.128906e-05  1.496315e-08
    386    389   2   0.50000     0.0300000    0.0600000   6.128906e-05  1.496315e-08
    387    378   2   0.50000     0.0300000   -0.1200000   2.494471e-04  1.671101e-07
    387    388   2   0.50000     0.0300000    0.0600000   6.128906e-05  1.496315e-08
    387    389   2   0.50000     0.0300000    0.0600000   6.128906e-05  1.496315e-08
    376    379   2   0.50000     0.1400000   -0.1200000   1.015252e-03  1.866303e-06
    376    390   2   0.50000     0.1400000    0.0600000   2.494471e-04  1.671101e-07
    376    391   2   0.50000     0.1400000    0.0600000   2.494471e-04  1.671101e-07
    388    379   2   0.50000     0.0600000   -0.1200000   2.494471e-04  1.671101e-07
    388    390   2   0.50000     0.0600000    0.0600000   6.128906e-05  1.496315e-08
    388    391   2   0.50000     0.0600000    0.0600000   6.128906e-05  1.496315e-08
    389    379   2   0.50000     0.0600000   -0.1200000   2.494471e-04  1.671101e-07
    389    390   2   0.50000     0.0600000    0.0600000   6.128906e-05  1.496315e-08
    389    391   2   0.50000     0.0600000    0.0600000   6.128906e-05  1.496315e-08
    377    380   2   0.50000    -0.1200000   -0.1200000   1.015252e-03  1.866303e-06
    377    392   2   0.50000    -0.1200000    0.0600000   2.494471e-04  1.671101e-07
    377    393   2   0.50000    -0.1200000    0.0600000   2.494471e-04  1.671101e-07
    390    380   2   0.50000     0.0600000   -0.1200000   2.494471e-04  1.671101e-07
    390    392   2   0.50000     0.0600000    0.0600000   6.128906e-05  1.496315e-08
    390    393   2   0.50000     0.0600000    0.0600000   6.128906e-05  1.496315e-08
    391    380   2   0.50000     0.0600000   -0.1200000   2.494471e-04  1.671101e-07
    391    392   2   0.50000     0.0600000    0.0600000   6.128906e-05  1.496315e-08
    391    393   2   0.50000     0.0600000    0.0600000   6.128906e-05  1.496315e-08
    378    381   2   0.50000    -0.1200000   -0.1200000   1.015252e-03  1.866303e-06
    378    394   2   0.50000    -0.1200000    0.0600000   2.494471e-04  1.671101e-07
    378    395   2   0.50000    -0.1200000    0.0600000   2.494471e-04  1.671101e-07
    392    381   2   0.50000     0.0600000   -0.1200000   2.494471e-04  1.671101e-07
    392    394   2   0.50000     0.0600000    0.0600000   6.128906e-05  1.496315e-08
    392    395   2   0.50000     0.0600000    0.0600000   6.128906e-05  1.496315e-08
    393    381   2   0.50000     0.0600000   -0.1200000   2.494471e-04  1.671101e-07
    393    394   2   0.50000     0.0600000    0.0600000   6.128906e-05  1.496315e-08
    393    395   2   0.50000     0.0600000    0.0600000   6.128906e-05  1.496315e-08
    379    382   2   0.50000    -0.1200000   -0.1200000   1.015252e-03  1.866303e-06
    379    396   2   0.50000    -0.1200000    0.0600000   2.494471e-04  1.671101e-07
    379    397   2   0.50000    -0.1200000    0.0600000   2.494471e-04  1.671101e-07
    394    382   2   0.50000     0.0600000   -0.1200000   2.494471e-04  1.671101e-07
    394    396   2   0.50000     0.0600000    0.0600000   6.128906e-05  1.496315e-08
    394    397   2   0.50000     0.0600000    0.0600000   6.128906e-05  1.496315e-08
    395    382   2   0.50000     0.0600000   -0.1200000   2.494471e-04  1.671101e-07
    395    396   2   0.50000     0.0600000    0.0600000   6.128906e-05  1.496315e-08
    395    397   2   0.50000     0.0600000    0.0600000   6.128906e-05  1.496315e-08
    380    383   2   0.50000    -0.1200000   -0.1800000   1.015252e-03  1.866303e-06
    380    398   2   0.50000    -0.1200000    0.0600000   2.494471e-04  1.671101e-07
    380    399   2   0.50000    -0.1200000    0.0600000   2.494471e-04  1.671101e-07
    396    383   2   0.50000     0.0600000   -0.1800000   2.494471e-04  1.671101e-07
    396    398   2   0.50000     0.0600000    0.0600000   6.128906e-05  1.496315e-08
    396    399   2   0.50000     0.0600000    0.0600000   6.128906e-05  1.496315e-08
    397    383   2   0.50000     0.0600000   -0.1800000   2.494471e-04  1.671101e-07
    397    398   2   0.50000     0.0600000    0.0600000   6.128906e-05  1.496315e-08
    397    399   2   0.50000     0.0600000    0.0600000   6.128906e-05  1.496315e-08
    381    400   2   0.50000    -0.1200000    0.0600000   2.494471e-04  1.671101e-07
    381    401   2   0.50000    -0.1200000    0.0600000   2.494471e-04  1.671101e-07
    381    402   2   0.50000    -0.1200000    0.0600000   2.494471e-04  1.671101e-07
    398    400   2   0.50000     0.0600000    0.0600000   6.128906e-05  1.496315e-08
    398    401   2   0.50000     0.0600000    0.0600000   6.128906e-05  1.496315e-08
    398    402   2   0.50000     0.0600000    0.0600000   6.128906e-05  1.496315e-08
    399    400   2   0.50000     0.0600000    0.0600000   6.128906e-05  1.496315e-08
    399    401   2   0.50000     0.0600000    0.0600000   6.128906e-05  1.496315e-08
    399    402   2   0.50000     0.0600000    0.0600000   6.128906e-05  1.496315e-08
    374    406   2   0.50000     0.1700000   -0.4000000   8.411158e-04  8.795366e-07
    374    415   2   0.50000     0.1700000   -0.1200000   1.015252e-03  1.866303e-06
    374    416   2   0.50000     0.1700000    0.0300000   2.494471e-04  1.671101e-07
    403    406   2   0.50000     0.0600000   -0.4000000   2.066619e-04  7.875431e-08
    403    415   2   0.50000     0.0600000   -0.1200000   2.494471e-04  1.671101e-07
    403    416   2   0.50000     0.0600000    0.0300000   6.128906e-05  1.496315e-08
    404    406   2   0.50000     0.0600000   -0.4000000   2.066619e-04  7.875431e-08
    404    415   2   0.50000     0.0600000   -0.1200000   2.494471e-04  1.671101e-07
    404    416   2   0.50000     0.0600000    0.0300000   6.128906e-05  1.496315e-08
    384    407   2   0.50000    -0.1200000    0.1400000   1.015252e-03  1.866303e-06
    415    407   2   0.50000    -0.1200000    0.1400000   1.015252e-03  1.866303e-06
    416    407   2   0.50000     0.0300000    0.1400000   2.494471e-04  1.671101e-07
    384    434   2   0.50000    -0.1200000    0.0600000   2.494471e-04  1.671101e-07
    384    435   2   0.50000    -0.1200000    0.0600000   2.494471e-04  1.671101e-07
    384    436   2   0.50000    -0.1200000    0.1700000   1.015252e-03  1.866303e-06
    406    434   2   0.50000    -0.4000000    0.0600000   2.066619e-04  7.875431e-08
    406    435   2   0.50000    -0.4000000    0.0600000   2.066619e-04  7.875431e-08
    406    436   2   0.50000    -0.4000000    0.1700000   8.411158e-04  8.795366e-07
    416    434   2   0.50000     0.0300000    0.0600000   6.128906e-05  1.496315e-08
    416    435   2   0.50000     0.0300000    0.0600000   6.128906e-05  1.496315e-08
    416    436   2   0.50000     0.0300000    0.1700000   2.494471e-04  1.671101e-07
    405    408   2   0.50000     0.1700000   -0.1200000   1.015252e-03  1.866303e-06
    405    417   2   0.50000     0.1700000    0.0300000   2.494471e-04  1.671101e-07
    405    418   2   0.50000     0.1700000    0.0300000   2.494471e-04  1.671101e-07
    406    409   2   0.50000    -0.4000000   -0.1200000   8.411158e-04  8.795366e-07
    406    419   2   0.50000    -0.4000000    0.0600000   2.066619e-04  7.875431e-08
    406    420   2   0.50000    -0.4000000    0.0600000   2.066619e-04  7.875431e-08
    417    409   2   0.50000     0.0300000   -0.1200000   2.494471e-04  1.671101e-07
    417    419   2   0.50000     0.0300000    0.0600000   6.128906e-05  1.496315e-08
    417    420   2   0.50000     0.0300000    0.0600000   6.128906e-05  1.496315e-08
    418    409   2   0.50000     0.0300000   -0.1200000   2.494471e-04  1.671101e-07
    418    419   2   0.50000     0.0300000    0.0600000   6.128906e-05  1.496315e-08
    418    420   2   0.50000     0.0300000    0.0600000   6.128906e-05  1.496315e-08
    407    410   2   0.50000     0.1400000   -0.1200000   1.015252e-03  1.866303e-06
    407    421   2   0.50000     0.1400000    0.0600000   2.494471e-04  1.671101e-07
    407    422   2   0.50000     0.1400000    0.0600000   2.494471e-04  1.671101e-07
    419    410   2   0.50000     0.0600000   -0.1200000   2.494471e-04  1.671101e-07
    419    421   2   0.50000     0.0600000    0.0600000   6.128906e-05  1.496315e-08
    419    422   2   0.50000     0.0600000    0.0600000   6.128906e-05  1.496315e-08
    420    410   2   0.50000     0.0600000   -0.1200000   2.494471e-04  1.671101e-07
    420    421   2   0.50000     0.0600000    0.0600000   6.128906e-05  1.496315e-08
    420    422   2   0.50000     0.0600000    0.0600000   6.128906e-05  1.496315e-08
    408    411   2   0.50000    -0.1200000   -0.1200000   1.015252e-03  1.866303e-06
    408    423   2   0.50000    -0.1200000    0.0600000   2.494471e-04  1.671101e-07
    408    424   2   0.50000    -0.1200000    0.0600000   2.494471e-04  1.671101e-07
    421    411   2   0.50000     0.0600000   -0.1200000   2.494471e-04  1.671101e-07
    421    423   2   0.50000     0.0600000    0.0600000   6.128906e-05  1.496315e-08
    421    424   2   0.50000     0.0600000    0.0600000   6.128906e-05  1.496315e-08
    422    411   2   0.50000     0.0600000   -0.1200000   2.494471e-04  1.671101e-07
    422    423   2   0.50000     0.0600000    0.0600000   6.128906e-05  1.496315e-08
    422    424   2   0.50000     0.0600000    0.0600000   6.128906e-05  1.496315e-08
    409    412   2   0.50000    -0.1200000   -0.1200000   1.015252e-03  1.866303e-06
    409    425   2   0.50000    -0.1200000    0.0600000   2.494471e-04  1.671101e-07
    409    426   2   0.50000    -0.1200000    0.0600000   2.494471e-04  1.671101e-07
    423    412   2   0.50000     0.0600000   -0.1200000   2.494471e-04  1.671101e-07
    423    425   2   0.50000     0.0600000    0.0600000   6.128906e-05  1.496315e-08
    423    426   2   0.50000     0.0600000    0.0600000   6.128906e-05  1.496315e-08
    424    412   2   0.50000     0.0600000   -0.1200000   2.494471e-04  1.671101e-07
    424    425   2   0.50000     0.0600000    0.0600000   6.128906e-05  1.496315e-08
    424    426   2   0.50000     0.0600000    0.0600000   6.128906e-05  1.496315e-08
    410    413   2   0.50000    -0.1200000   -0.1200000   1.015252e-03  1.866303e-06
    410    427   2   0.50000    -0.1200000    0.0600000   2.494471e-04  1.671101e-07
    410    428   2   0.50000    -0.1200000    0.0600000   2.494471e-04  1.671101e-07
    425    413   2   0.50000     0.0600000   -0.1200000   2.494471e-04  1.671101e-07
    425    427   2   0.50000     0.0600000    0.0600000   6.128906e-05  1.496315e-08
    425    428   2   0.50000     0.0600000    0.0600000   6.128906e-05  1.496315e-08
    426    413   2   0.50000     0.0600000   -0.1200000   2.494471e-04  1.671101e-07
    426    427   2   0.50000     0.0600000    0.0600000   6.128906e-05  1.496315e-08
    426    428   2   0.50000     0.0600000    0.0600000   6.128906e-05  1.496315e-08
    411    414   2   0.50000    -0.1200000   -0.1800000   1.015252e-03  1.866303e-06
    411    429   2   0.50000    -0.1200000    0.0600000   2.494471e-04  1.671101e-07
    411    430   2   0.50000    -0.1200000    0.0600000   2.494471e-04  1.671101e-07
    427    414   2   0.50000     0.0600000   -0.1800000   2.494471e-04  1.671101e-07
    427    429   2   0.50000     0.0600000    0.0600000   6.128906e-05  1.496315e-08
    427    430   2   0.50000     0.0600000    0.0600000   6.128906e-05  1.496315e-08
    428    414   2   0.50000     0.0600000   -0.1800000   2.494471e-04  1.671101e-07
    428    429   2   0.50000     0.0600000    0.0600000   6.128906e-05  1.496315e-08
    428    430   2   0.50000     0.0600000    0.0600000   6.128906e-05  1.496315e-08
    412    431   2   0.50000    -0.1200000    0.0600000   2.494471e-04  1.671101e-07
    412    432   2   0.50000    -0.1200000    0.0600000   2.494471e-04  1.671101e-07
    412    433   2   0.50000    -0.1200000    0.0600000   2.494471e-04  1.671101e-07
    429    431   2   0.50000     0.0600000    0.0600000   6.128906e-05  1.496315e-08
    429    432   2   0.50000     0.0600000    0.0600000   6.128906e-05  1.496315e-08
    429    433   2   0.50000     0.0600000    0.0600000   6.128906e-05  1.496315e-08
    430    431   2   0.50000     0.0600000    0.0600000   6.128906e-05  1.496315e-08
    430    432   2   0.50000     0.0600000    0.0600000   6.128906e-05  1.496315e-08
    430    433   2   0.50000     0.0600000    0.0600000   6.128906e-05  1.496315e-08
    405    437   2   0.50000     0.1700000   -0.4000000   8.411158e-04  8.795366e-07
    405    446   2   0.50000     0.1700000   -0.1200000   1.015252e-03  1.866303e-06
    405    447   2   0.50000     0.1700000    0.0300000   2.494471e-04  1.671101e-07
    434    437   2   0.50000     0.0600000   -0.4000000   2.066619e-04  7.875431e-08
    434    446   2   0.50000     0.0600000   -0.1200000   2.494471e-04  1.671101e-07
    434    447   2   0.50000     0.0600000    0.0300000   6.128906e-05  1.496315e-08
    435    437   2   0.50000     0.0600000   -0.4000000   2.066619e-04  7.875431e-08
    435    446   2   0.50000     0.0600000   -0.1200000   2.494471e-04  1.671101e-07
    435    447   2   0.50000     0.0600000    0.0300000   6.128906e-05  1.496315e-08
    415    438   2   0.50000    -0.1200000    0.1400000   1.015252e-03  1.866303e-06
    446    438   2   0.50000    -0.1200000    0.1400000   1.015252e-03  1.866303e-06
    447    438   2   0.50000     0.0300000    0.1400000   2.494471e-04  1.671101e-07
    415    465   2   0.50000    -0.1200000    0.0600000   2.494471e-04  1.671101e-07
    415    466   2   0.50000    -0.1200000    0.0600000   2.494471e-04  1.671101e-07
    415    467   2   0.50000    -0.1200000    0.1700000   1.015252e-03  1.866303e-06
    437    465   2   0.50000    -0.4000000    0.0600000   2.066619e-04  7.875431e-08
    437    466   2   0.50000    -0.4000000    0.0600000   2.066619e-04  7.875431e-08
    437    467   2   0.50000    -0.4000000    0.1700000   8.411158e-04  8.795366e-07
    447    465   2   0.50000     0.0300000    0.0600000   6.128906e-05  1.496315e-08
    447    466   2   0.50000     0.0300000    0.0600000   6.128906e-05  1.496315e-08
    447    467   2   0.50000     0.0300000    0.1700000   2.494471e-04  1.671101e-07
    436    439   2   0.50000     0.1700000   -0.1200000   1.015252e-03  1.866303e-06
    436    448   2   0.50000     0.1700000    0.0300000   2.494471e-04  1.671101e-07
    436    449   2   0.50000     0.1700000    0.0300000   2.494471e-04  1.671101e-07
    437    440   2   0.50000    -0.4000000   -0.1200000   8.411158e-04  8.795366e-07
    437    450   2   0.50000    -0.4000000    0.0600000   2.066619e-04  7.875431e-08
    437    451   2   0.50000    -0.4000000    0.0600000   2.066619e-04  7.875431e-08
    448    440   2   0.50000     0.0300000   -0.1200000   2.494471e-04  1.671101e-07
    448    450   2   0.50000     0.0300000    0.0600000   6.128906e-05  1.496315e-08
    448    451   2   0.50000     0.0300000    0.0600000   6.128906e-05  1.496315e-08
    449    440   2   0.50000     0.0300000   -0.1200000   2.494471e-04  1.671101e-07
    449    450   2   0.50000     0.0300000    0.0600000   6.128906e-05  1.496315e-08
    449    451   2   0.50000     0.0300000    0.0600000   6.128906e-05  1.496315e-08
    438    441   2   0.50000     0.1400000   -0.1200000   1.015252e-03  1.866303e-06
    438    452   2   0.50000     0.1400000    0.0600000   2.494471e-04  1.671101e-07
    438    453   2   0.50000     0.1400000    0.0600000   2.494471e-04  1.671101e-07
    450    441   2   0.50000     0.0600000   -0.1200000   2.494471e-04  1.671101e-07
    450    452   2   0.50000     0.0600000    0.0600000   6.128906e-05  1.496315e-08
    450    453   2   0.50000     0.0600000    0.0600000   6.128906e-05  1.496315e-08
    451    441   2   0.50000     0.0600000   -0.1200000   2.494471e-04  1.671101e-07
    451    452   2   0.50000     0.0600000    0.0600000   6.128906e-05  1.496315e-08
    451    453   2   0.50000     0.0600000    0.0600000   6.128906e-05  1.496315e-08
    439    442   2   0.50000    -0.1200000   -0.1200000   1.015252e-03  1.866303e-06
    439    454   2   0.50000    -0.1200000    0.0600000   2.494471e-04  1.671101e-07
    439    455   2   0.50000    -0.1200000    0.0600000   2.494471e-04  1.671101e-07
    452    442   2   0.50000     0.0600000   -0.1200000   2.494471e-04  1.671101e-07
    452    454   2   0.50000     0.0600000    0.0600000   6.128906e-05  1.496315e-08
    452    455   2   0.50000     0.0600000    0.0600000   6.128906e-05  1.496315e-08
    453    442   2   0.50000     0.0600000   -0.1200000   2.494471e-04  1.671101e-07
    453    454   2   0.50000     0.0600000    0.0600000   6.128906e-05  1.496315e-08
    453    455   2   0.50000     0.0600000    0.0600000   6.128906e-05  1.496315e-08
    440    443   2   0.50000    -0.1200000   -0.1200000   1.015252e-03  1.866303e-06
    440    456   2   0.50000    -0.1200000    0.0600000   2.494471e-04  1.671101e-07
    440    457   2   0.50000    -0.1200000    0.0600000   2.494471e-04  1.671101e-07
    454    443   2   0.50000     0.0600000   -0.1200000   2.494471e-04  1.671101e-07
    454    456   2   0.50000     0.0600000    0.0600000   6.128906e-05  1.496315e-08
    454    457   2   0.50000     0.0600000    0.0600000   6.128906e-05  1.496315e-08
    455    443   2   0.50000     0.0600000   -0.1200000   2.494471e-04  1.671101e-07
    455    456   2   0.50000     0.0600000    0.0600000   6.128906e-05  1.496315e-08
    455    457   2   0.50000     0.0600000    0.0600000   6.128906e-05  1.496315e-08
    441    444   2   0.50000    -0.1200000   -0.1200000   1.015252e-03  1.866303e-06
    441    458   2   0.50000    -0.1200000    0.0600000   2.494471e-04  1.671101e-07
    441    459   2   0.50000    -0.1200000    0.0600000   2.494471e-04  1.671101e-07
    456    444   2   0.50000     0.0600000   -0.1200000   2.494471e-04  1.671101e-07
    456    458   2   0.50000     0.0600000    0.0600000   6.128906e-05  1.496315e-08
    456    459   2   0.50000     0.0600000    0.0600000   6.128906e-05  1.496315e-08
    457    444   2   0.50000     0.0600000   -0.1200000   2.494471e-04  1.671101e-07
    457    458   2   0.50000     0.0600000    0.0600000   6.128906e-05  1.496315e-08
    457    459   2   0.50000     0.0600000    0.0600000   6.128906e-05  1.496315e-08
    442    445   2   0.50000    -0.1200000   -0.1800000   1.015252e-03  1.866303e-06
    442    460   2   0.50000    -0.1200000    0.0600000   2.494471e-04  1.671101e-07
    442    461   2   0.50000    -0.1200000    0.0600000   2.494471e-04  1.671101e-07
    458    445   2   0.50000     0.0600000   -0.1800000   2.494471e-04  1.671101e-07
    458    460   2   0.50000     0.0600000    0.0600000   6.128906e-05  1.496315e-08
    458    461   2   0.50000     0.0600000    0.0600000   6.128906e-05  1.496315e-08
    459    445   2   0.50000     0.0600000   -0.1800000   2.494471e-04  1.671101e-07
    459    460   2   0.50000     0.0600000    0.0600000   6.128906e-05  1.496315e-08
    459    461   2   0.50000     0.0600000    0.0600000   6.128906e-05  1.496315e-08
    443    462   2   0.50000    -0.1200000    0.0600000   2.494471e-04  1.671101e-07
    443    463   2   0.50000    -0.1200000    0.0600000   2.494471e-04  1.671101e-07
    443    464   2   0.50000    -0.1200000    0.0600000   2.494471e-04  1.671101e-07
    460    462   2   0.50000     0.0600000    0.0600000   6.128906e-05  1.496315e-08
    460    463   2   0.50000     0.0600000    0.0600000   6.128906e-05  1.496315e-08
    460    464   2   0.50000     0.0600000    0.0600000   6.128906e-05  1.496315e-08
    461    462   2   0.50000     0.0600000    0.0600000   6.128906e-05  1.496315e-08
    461    463   2   0.50000     0.0600000    0.0600000   6.128906e-05  1.496315e-08
    461    464   2   0.50000     0.0600000    0.0600000   6.128906e-05  1.496315e-08
    436    468   2   0.50000     0.1700000   -0.4000000   8.411158e-04  8.795366e-07
    436    477   2   0.50000     0.1700000   -0.1200000   1.015252e-03  1.866303e-06
    436    478   2   0.50000     0.1700000    0.0300000   2.494471e-04  1.671101e-07
    465    468   2   0.50000     0.0600000   -0.4000000   2.066619e-04  7.875431e-08
    465    477   2   0.50000     0.0600000   -0.1200000   2.494471e-04  1.671101e-07
    465    478   2   0.50000     0.0600000    0.0300000   6.128906e-05  1.496315e-08
    466    468   2   0.50000     0.0600000   -0.4000000   2.066619e-04  7.875431e-08
    466    477   2   0.50000     0.0600000   -0.1200000   2.494471e-04  1.671101e-07
    466    478   2   0.50000     0.0600000    0.0300000   6.128906e-05  1.496315e-08
    446    469   2   0.50000    -0.1200000    0.1400000   1.015252e-03  1.866303e-06
    477    469   2   0.50000    -0.1200000    0.1400000   1.015252e-03  1.866303e-06
    478    469   2   0.50000     0.0300000    0.1400000   2.494471e-04  1.671101e-07
    446    496   2   0.50000    -0.1200000    0.0600000   2.494471e-04  1.671101e-07
    446    497   2   0.50000    -0.1200000    0.0600000   2.494471e-04  1.671101e-07
    446    498   2   0.50000    -0.1200000    0.1700000   1.015252e-03  1.866303e-06
    468    496   2   0.50000    -0.4000000    0.0600000   2.066619e-04  7.875431e-08
    468    497   2   0.50000    -0.4000000    0.0600000   2.066619e-04  7.875431e-08
    468    498   2   0.50000    -0.4000000    0.1700000   8.411158e-04  8.795366e-07
    478    496   2   0.50000     0.0300000    0.0600000   6.128906e-05  1.496315e-08
    478    497   2   0.50000     0.0300000    0.0600000   6.128906e-05  1.496315e-08
    478    498   2   0.50000     0.0300000    0.1700000   2.494471e-04  1.671101e-07
    467    470   2   0.50000     0.1700000   -0.1200000   1.015252e-03  1.866303e-06
    467    479   2   0.50000     0.1700000    0.0300000   2.494471e-04  1.671101e-07
    467    480   2   0.50000     0.1700000    0.0300000   2.494471e-04  1.671101e-07
    468    471   2   0.50000    -0.4000000   -0.1200000   8.411158e-04  8.795366e-07
    468    481   2   0.50000    -0.4000000    0.0600000   2.066619e-04  7.875431e-08
    468    482   2   0.50000    -0.4000000    0.0600000   2.066619e-04  7.875431e-08
    479    471   2   0.50000     0.0300000   -0.1200000   2.494471e-04  1.671101e-07
    479    481   2   0.50000     0.0300000    0.0600000   6.128906e-05  1.496315e-08
    479    482   2   0.50000     0.0300000    0.0600000   6.128906e-05  1.496315e-08
    480    471   2   0.50000     0.0300000   -0.1200000   2.494471e-04  1.671101e-07
    480    481   2   0.50000     0.0300000    0.0600000   6.128906e-05  1.496315e-08
    480    482   2   0.50000     0.0300000    0.0600000   6.128906e-05  1.496315e-08
    469    472   2   0.50000     0.1400000   -0.1200000   1.015252e-03  1.866303e-06
    469    483   2   0.50000     0.1400000    0.0600000   2.494471e-04  1.671101e-07
    469    484   2   0.50000     0.1400000    0.0600000   2.494471e-04  1.671101e-07
    481    472   2   0.50000     0.0600000   -0.1200000   2.494471e-04  1.671101e-07
    481    483   2   0.50000     0.0600000    0.0600000   6.128906e-05  1.496315e-08
    481    484   2   0.50000     0.0600000    0.0600000   6.128906e-05  1.496315e-08
    482    472   2   0.50000     0.0600000   -0.1200000   2.494471e-04  1.671101e-07
    482    483   2   0.50000     0.0600000    0.0600000   6.128906e-05  1.496315e-08
    482    484   2   0.50000     0.0600000    0.0600000   6.128906e-05  1.496315e-08
    470    473   2   0.50000    -0.1200000   -0.1200000   1.015252e-03  1.866303e-06
    470    485   2   0.50000    -0.1200000    0.0600000   2.494471e-04  1.671101e-07
    470    486   2   0.50000    -0.1200000    0.0600000   2.494471e-04  1.671101e-07
    483    473   2   0.50000     0.0600000   -0.1200000   2.494471e-04  1.671101e-07
    483    485   2   0.50000     0.0600000    0.0600000   6.128906e-05  1.496315e-08
    483    486   2   0.50000     0.0600000    0.0600000   6.128906e-05  1.496315e-08
    484    473   2   0.50000     0.0600000   -0.1200000   2.494471e-04  1.671101e-07
    484    485   2   0.50000     0.0600000    0.0600000   6.128906e-05  1.496315e-08
    484    486   2   0.50000     0.0600000    0.0600000   6.128906e-05  1.496315e-08
    471    474   2   0.50000    -0.1200000   -0.1200000   1.015252e-03  1.866303e-06
    471    487   2   0.50000    -0.1200000    0.0600000   2.494471e-04  1.671101e-07
    471    488   2   0.50000    -0.1200000    0.0600000   2.494471e-04  1.671101e-07
    485    474   2   0.50000     0.0600000   -0.1200000   2.494471e-04  1.671101e-07
    485    487   2   0.50000     0.0600000    0.0600000   6.128906e-05  1.496315e-08
    485    488   2   0.50000     0.0600000    0.0600000   6.128906e-05  1.496315e-08
    486    474   2   0.50000     0.0600000   -0.1200000   2.494471e-04  1.671101e-07
    486    487   2   0.50000     0.0600000    0.0600000   6.128906e-05  1.496315e-08
    486    488   2   0.50000     0.0600000    0.0600000   6.128906e-05  1.496315e-08
    472    475   2   0.50000    -0.1200000   -0.1200000   1.015252e-03  1.866303e-06
    472    489   2   0.50000    -0.1200000    0.0600000   2.494471e-04  1.671101e-07
    472    490   2   0.50000    -0.1200000    0.0600000   2.494471e-04  1.671101e-07
    487    475   2   0.50000     0.0600000   -0.1200000   2.494471e-04  1.671101e-07
    487    489   2   0.50000     0.0600000    0.0600000   6.128906e-05  1.496315e-08
    487    490   2   0.50000     0.0600000    0.0600000   6.128906e-05  1.496315e-08
    488    475   2   0.50000     0.0600000   -0.1200000   2.494471e-04  1.671101e-07
    488    489   2   0.50000     0.0600000    0.0600000   6.128906e-05  1.496315e-08
    488    490   2   0.50000     0.0600000    0.0600000   6.128906e-05  1.496315e-08
    473    476   2   0.50000    -0.1200000   -0.1800000   1.015252e-03  1.866303e-06
    473    491   2   0.50000    -0.1200000    0.0600000   2.494471e-04  1.671101e-07
    473    492   2   0.50000    -0.1200000    0.0600000   2.494471e-04  1.671101e-07
    489    476   2   0.50000     0.0600000   -0.1800000   2.494471e-04  1.671101e-07
    489    491   2   0.50000     0.0600000    0.0600000   6.128906e-05  1.496315e-08
    489    492   2   0.50000     0.0600000    0.0600000   6.128906e-05  1.496315e-08
    490    476   2   0.50000     0.0600000   -0.1800000   2.494471e-04  1.671101e-07
    490    491   2   0.50000     0.0600000    0.0600000   6.128906e-05  1.496315e-08
    490    492   2   0.50000     0.0600000    0.0600000   6.128906e-05  1.496315e-08
    474    493   2   0.50000    -0.1200000    0.0600000   2.494471e-04  1.671101e-07
    474    494   2   0.50000    -0.1200000    0.0600000   2.494471e-04  1.671101e-07
    474    495   2   0.50000    -0.1200000    0.0600000   2.494471e-04  1.671101e-07
    491    493   2   0.50000     0.0600000    0.0600000   6.128906e-05  1.496315e-08
    491    494   2   0.50000     0.0600000    0.0600000   6.128906e-05  1.496315e-08
    491    495   2   0.50000     0.0600000    0.0600000   6.128906e-05  1.496315e-08
    492    493   2   0.50000     0.0600000    0.0600000   6.128906e-05  1.496315e-08
    492    494   2   0.50000     0.0600000    0.0600000   6.128906e-05  1.496315e-08
    492    495   2   0.50000     0.0600000    0.0600000   6.128906e-05  1.496315e-08
    467    499   2   0.50000     0.1700000   -0.4000000   8.411158e-04  8.795366e-07
    467    508   2   0.50000     0.1700000   -0.1200000   1.015252e-03  1.866303e-06
    467    509   2   0.50000     0.1700000    0.0300000   2.494471e-04  1.671101e-07
    496    499   2   0.50000     0.0600000   -0.4000000   2.066619e-04  7.875431e-08
    496    508   2   0.50000     0.0600000   -0.1200000   2.494471e-04  1.671101e-07
    496    509   2   0.50000     0.0600000    0.0300000   6.128906e-05  1.496315e-08
    497    499   2   0.50000     0.0600000   -0.4000000   2.066619e-04  7.875431e-08
    497    508   2   0.50000     0.0600000   -0.1200000   2.494471e-04  1.671101e-07
    497    509   2   0.50000     0.0600000    0.0300000   6.128906e-05  1.496315e-08
    477    500   2   0.50000    -0.1200000    0.1400000   1.015252e-03  1.866303e-06
    508    500   2   0.50000    -0.1200000    0.1400000   1.015252e-03  1.866303e-06
    509    500   2   0.50000     0.0300000    0.1400000   2.494471e-04  1.671101e-07
    477    527   2   0.50000    -0.1200000    0.0600000   2.494471e-04  1.671101e-07
    477    528   2   0.50000    -0.1200000    0.0600000   2.494471e-04  1.671101e-07
    477    529   2   0.50000    -0.1200000    0.1700000   1.015252e-03  1.866303e-06
    499    527   2   0.50000    -0.4000000    0.0600000   2.066619e-04  7.875431e-08
    499    528   2   0.50000    -0.4000000    0.0600000   2.066619e-04  7.875431e-08
    499    529   2   0.50000    -0.4000000    0.1700000   8.411158e-04  8.795366e-07
    509    527   2   0.50000     0.0300000    0.0600000   6.128906e-05  1.496315e-08
    509    528   2   0.50000     0.0300000    0.0600000   6.128906e-05  1.496315e-08
    509    529   2   0.50000     0.0300000    0.1700000   2.494471e-04  1.671101e-07
    498    501   2   0.50000     0.1700000   -0.1200000   1.015252e-03  1.866303e-06
    498    510   2   0.50000     0.1700000    0.0300000   2.494471e-04  1.671101e-07
    498    511   2   0.50000     0.1700000    0.0300000   2.494471e-04  1.671101e-07
    499    502   2   0.50000    -0.4000000   -0.1200000   8.411158e-04  8.795366e-07
    499    512   2   0.50000    -0.4000000    0.0600000   2.066619e-04  7.875431e-08
    499    513   2   0.50000    -0.4000000    0.0600000   2.066619e-04  7.875431e-08
    510    502   2   0.50000     0.0300000   -0.1200000   2.494471e-04  1.671101e-07
    510    512   2   0.50000     0.0300000    0.0600000   6.128906e-05  1.496315e-08
    510    513   2   0.50000     0.0300000    0.0600000   6.128906e-05  1.496315e-08
    511    502   2   0.50000     0.0300000   -0.1200000   2.494471e-04  1.671101e-07
    511    512   2   0.50000     0.0300000    0.0600000   6.128906e-05  1.496315e-08
    511    513   2   0.50000     0.0300000    0.0600000   6.128906e-05  1.496315e-08
    500    503   2   0.50000     0.1400000   -0.1200000   1.015252e-03  1.866303e-06
    500    514   2   0.50000     0.1400000    0.0600000   2.494471e-04  1.671101e-07
    500    515   2   0.50000     0.1400000    0.0600000   2.494471e-04  1.671101e-07
    512    503   2   0.50000     0.0600000   -0.1200000   2.494471e-04  1.671101e-07
    512    514   2   0.50000     0.0600000    0.0600000   6.128906e-05  1.496315e-08
    512    515   2   0.50000     0.0600000    0.0600000   6.128906e-05  1.496315e-08
    513    503   2   0.50000     0.0600000   -0.1200000   2.494471e-04  1.671101e-07
    513    514   2   0.50000     0.0600000    0.0600000   6.128906e-05  1.496315e-08
    513    515   2   0.50000     0.0600000    0.0600000   6.128906e-05  1.496315e-08
    501    504   2   0.50000    -0.1200000   -0.1200000   1.015252e-03  1.866303e-06
    501    516   2   0.50000    -0.1200000    0.0600000   2.494471e-04  1.671101e-07
    501    517   2   0.50000    -0.1200000    0.0600000   2.494471e-04  1.671101e-07
    514    504   2   0.50000     0.0600000   -0.1200000   2.494471e-04  1.671101e-07
    514    516   2   0.50000     0.0600000    0.0600000   6.128906e-05  1.496315e-08
    514    517   2   0.50000     0.0600000    0.0600000   6.128906e-05  1.496315e-08
    515    504   2   0.50000     0.0600000   -0.1200000   2.494471e-04  1.671101e-07
    515    516   2   0.50000     0.0600000    0.0600000   6.128906e-05  1.496315e-08
    515    517   2   0.50000     0.0600000    0.0600000   6.128906e-05  1.496315e-08
    502    505   2   0.50000    -0.1200000   -0.1200000   1.015252e-03  1.866303e-06
    502    518   2   0.50000    -0.1200000    0.0600000   2.494471e-04  1.671101e-07
    502    519   2   0.50000    -0.1200000    0.0600000   2.494471e-04  1.671101e-07
    516    505   2   0.50000     0.0600000   -0.1200000   2.494471e-04  1.671101e-07
    516    518   2   0.50000     0.0600000    0.0600000   6.128906e-05  1.496315e-08
    516    519   2   0.50000     0.0600000    0.0600000   6.128906e-05  1.496315e-08
    517    505   2   0.50000     0.0600000   -0.1200000   2.494471e-04  1.671101e-07
    517    518   2   0.50000     0.0600000    0.0600000   6.128906e-05  1.496315e-08
    517    519   2   0.50000     0.0600000    0.0600000   6.128906e-05  1.496315e-08
    503    506   2   0.50000    -0.1200000   -0.1200000   1.015252e-03  1.866303e-06
    503    520   2   0.50000    -0.1200000    0.0600000   2.494471e-04  1.671101e-07
    503    521   2   0.50000    -0.1200000    0.0600000   2.494471e-04  1.671101e-07
    518    506   2   0.50000     0.0600000   -0.1200000   2.494471e-04  1.671101e-07
    518    520   2   0.50000     0.0600000    0.0600000   6.128906e-05  1.496315e-08
    518    521   2   0.50000     0.0600000    0.0600000   6.128906e-05  1.496315e-08
    519    506   2   0.50000     0.0600000   -0.1200000   2.494471e-04  1.671101e-07
    519    520   2   0.50000     0.0600000    0.0600000   6.128906e-05  1.496315e-08
    519    521   2   0.50000     0.0600000    0.0600000   6.128906e-05  1.496315e-08
    504    507   2   0.50000    -0.1200000   -0.1800000   1.015252e-03  1.866303e-06
    504    522   2   0.50000    -0.1200000    0.0600000   2.494471e-04  1.671101e-07
    504    523   2   0.50000    -0.1200000    0.0600000   2.494471e-04  1.671101e-07
    520    507   2   0.50000     0.0600000   -0.1800000   2.494471e-04  1.671101e-07
    520    522   2   0.50000     0.0600000    0.0600000   6.128906e-05  1.496315e-08
    520    523   2   0.50000     0.0600000    0.0600000   6.128906e-05  1.496315e-08
    521    507   2   0.50000     0.0600000   -0.1800000   2.494471e-04  1.671101e-07
    521    522   2   0.50000     0.0600000    0.0600000   6.128906e-05  1.496315e-08
    521    523   2   0.50000     0.0600000    0.0600000   6.128906e-05  1.496315e-08
    505    524   2   0.50000    -0.1200000    0.0600000   2.494471e-04  1.671101e-07
    505    525   2   0.50000    -0.1200000    0.0600000   2.494471e-04  1.671101e-07
    505    526   2   0.50000    -0.1200000    0.0600000   2.494471e-04  1.671101e-07
    522    524   2   0.50000     0.0600000    0.0600000   6.128906e-05  1.496315e-08
    522    525   2   0.50000     0.0600000    0.0600000   6.128906e-05  1.496315e-08
    522    526   2   0.50000     0.0600000    0.0600000   6.128906e-05  1.496315e-08
    523    524   2   0.50000     0.0600000    0.0600000   6.128906e-05  1.496315e-08
    523    525   2   0.50000     0.0600000    0.0600000   6.128906e-05  1.496315e-08
    523    526   2   0.50000     0.0600000    0.0600000   6.128906e-05  1.496315e-08
    498    530   2   0.50000     0.1700000   -0.4000000   8.411158e-04  8.795366e-07
    498    539   2   0.50000     0.1700000   -0.1200000   1.015252e-03  1.866303e-06
    498    540   2   0.50000     0.1700000    0.0300000   2.494471e-04  1.671101e-07
    527    530   2   0.50000     0.0600000   -0.4000000   2.066619e-04  7.875431e-08
    527    539   2   0.50000     0.0600000   -0.1200000   2.494471e-04  1.671101e-07
    527    540   2   0.50000     0.0600000    0.0300000   6.128906e-05  1.496315e-08
    528    530   2   0.50000     0.0600000   -0.4000000   2.066619e-04  7.875431e-08
    528    539   2   0.50000     0.0600000   -0.1200000   2.494471e-04  1.671101e-07
    528    540   2   0.50000     0.0600000    0.0300000   6.128906e-05  1.496315e-08
    508    531   2   0.50000    -0.1200000    0.1400000   1.015252e-03  1.866303e-06
    539    531   2   0.50000    -0.1200000    0.1400000   1.015252e-03  1.866303e-06
    540    531   2   0.50000     0.0300000    0.1400000   2.494471e-04  1.671101e-07
    508    558   2   0.50000    -0.1200000    0.0600000   2.494471e-04  1.671101e-07
    508    559   2   0.50000    -0.1200000    0.0600000   2.494471e-04  1.671101e-07
    508    560   2   0.50000    -0.1200000    0.1700000   1.015252e-03  1.866303e-06
    530    558   2   0.50000    -0.4000000    0.0600000   2.066619e-04  7.875431e-08
    530    559   2   0.50000    -0.4000000    0.0600000   2.066619e-04  7.875431e-08
    530    560   2   0.50000    -0.4000000    0.1700000   8.411158e-04  8.795366e-07
    540    558   2   0.50000     0.0300000    0.0600000   6.128906e-05  1.496315e-08
    540    559   2   0.50000     0.0300000    0.0600000   6.128906e-05  1.496315e-08
    540    560   2   0.50000     0.0300000    0.1700000   2.494471e-04  1.671101e-07
    529    532   2   0.50000     0.1700000   -0.1200000   1.015252e-03  1.866303e-06
    529    541   2   0.50000     0.1700000    0.0300000   2.494471e-04  1.671101e-07
    529    542   2   0.50000     0.1700000    0.0300000   2.494471e-04  1.671101e-07
    530    533   2   0.50000    -0.4000000   -0.1200000   8.411158e-04  8.795366e-07
    530    543   2   0.50000    -0.4000000    0.0600000   2.066619e-04  7.875431e-08
    530    544   2   0.50000    -0.4000000    0.0600000   2.066619e-04  7.875431e-08
    541    533   2   0.50000     0.0300000   -0.1200000   2.494471e-04  1.671101e-07
    541    543   2   0.50000     0.0300000    0.0600000   6.128906e-05  1.496315e-08
    541    544   2   0.50000     0.0300000    0.0600000   6.128906e-05  1.496315e-08
    542    533   2   0.50000     0.0300000   -0.1200000   2.494471e-04  1.671101e-07
    542    543   2   0.50000     0.0300000    0.0600000   6.128906e-05  1.496315e-08
    542    544   2   0.50000     0.0300000    0.0600000   6.128906e-05  1.496315e-08
    531    534   2   0.50000     0.1400000   -0.1200000   1.015252e-03  1.866303e-06
    531    545   2   0.50000     0.1400000    0.0600000   2.494471e-04  1.671101e-07
    531    546   2   0.50000     0.1400000    0.0600000   2.494471e-04  1.671101e-07
    543    534   2   0.50000     0.0600000   -0.1200000   2.494471e-04  1.671101e-07
    543    545   2   0.50000     0.0600000    0.0600000   6.128906e-05  1.496315e-08
    543    546   2   0.50000     0.0600000    0.0600000   6.128906e-05  1.496315e-08
    544    534   2   0.50000     0.0600000   -0.1200000   2.494471e-04  1.671101e-07
    544    545   2   0.50000     0.0600000    0.0600000   6.128906e-05  1.496315e-08
    544    546   2   0.50000     0.0600000    0.0600000   6.128906e-05  1.496315e-08
    532    535   2   0.50000    -0.1200000   -0.1200000   1.015252e-03  1.866303e-06
    532    547   2   0.50000    -0.1200000    0.0600000   2.494471e-04  1.671101e-07
    532    548   2   0.50000    -0.1200000    0.0600000   2.494471e-04  1.671101e-07
    545    535   2   0.50000     0.0600000   -0.1200000   2.494471e-04  1.671101e-07
    545    547   2   0.50000     0.0600000    0.0600000   6.128906e-05  1.496315e-08
    545    548   2   0.50000     0.0600000    0.0600000   6.128906e-05  1.496315e-08
    546    535   2   0.50000     0.0600000   -0.1200000   2.494471e-04  1.671101e-07
    546    547   2   0.50000     0.0600000    0.0600000   6.128906e-05  1.496315e-08
    546    548   2   0.50000     0.0600000    0.0600000   6.128906e-05  1.496315e-08
    533    536   2   0.50000    -0.1200000   -0.1200000   1.015252e-03  1.866303e-06
    533    549   2   0.50000    -0.1200000    0.0600000   2.494471e-04  1.671101e-07
    533    550   2   0.50000    -0.1200000    0.0600000   2.494471e-04  1.671101e-07
    547    536   2   0.50000     0.0600000   -0.1200000   2.494471e-04  1.671101e-07
    547    549   2   0.50000     0.0600000    0.0600000   6.128906e-05  1.496315e-08
    547    550   2   0.50000     0.0600000    0.0600000   6.128906e-05  1.496315e-08
    548    536   2   0.50000     0.0600000   -0.1200000   2.494471e-04  1.671101e-07
    548    549   2   0.50000     0.0600000    0.0600000   6.128906e-05  1.496315e-08
    548    550   2   0.50000     0.0600000    0.0600000   6.128906e-05  1.496315e-08
    534    537   2   0.50000    -0.1200000   -0.1200000   1.015252e-03  1.866303e-06
    534    551   2   0.50000    -0.1200000    0.0600000   2.494471e-04  1.671101e-07
    534    552   2   0.50000    -0.1200000    0.0600000   2.494471e-04  1.671101e-07
    549    537   2   0.50000     0.0600000   -0.1200000   2.494471e-04  1.671101e-07
    549    551   2   0.50000     0.0600000    0.0600000   6.128906e-05  1.496315e-08
    549    552   2   0.50000     0.0600000    0.0600000   6.128906e-05  1.496315e-08
    550    537   2   0.50000     0.0600000   -0.1200000   2.494471e-04  1.671101e-07
    550    551   2   0.50000     0.0600000    0.0600000   6.128906e-05  1.496315e-08
    550    552   2   0.50000     0.0600000    0.0600000   6.128906e-05  1.496315e-08
    535    538   2   0.50000    -0.1200000   -0.1800000   1.015252e-03  1.866303e-06
    535    553   2   0.50000    -0.1200000    0.0600000   2.494471e-04  1.671101e-07
    535    554   2   0.50000    -0.1200000    0.0600000   2.494471e-04  1.671101e-07
    551    538   2   0.50000     0.0600000   -0.1800000   2.494471e-04  1.671101e-07
    551    553   2   0.50000     0.0600000    0.0600000   6.128906e-05  1.496315e-08
    551    554   2   0.50000     0.0600000    0.0600000   6.128906e-05  1.496315e-08
    552    538   2   0.50000     0.0600000   -0.1800000   2.494471e-04  1.671101e-07
    552    553   2   0.50000     0.0600000    0.0600000   6.128906e-05  1.496315e-08
    552    554   2   0.50000     0.0600000    0.0600000   6.128906e-05  1.496315e-08
    536    555   2   0.50000    -0.1200000    0.0600000   2.494471e-04  1.671101e-07
    536    556   2   0.50000    -0.1200000    0.0600000   2.494471e-04  1.671101e-07
    536    557   2   0.50000    -0.1200000    0.0600000   2.494471e-04  1.671101e-07
    553    555   2   0.50000     0.0600000    0.0600000   6.128906e-05  1.496315e-08
    553    556   2   0.50000     0.0600000    0.0600000   6.128906e-05  1.496315e-08
    553    557   2   0.50000     0.0600000    0.0600000   6.128906e-05  1.496315e-08
    554    555   2   0.50000     0.0600000    0.0600000   6.128906e-05  1.496315e-08
    554    556   2   0.50000     0.0600000    0.0600000   6.128906e-05  1.496315e-08
    554    557   2   0.50000     0.0600000    0.0600000   6.128906e-05  1.496315e-08
    529    561   2   0.50000     0.1700000   -0.4000000   8.411158e-04  8.795366e-07
    529    570   2   0.50000     0.1700000   -0.1200000   1.015252e-03  1.866303e-06
    529    571   2   0.50000     0.1700000    0.0300000   2.494471e-04  1.671101e-07
    558    561   2   0.50000     0.0600000   -0.4000000   2.066619e-04  7.875431e-08
    558    570   2   0.50000     0.0600000   -0.1200000   2.494471e-04  1.671101e-07
    558    571   2   0.50000     0.0600000    0.0300000   6.128906e-05  1.496315e-08
    559    561   2   0.50000     0.0600000   -0.4000000   2.066619e-04  7.875431e-08
    559    570   2   0.50000     0.0600000   -0.1200000   2.494471e-04  1.671101e-07
    559    571   2   0.50000     0.0600000    0.0300000   6.128906e-05  1.496315e-08
    539    562   2   0.50000    -0.1200000    0.1400000   1.015252e-03  1.866303e-06
    570    562   2   0.50000    -0.1200000    0.1400000   1.015252e-03  1.866303e-06
    571    562   2   0.50000     0.0300000    0.1400000   2.494471e-04  1.671101e-07
    539    589   2   0.50000    -0.1200000    0.0600000   2.494471e-04  1.671101e-07
    539    590   2   0.50000    -0.1200000    0.0600000   2.494471e-04  1.671101e-07
    539    591   2   0.50000    -0.1200000    0.1700000   1.015252e-03  1.866303e-06
    561    589   2   0.50000    -0.4000000    0.0600000   2.066619e-04  7.875431e-08
    561    590   2   0.50000    -0.4000000    0.0600000   2.066619e-04  7.875431e-08
    561    591   2   0.50000    -0.4000000    0.1700000   8.411158e-04  8.795366e-07
    571    589   2   0.50000     0.0300000    0.0600000   6.128906e-05  1.496315e-08
    571    590   2   0.50000     0.0300000    0.0600000   6.128906e-05  1.496315e-08
    571    591   2   0.50000     0.0300000    0.1700000   2.494471e-04  1.671101e-07
    560    563   2   0.50000     0.1700000   -0.1200000   1.015252e-03  1.866303e-06
    560    572   2   0.50000     0.1700000    0.0300000   2.494471e-04  1.671101e-07
    560    573   2   0.50000     0.1700000    0.0300000   2.494471e-04  1.671101e-07
    561    564   2   0.50000    -0.4000000   -0.1200000   8.411158e-04  8.795366e-07
    561    574   2   0.50000    -0.4000000    0.0600000   2.066619e-04  7.875431e-08
    561    575   2   0.50000    -0.4000000    0.0600000   2.066619e-04  7.875431e-08
    572    564   2   0.50000     0.0300000   -0.1200000   2.494471e-04  1.671101e-07
    572    574   2   0.50000     0.0300000    0.0600000   6.128906e-05  1.496315e-08
    572    575   2   0.50000     0.0300000    0.0600000   6.128906e-05  1.496315e-08
    573    564   2   0.50000     0.0300000   -0.1200000   2.494471e-04  1.671101e-07
    573    574   2   0.50000     0.0300000    0.0600000   6.128906e-05  1.496315e-08
    573    575   2   0.50000     0.0300000    0.0600000   6.128906e-05  1.496315e-08
    562    565   2   0.50000     0.1400000   -0.1200000   1.015252e-03  1.866303e-06
    562    576   2   0.50000     0.1400000    0.0600000   2.494471e-04  1.671101e-07
    562    577   2   0.50000     0.1400000    0.0600000   2.494471e-04  1.671101e-07
    574    565   2   0.50000     0.0600000   -0.1200000   2.494471e-04  1.671101e-07
    574    576   2   0.50000     0.0600000    0.0600000   6.128906e-05  1.496315e-08
    574    577   2   0.50000     0.0600000    0.0600000   6.128906e-05  1.496315e-08
    575    565   2   0.50000     0.0600000   -0.1200000   2.494471e-04  1.671101e-07
    575    576   2   0.50000     0.0600000    0.0600000   6.128906e-05  1.496315e-08
    575    577   2   0.50000     0.0600000    0.0600000   6.128906e-05  1.496315e-08
    563    566   2   0.50000    -0.1200000   -0.1200000   1.015252e-03  1.866303e-06
    563    578   2   0.50000    -0.1200000    0.0600000   2.494471e-04  1.671101e-07
    563    579   2   0.50000    -0.1200000    0.0600000   2.494471e-04  1.671101e-07
    576    566   2   0.50000     0.0600000   -0.1200000   2.494471e-04  1.671101e-07
    576    578   2   0.50000     0.0600000    0.0600000   6.128906e-05  1.496315e-08
    576    579   2   0.50000     0.0600000    0.0600000   6.128906e-05  1.496315e-08
    577    566   2   0.50000     0.0600000   -0.1200000   2.494471e-04  1.671101e-07
    577    578   2   0.50000     0.0600000    0.0600000   6.128906e-05  1.496315e-08
    577    579   2   0.50000     0.0600000    0.0600000   6.128906e-05  1.496315e-08
    564    567   2   0.50000    -0.1200000   -0.1200000   1.015252e-03  1.866303e-06
    564    580   2   0.50000    -0.1200000    0.0600000   2.494471e-04  1.671101e-07
    564    581   2   0.50000    -0.1200000    0.0600000   2.494471e-04  1.671101e-07
    578    567   2   0.50000     0.0600000   -0.1200000   2.494471e-04  1.671101e-07
    578    580   2   0.50000     0.0600000    0.0600000   6.128906e-05  1.496315e-08
    578    581   2   0.50000     0.0600000    0.0600000   6.128906e-05  1.496315e-08
    579    567   2   0.50000     0.0600000   -0.1200000   2.494471e-04  1.671101e-07
    579    580   2   0.50000     0.0600000    0.0600000   6.128906e-05  1.496315e-08
    579    581   2   0.50000     0.0600000    0.0600000   6.128906e-05  1.496315e-08
    565    568   2   0.50000    -0.1200000   -0.1200000   1.015252e-03  1.866303e-06
    565    582   2   0.50000    -0.1200000    0.0600000   2.494471e-04  1.671101e-07
    565    583   2   0.50000    -0.1200000    0.0600000   2.494471e-04  1.671101e-07
    580    568   2   0.50000     0.0600000   -0.1200000   2.494471e-04  1.671101e-07
    580    582   2   0.50000     0.0600000    0.0600000   6.128906e-05  1.496315e-08
    580    583   2   0.50000     0.0600000    0.0600000   6.128906e-05  1.496315e-08
    581    568   2   0.50000     0.0600000   -0.1200000   2.494471e-04  1.671101e-07
    581    582   2   0.50000     0.0600000    0.0600000   6.128906e-05  1.496315e-08
    581    583   2   0.50000     0.0600000    0.0600000   6.128906e-05  1.496315e-08
    566    569   2   0.50000    -0.1200000   -0.1800000   1.015252e-03  1.866303e-06
    566    584   2   0.50000    -0.1200000    0.0600000   2.494471e-04  1.671101e-07
    566    585   2   0.50000    -0.1200000    0.0600000   2.494471e-04  1.671101e-07
    582    569   2   0.50000     0.0600000   -0.1800000   2.494471e-04  1.671101e-07
    582    584   2   0.50000     0.0600000    0.0600000   6.128906e-05  1.496315e-08
    582    585   2   0.50000     0.0600000    0.0600000   6.128906e-05  1.496315e-08
    583    569   2   0.50000     0.0600000   -0.1800000   2.494471e-04  1.671101e-07
    583    584   2   0.50000     0.0600000    0.0600000   6.128906e-05  1.496315e-08
    583    585   2   0.50000     0.0600000    0.0600000   6.128906e-05  1.496315e-08
    567    586   2   0.50000    -0.1200000    0.0600000   2.494471e-04  1.671101e-07
    567    587   2   0.50000    -0.1200000    0.0600000   2.494471e-04  1.671101e-07
    567    588   2   0.50000    -0.1200000    0.0600000   2.494471e-04  1.671101e-07
    584    586   2   0.50000     0.0600000    0.0600000   6.128906e-05  1.496315e-08
    584    587   2   0.50000     0.0600000    0.0600000   6.128906e-05  1.496315e-08
    584    588   2   0.50000     0.0600000    0.0600000   6.128906e-05  1.496315e-08
    585    586   2   0.50000     0.0600000    0.0600000   6.128906e-05  1.496315e-08
    585    587   2   0.50000     0.0600000    0.0600000   6.128906e-05  1.496315e-08
    585    588   2   0.50000     0.0600000    0.0600000   6.128906e-05  1.496315e-08
    560    592   2   0.50000     0.1700000   -0.4000000   8.411158e-04  8.795366e-07
    560    601   2   0.50000     0.1700000   -0.1800000   1.015252e-03  1.866303e-06
    560    602   2   0.50000     0.1700000    0.0300000   2.494471e-04  1.671101e-07
    589    592   2   0.50000     0.0600000   -0.4000000   2.066619e-04  7.875431e-08
    589    601   2   0.50000     0.0600000   -0.1800000   2.494471e-04  1.671101e-07
    589    602   2   0.50000     0.0600000    0.0300000   6.128906e-05  1.496315e-08
    590    592   2   0.50000     0.0600000   -0.4000000   2.066619e-04  7.875431e-08
    590    601   2   0.50000     0.0600000   -0.1800000   2.494471e-04  1.671101e-07
    590    602   2   0.50000     0.0600000    0.0300000   6.128906e-05  1.496315e-08
    570    593   2   0.50000    -0.1200000    0.1400000   1.015252e-03  1.866303e-06
    601    593   2   0.50000    -0.1800000    0.1400000   1.015252e-03  1.866303e-06
    602    593   2   0.50000     0.0300000    0.1400000   2.494471e-04  1.671101e-07
    570    620   2   0.50000    -0.1200000    0.0600000   2.494471e-04  1.671101e-07
    570    621   2   0.50000    -0.1200000    0.0600000   2.494471e-04  1.671101e-07
    570    622   2   0.50000    -0.1200000    0.0600000   2.494471e-04  1.671101e-07
    592    620   2   0.50000    -0.4000000    0.0600000   2.066619e-04  7.875431e-08
    592    621   2   0.50000    -0.4000000    0.0600000   2.066619e-04  7.875431e-08
    592    622   2   0.50000    -0.4000000    0.0600000   2.066619e-04  7.875431e-08
    602    620   2   0.50000     0.0300000    0.0600000   6.128906e-05  1.496315e-08
    602    621   2   0.50000     0.0300000    0.0600000   6.128906e-05  1.496315e-08
    602    622   2   0.50000     0.0300000    0.0600000   6.128906e-05  1.496315e-08
    591    594   2   0.50000     0.1700000   -0.1200000   1.015252e-03  1.866303e-06
    591    603   2   0.50000     0.1700000    0.0300000   2.494471e-04  1.671101e-07
    591    604   2   0.50000     0.1700000    0.0300000   2.494471e-04  1.671101e-07
    592    595   2   0.50000    -0.4000000   -0.1200000   8.411158e-04  8.795366e-07
    592    605   2   0.50000    -0.4000000    0.0600000   2.066619e-04  7.875431e-08
    592    606   2   0.50000    -0.4000000    0.0600000   2.066619e-04  7.875431e-08
    603    595   2   0.50000     0.0300000   -0.1200000   2.494471e-04  1.671101e-07
    603    605   2   0.50000     0.0300000    0.0600000   6.128906e-05  1.496315e-08
    603    606   2   0.50000     0.0300000    0.0600000   6.128906e-05  1.496315e-08
    604    595   2   0.50000     0.0300000   -0.1200000   2.494471e-04  1.671101e-07
    604    605   2   0.50000     0.0300000    0.0600000   6.128906e-05  1.496315e-08
    604    606   2   0.50000     0.0300000    0.0600000   6.128906e-05  1.496315e-08
    593    596   2   0.50000     0.1400000   -0.1200000   1.015252e-03  1.866303e-06
    593    607   2   0.50000     0.1400000    0.0600000   2.494471e-04  1.671101e-07
    593    608   2   0.50000     0.1400000    0.0600000   2.494471e-04  1.671101e-07
    605    596   2   0.50000     0.0600000   -0.1200000   2.494471e-04  1.671101e-07
    605    607   2   0.50000     0.0600000    0.0600000   6.128906e-05  1.496315e-08
    605    608   2   0.50000     0.0600000    0.0600000   6.128906e-05  1.496315e-08
    606    596   2   0.50000     0.0600000   -0.1200000   2.494471e-04  1.671101e-07
    606    607   2   0.50000     0.0600000    0.0600000   6.128906e-05  1.496315e-08
    606    608   2   0.50000     0.0600000    0.0600000   6.128906e-05  1.496315e-08
    594    597   2   0.50000    -0.1200000   -0.1200000   1.015252e-03  1.866303e-06
    594    609   2   0.50000    -0.1200000    0.0600000   2.494471e-04  1.671101e-07
    594    610   2   0.50000    -0.1200000    0.0600000   2.494471e-04  1.671101e-07
    607    597   2   0.50000     0.0600000   -0.1200000   2.494471e-04  1.671101e-07
    607    609   2   0.50000     0.0600000    0.0600000   6.128906e-05  1.496315e-08
    607    610   2   0.50000     0.0600000    0.0600000   6.128906e-05  1.496315e-08
    608    597   2   0.50000     0.0600000   -0.1200000   2.494471e-04  1.671101e-07
    608    609   2   0.50000     0.0600000    0.0600000   6.128906e-05  1.496315e-08
    608    610   2   0.50000     0.0600000    0.0600000   6.128906e-05  1.496315e-08
    595    598   2   0.50000    -0.1200000   -0.1200000   1.015252e-03  1.866303e-06
    595    611   2   0.50000    -0.1200000    0.0600000   2.494471e-04  1.671101e-07
    595    612   2   0.50000    -0.1200000    0.0600000   2.494471e-04  1.671101e-07
    609    598   2   0.50000     0.0600000   -0.1200000   2.494471e-04  1.671101e-07
    609    611   2   0.50000     0.0600000    0.0600000   6.128906e-05  1.496315e-08
    609    612   2   0.50000     0.0600000    0.0600000   6.128906e-05  1.496315e-08
    610    598   2   0.50000     0.0600000   -0.1200000   2.494471e-04  1.671101e-07
    610    611   2   0.50000     0.0600000    0.0600000   6.128906e-05  1.496315e-08
    610    612   2   0.50000     0.0600000    0.0600000   6.128906e-05  1.496315e-08
    596    599   2   0.50000    -0.1200000   -0.1200000   1.015252e-03  1.866303e-06
    596    613   2   0.50000    -0.1200000    0.0600000   2.494471e-04  1.671101e-07
    596    614   2   0.50000    -0.1200000    0.0600000   2.494471e-04  1.671101e-07
    611    599   2   0.50000     0.0600000   -0.1200000   2.494471e-04  1.671101e-07
    611    613   2   0.50000     0.0600000    0.0600000   6.128906e-05  1.496315e-08
    611    614   2   0.50000     0.0600000    0.0600000   6.128906e-05  1.496315e-08
    612    599   2   0.50000     0.0600000   -0.1200000   2.494471e-04  1.671101e-07
    612    613   2   0.50000     0.0600000    0.0600000   6.128906e-05  1.496315e-08
    612    614   2   0.50000     0.0600000    0.0600000   6.128906e-05  1.496315e-08
    597    600   2   0.50000    -0.1200000   -0.1800000   1.015252e-03  1.866303e-06
    597    615   2   0.50000    -0.1200000    0.0600000   2.494471e-04  1.671101e-07
    597    616   2   0.50000    -0.1200000    0.0600000   2.494471e-04  1.671101e-07
    613    600   2   0.50000     0.0600000   -0.1800000   2.494471e-04  1.671101e-07
    613    615   2   0.50000     0.0600000    0.0600000   6.128906e-05  1.496315e-08
    613    616   2   0.50000     0.0600000    0.0600000   6.128906e-05  1.496315e-08
    614    600   2   0.50000     0.0600000   -0.1800000   2.494471e-04  1.671101e-07
    614    615   2   0.50000     0.0600000    0.0600000   6.128906e-05  1.496315e-08
    614    616   2   0.50000     0.0600000    0.0600000   6.128906e-05  1.496315e-08
    598    617   2   0.50000    -0.1200000    0.0600000   2.494471e-04  1.671101e-07
    598    618   2   0.50000    -0.1200000    0.0600000   2.494471e-04  1.671101e-07
    598    619   2   0.50000    -0.1200000    0.0600000   2.494471e-04  1.671101e-07
    615    617   2   0.50000     0.0600000    0.0600000   6.128906e-05  1.496315e-08
    615    618   2   0.50000     0.0600000    0.0600000   6.128906e-05  1.496315e-08
    615    619   2   0.50000     0.0600000    0.0600000   6.128906e-05  1.496315e-08
    616    617   2   0.50000     0.0600000    0.0600000   6.128906e-05  1.496315e-08
    616    618   2   0.50000     0.0600000    0.0600000   6.128906e-05  1.496315e-08
    616    619   2   0.50000     0.0600000    0.0600000   6.128906e-05  1.496315e-08

[ angles ]
; ai  aj  ak
      2      1     11   1    109.5000    418.4000
      2      1     12   1    109.5000    292.8800
      2      1     32   1    109.5000    292.8800
     11      1     12   1    110.7000    313.8000
     11      1     32   1    110.7000    313.8000
     12      1     32   1    107.8000    276.1440
      1      2      3   1    109.5000    502.0800
      2      3      4   1    109.5000    418.4000
      2      3     13   1    109.5000    292.8800
      2      3     14   1    109.5000    292.8800
      4      3     13   1    110.7000    313.8000
      4      3     14   1    110.7000    313.8000
     13      3     14   1    107.8000    276.1440
      3      4      5   1    112.7000    488.2728
      3      4     15   1    110.7000    313.8000
      3      4     16   1    110.7000    313.8000
      5      4     15   1    110.7000    313.8000
      5      4     16   1    110.7000    313.8000
     15      4     16   1    107.8000    276.1440
      4      5      6   1    112.7000    488.2728
      4      5     17   1    110.7000    313.8000
      4      5     18   1    110.7000    313.8000
      6      5     17   1    110.7000    313.8000
      6      5     18   1    110.7000    313.8000
     17      5     18   1    107.8000    276.1440
      5      6      7   1    112.7000    488.2728
      5      6     19   1    110.7000    313.8000
      5      6     20   1    110.7000    313.8000
      7      6     19   1    110.7000    313.8000
      7      6     20   1    110.7000    313.8000
     19      6     20   1    107.8000    276.1440
      6      7      8   1    112.7000    488.2728
      6      7     21   1    110.7000    313.8000
      6      7     22   1    110.7000    313.8000
      8      7     21   1    110.7000    313.8000
      8      7     22   1    110.7000    313.8000
     21      7     22   1    107.8000    276.1440
      7      8      9   1    112.7000    488.2728
      7      8     23   1    110.7000    313.8000
      7      8     24   1    110.7000    313.8000
      9      8     23   1    110.7000    313.8000
      9      8     24   1    110.7000    313.8000
     23      8     24   1    107.8000    276.1440
      8      9     10   1    112.7000    488.2728
      8      9     25   1    110.7000    313.8000
      8      9     26   1    110.7000    313.8000
     10      9     25   1    110.7000    313.8000
     10      9     26   1    110.7000    313.8000
     25      9     26   1    107.8000    276.1440
      9     10     27   1    110.7000    313.8000
      9     10     28   1    110.7000    313.8000
      9     10     29   1    110.7000    313.8000
     27     10     28   1    107.8000    276.1440
     27     10     29   1    107.8000    276.1440
     28     10     29   1    107.8000    276.1440
      1     11     30   1    110.7000    313.8000
      1     11     31   1    110.7000    313.8000
      1     11     33   1    112.7000    488.2728
     30     11     31   1    107.8000    276.1440
     30     11     33   1    110.7000    313.8000
     31     11     33   1    110.7000    313.8000
     11     33     34   1    109.5000    418.4000
     11     33     43   1    112.7000    488.2728
     11     33     44   1    110.7000    313.8000
     34     33     43   1    109.5000    418.4000
     34     33     44   1    109.5000    292.8800
     43     33     44   1    110.7000    313.8000
     33     34     35   1    109.5000    502.0800
     34     35     36   1    109.5000    418.4000
     34     35     45   1    109.5000    292.8800
     34     35     46   1    109.5000    292.8800
     36     35     45   1    110.7000    313.8000
     36     35     46   1    110.7000    313.8000
     45     35     46   1    107.8000    276.1440
     35     36     37   1    112.7000    488.2728
     35     36     47   1    110.7000    313.8000
     35     36     48   1    110.7000    313.8000
     37     36     47   1    110.7000    313.8000
     37     36     48   1    110.7000    313.8000
     47     36     48   1    107.8000    276.1440
     36     37     38   1    112.7000    488.2728
     36     37     49   1    110.7000    313.8000
     36     37     50   1    110.7000    313.8000
     38     37     49   1    110.7000    313.8000
     38     37     50   1    110.7000    313.8000
     49     37     50   1    107.8000    276.1440
     37     38     39   1    112.7000    488.2728
     37     38     51   1    110.7000    313.8000
     37     38     52   1    110.7000    313.8000
     39     38     51   1    110.7000    313.8000
     39     38     52   1    110.7000    313.8000
     51     38     52   1    107.8000    276.1440
     38     39     40   1    112.7000    488.2728
     38     39     53   1    110.7000    313.8000
     38     39     54   1    110.7000    313.8000
     40     39     53   1    110.7000    313.8000
     40     39     54   1    110.7000    313.8000
     53     39     54   1    107.8000    276.1440
     39     40     41   1    112.7000    488.2728
     39     40     55   1    110.7000    313.8000
     39     40     56   1    110.7000    313.8000
     41     40     55   1    110.7000    313.8000
     41     40     56   1    110.7000    313.8000
     55     40     56   1    107.8000    276.1440
     40     41     42   1    112.7000    488.2728
     40     41     57   1    110.7000    313.8000
     40     41     58   1    110.7000    313.8000
     42     41     57   1    110.7000    313.8000
     42     41     58   1    110.7000    313.8000
     57     41     58   1    107.8000    276.1440
     41     42     59   1    110.7000    313.8000
     41     42     60   1    110.7000    313.8000
     41     42     61   1    110.7000    313.8000
     59     42     60   1    107.8000    276.1440
     59     42     61   1    107.8000    276.1440
     60     42     61   1    107.8000    276.1440
     33     43     62   1    110.7000    313.8000
     33     43     63   1    110.7000    313.8000
     33     43     64   1    112.7000    488.2728
     62     43     63   1    107.8000    276.1440
     62     43     64   1    110.7000    313.8000
     63     43     64   1    110.7000    313.8000
     43     64     65   1    109.5000    418.4000
     43     64     74   1    112.7000    488.2728
     43     64     75   1    110.7000    313.8000
     65     64     74   1    109.5000    418.4000
     65     64     75   1    109.5000    292.8800
     74     64     75   1    110.7000    313.8000
     64     65     66   1    109.5000    502.0800
     65     66     67   1    109.5000    418.4000
     65     66     76   1    109.5000    292.8800
     65     66     77   1    109.5000    292.8800
     67     66     76   1    110.7000    313.8000
     67     66     77   1    110.7000    313.8000
     76     66     77   1    107.8000    276.1440
     66     67     68   1    112.7000    488.2728
     66     67     78   1    110.7000    313.8000
     66     67     79   1    110.7000    313.8000
     68     67     78   1    110.7000    313.8000
     68     67     79   1    110.7000    313.8000
     78     67     79   1    107.8000    276.1440
     67     68     69   1    112.7000    488.2728
     67     68     80   1    110.7000    313.8000
     67     68     81   1    110.7000    313.8000
     69     68     80   1    110.7000    313.8000
     69     68     81   1    110.7000    313.8000
     80     68     81   1    107.8000    276.1440
     68     69     70   1    112.7000    488.2728
     68     69     82   1    110.7000    313.8000
     68     69     83   1    110.7000    313.8000
     70     69     82   1    110.7000    313.8000
     70     69     83   1    110.7000    313.8000
     82     69     83   1    107.8000    276.1440
     69     70     71   1    112.7000    488.2728
     69     70     84   1    110.7000    313.8000
     69     70     85   1    110.7000    313.8000
     71     70     84   1    110.7000    313.8000
     71     70     85   1    110.7000    313.8000
     84     70     85   1    107.8000    276.1440
     70     71     72   1    112.7000    488.2728
     70     71     86   1    110.7000    313.8000
     70     71     87   1    110.7000    313.8000
     72     71     86   1    110.7000    313.8000
     72     71     87   1    110.7000    313.8000
     86     71     87   1    107.8000    276.1440
     71     72     73   1    112.7000    488.2728
     71     72     88   1    110.7000    313.8000
     71     72     89   1    110.7000    313.8000
     73     72     88   1    110.7000    313.8000
     73     72     89   1    110.7000    313.8000
     88     72     89   1    107.8000    276.1440
     72     73     90   1    110.7000    313.8000
     72     73     91   1    110.7000    313.8000
     72     73     92   1    110.7000    313.8000
     90     73     91   1    107.8000    276.1440
     90     73     92   1    107.8000    276.1440
     91     73     92   1    107.8000    276.1440
     64     74     93   1    110.7000    313.8000
     64     74     94   1    110.7000    313.8000
     64     74     95   1    112.7000    488.2728
     93     74     94   1    107.8000    276.1440
     93     74     95   1    110.7000    313.8000
     94     74     95   1    110.7000    313.8000
     74     95     96   1    109.5000    418.4000
     74     95    105   1    112.7000    488.2728
     74     95    106   1    110.7000    313.8000
     96     95    105   1    109.5000    418.4000
     96     95    106   1    109.5000    292.8800
    105     95    106   1    110.7000    313.8000
     95     96     97   1    109.5000    502.0800
     96     97     98   1    109.5000    418.4000
     96     97    107   1    109.5000    292.8800
     96     97    108   1    109.5000    292.8800
     98     97    107   1    110.7000    313.8000
     98     97    108   1    110.7000    313.8000
    107     97    108   1    107.8000    276.1440
     97     98     99   1    112.7000    488.2728
     97     98    109   1    110.7000    313.8000
     97     98    110   1    110.7000    313.8000
     99     98    109   1    110.7000    313.8000
     99     98    110   1    110.7000    313.8000
    109     98    110   1    107.8000    276.1440
     98     99    100   1    112.7000    488.2728
     98     99    111   1    110.7000    313.8000
     98     99    112   1    110.7000    313.8000
    100     99    111   1    110.7000    313.8000
    100     99    112   1    110.7000    313.8000
    111     99    112   1    107.8000    276.1440
     99    100    101   1    112.7000    488.2728
     99    100    113   1    110.7000    313.8000
     99    100    114   1    110.7000    313.8000
    101    100    113   1    110.7000    313.8000
    101    100    114   1    110.7000    313.8000
    113    100    114   1    107.8000    276.1440
    100    101    102   1    112.7000    488.2728
    100    101    115   1    110.7000    313.8000
    100    101    116   1    110.7000    313.8000
    102    101    115   1    110.7000    313.8000
    102    101    116   1    110.7000    313.8000
    115    101    116   1    107.8000    276.1440
    101    102    103   1    112.7000    488.2728
    101    102    117   1    110.7000    313.8000
    101    102    118   1    110.7000    313.8000
    103    102    117   1    110.7000    313.8000
    103    102    118   1    110.7000    313.8000
    117    102    118   1    107.8000    276.1440
    102    103    104   1    112.7000    488.2728
    102    103    119   1    110.7000    313.8000
    102    103    120   1    110.7000    313.8000
    104    103    119   1    110.7000    313.8000
    104    103    120   1    110.7000    313.8000
    119    103    120   1    107.8000    276.1440
    103    104    121   1    110.7000    313.8000
    103    104    122   1    110.7000    313.8000
    103    104    123   1    110.7000    313.8000
    121    104    122   1    107.8000    276.1440
    121    104    123   1    107.8000    276.1440
    122    104    123   1    107.8000    276.1440
     95    105    124   1    110.7000    313.8000
     95    105    125   1    110.7000    313.8000
     95    105    126   1    112.7000    488.2728
    124    105    125   1    107.8000    276.1440
    124    105    126   1    110.7000    313.8000
    125    105    126   1    110.7000    313.8000
    105    126    127   1    109.5000    418.4000
    105    126    136   1    112.7000    488.2728
    105    126    137   1    110.7000    313.8000
    127    126    136   1    109.5000    418.4000
    127    126    137   1    109.5000    292.8800
    136    126    137   1    110.7000    313.8000
    126    127    128   1    109.5000    502.0800
    127    128    129   1    109.5000    418.4000
    127    128    138   1    109.5000    292.8800
    127    128    139   1    109.5000    292.8800
    129    128    138   1    110.7000    313.8000
    129    128    139   1    110.7000    313.8000
    138    128    139   1    107.8000    276.1440
    128    129    130   1    112.7000    488.2728
    128    129    140   1    110.7000    313.8000
    128    129    141   1    110.7000    313.8000
    130    129    140   1    110.7000    313.8000
    130    129    141   1    110.7000    313.8000
    140    129    141   1    107.8000    276.1440
    129    130    131   1    112.7000    488.2728
    129    130    142   1    110.7000    313.8000
    129    130    143   1    110.7000    313.8000
    131    130    142   1    110.7000    313.8000
    131    130    143   1    110.7000    313.8000
    142    130    143   1    107.8000    276.1440
    130    131    132   1    112.7000    488.2728
    130    131    144   1    110.7000    313.8000
    130    131    145   1    110.7000    313.8000
    132    131    144   1    110.7000    313.8000
    132    131    145   1    110.7000    313.8000
    144    131    145   1    107.8000    276.1440
    131    132    133   1    112.7000    488.2728
    131    132    146   1    110.7000    313.8000
    131    132    147   1    110.7000    313.8000
    133    132    146   1    110.7000    313.8000
    133    132    147   1    110.7000    313.8000
    146    132    147   1    107.8000    276.1440
    132    133    134   1    112.7000    488.2728
    132    133    148   1    110.7000    313.8000
    132    133    149   1    110.7000    313.8000
    134    133    148   1    110.7000    313.8000
    134    133    149   1    110.7000    313.8000
    148    133    149   1    107.8000    276.1440
    133    134    135   1    112.7000    488.2728
    133    134    150   1    110.7000    313.8000
    133    134    151   1    110.7000    313.8000
    135    134    150   1    110.7000    313.8000
    135    134    151   1    110.7000    313.8000
    150    134    151   1    107.8000    276.1440
    134    135    152   1    110.7000    313.8000
    134    135    153   1    110.7000    313.8000
    134    135    154   1    110.7000    313.8000
    152    135    153   1    107.8000    276.1440
    152    135    154   1    107.8000    276.1440
    153    135    154   1    107.8000    276.1440
    126    136    155   1    110.7000    313.8000
    126    136    156   1    110.7000    313.8000
    126    136    157   1    112.7000    488.2728
    155    136    156   1    107.8000    276.1440
    155    136    157   1    110.7000    313.8000
    156    136    157   1    110.7000    313.8000
    136    157    158   1    109.5000    418.4000
    136    157    167   1    112.7000    488.2728
    136    157    168   1    110.7000    313.8000
    158    157    167   1    109.5000    418.4000
    158    157    168   1    109.5000    292.8800
    167    157    168   1    110.7000    313.8000
    157    158    159   1    109.5000    502.0800
    158    159    160   1    109.5000    418.4000
    158    159    169   1    109.5000    292.8800
    158    159    170   1    109.5000    292.8800
    160    159    169   1    110.7000    313.8000
    160    159    170   1    110.7000    313.8000
    169    159    170   1    107.8000    276.1440
    159    160    161   1    112.7000    488.2728
    159    160    171   1    110.7000    313.8000
    159    160    172   1    110.7000    313.8000
    161    160    171   1    110.7000    313.8000
    161    160    172   1    110.7000    313.8000
    171    160    172   1    107.8000    276.1440
    160    161    162   1    112.7000    488.2728
    160    161    173   1    110.7000    313.8000
    160    161    174   1    110.7000    313.8000
    162    161    173   1    110.7000    313.8000
    162    161    174   1    110.7000    313.8000
    173    161    174   1    107.8000    276.1440
    161    162    163   1    112.7000    488.2728
    161    162    175   1    110.7000    313.8000
    161    162    176   1    110.7000    313.8000
    163    162    175   1    110.7000    313.8000
    163    162    176   1    110.7000    313.8000
    175    162    176   1    107.8000    276.1440
    162    163    164   1    112.7000    488.2728
    162    163    177   1    110.7000    313.8000
    162    163    178   1    110.7000    313.8000
    164    163    177   1    110.7000    313.8000
    164    163    178   1    110.7000    313.8000
    177    163    178   1    107.8000    276.1440
    163    164    165   1    112.7000    488.2728
    163    164    179   1    110.7000    313.8000
    163    164    180   1    110.7000    313.8000
    165    164    179   1    110.7000    313.8000
    165    164    180   1    110.7000    313.8000
    179    164    180   1    107.8000    276.1440
    164    165    166   1    112.7000    488.2728
    164    165    181   1    110.7000    313.8000
    164    165    182   1    110.7000    313.8000
    166    165    181   1    110.7000    313.8000
    166    165    182   1    110.7000    313.8000
    181    165    182   1    107.8000    276.1440
    165    166    183   1    110.7000    313.8000
    165    166    184   1    110.7000    313.8000
    165    166    185   1    110.7000    313.8000
    183    166    184   1    107.8000    276.1440
    183    166    185   1    107.8000    276.1440
    184    166    185   1    107.8000    276.1440
    157    167    186   1    110.7000    313.8000
    157    167    187   1    110.7000    313.8000
    157    167    188   1    112.7000    488.2728
    186    167    187   1    107.8000    276.1440
    186    167    188   1    110.7000    313.8000
    187    167    188   1    110.7000    313.8000
    167    188    189   1    109.5000    418.4000
    167    188    198   1    112.7000    488.2728
    167    188    199   1    110.7000    313.8000
    189    188    198   1    109.5000    418.4000
    189    188    199   1    109.5000    292.8800
    198    188    199   1    110.7000    313.8000
    188    189    190   1    109.5000    502.0800
    189    190    191   1    109.5000    418.4000
    189    190    200   1    109.5000    292.8800
    189    190    201   1    109.5000    292.8800
    191    190    200   1    110.7000    313.8000
    191    190    201   1    110.7000    313.8000
    200    190    201   1    107.8000    276.1440
    190    191    192   1    112.7000    488.2728
    190    191    202   1    110.7000    313.8000
    190    191    203   1    110.7000    313.8000
    192    191    202   1    110.7000    313.8000
    192    191    203   1    110.7000    313.8000
    202    191    203   1    107.8000    276.1440
    191    192    193   1    112.7000    488.2728
    191    192    204   1    110.7000    313.8000
    191    192    205   1    110.7000    313.8000
    193    192    204   1    110.7000    313.8000
    193    192    205   1    110.7000    313.8000
    204    192    205   1    107.8000    276.1440
    192    193    194   1    112.7000    488.2728
    192    193    206   1    110.7000    313.8000
    192    193    207   1    110.7000    313.8000
    194    193    206   1    110.7000    313.8000
    194    193    207   1    110.7000    313.8000
    206    193    207   1    107.8000    276.1440
    193    194    195   1    112.7000    488.2728
    193    194    208   1    110.7000    313.8000
    193    194    209   1    110.7000    313.8000
    195    194    208   1    110.7000    313.8000
    195    194    209   1    110.7000    313.8000
    208    194    209   1    107.8000    276.1440
    194    195    196   1    112.7000    488.2728
    194    195    210   1    110.7000    313.8000
    194    195    211   1    110.7000    313.8000
    196    195    210   1    110.7000    313.8000
    196    195    211   1    110.7000    313.8000
    210    195    211   1    107.8000    276.1440
    195    196    197   1    112.7000    488.2728
    195    196    212   1    110.7000    313.8000
    195    196    213   1    110.7000    313.8000
    197    196    212   1    110.7000    313.8000
    197    196    213   1    110.7000    313.8000
    212    196    213   1    107.8000    276.1440
    196    197    214   1    110.7000    313.8000
    196    197    215   1    110.7000    313.8000
    196    197    216   1    110.7000    313.8000
    214    197    215   1    107.8000    276.1440
    214    197    216   1    107.8000    276.1440
    215    197    216   1    107.8000    276.1440
    188    198    217   1    110.7000    313.8000
    188    198    218   1    110.7000    313.8000
    188    198    219   1    112.7000    488.2728
    217    198    218   1    107.8000    276.1440
    217    198    219   1    110.7000    313.8000
    218    198    219   1    110.7000    313.8000
    198    219    220   1    109.5000    418.4000
    198    219    229   1    112.7000    488.2728
    198    219    230   1    110.7000    313.8000
    220    219    229   1    109.5000    418.4000
    220    219    230   1    109.5000    292.8800
    229    219    230   1    110.7000    313.8000
    219    220    221   1    109.5000    502.0800
    220    221    222   1    109.5000    418.4000
    220    221    231   1    109.5000    292.8800
    220    221    232   1    109.5000    292.8800
    222    221    231   1    110.7000    313.8000
    222    221    232   1    110.7000    313.8000
    231    221    232   1    107.8000    276.1440
    221    222    223   1    112.7000    488.2728
    221    222    233   1    110.7000    313.8000
    221    222    234   1    110.7000    313.8000
    223    222    233   1    110.7000    313.8000
    223    222    234   1    110.7000    313.8000
    233    222    234   1    107.8000    276.1440
    222    223    224   1    112.7000    488.2728
    222    223    235   1    110.7000    313.8000
    222    223    236   1    110.7000    313.8000
    224    223    235   1    110.7000    313.8000
    224    223    236   1    110.7000    313.8000
    235    223    236   1    107.8000    276.1440
    223    224    225   1    112.7000    488.2728
    223    224    237   1    110.7000    313.8000
    223    224    238   1    110.7000    313.8000
    225    224    237   1    110.7000    313.8000
    225    224    238   1    110.7000    313.8000
    237    224    238   1    107.8000    276.1440
    224    225    226   1    112.7000    488.2728
    224    225    239   1    110.7000    313.8000
    224    225    240   1    110.7000    313.8000
    226    225    239   1    110.7000    313.8000
    226    225    240   1    110.7000    313.8000
    239    225    240   1    107.8000    276.1440
    225    226    227   1    112.7000    488.2728
    225    226    241   1    110.7000    313.8000
    225    226    242   1    110.7000    313.8000
    227    226    241   1    110.7000    313.8000
    227    226    242   1    110.7000    313.8000
    241    226    242   1    107.8000    276.1440
    226    227    228   1    112.7000    488.2728
    226    227    243   1    110.7000    313.8000
    226    227    244   1    110.7000    313.8000
    228    227    243   1    110.7000    313.8000
    228    227    244   1    110.7000    313.8000
    243    227    244   1    107.8000    276.1440
    227    228    245   1    110.7000    313.8000
    227    228    246   1    110.7000    313.8000
    227    228    247   1    110.7000    313.8000
    245    228    246   1    107.8000    276.1440
    245    228    247   1    107.8000    276.1440
    246    228    247   1    107.8000    276.1440
    219    229    248   1    110.7000    313.8000
    219    229    249   1    110.7000    313.8000
    219    229    250   1    112.7000    488.2728
    248    229    249   1    107.8000    276.1440
    248    229    250   1    110.7000    313.8000
    249    229    250   1    110.7000    313.8000
    229    250    251   1    109.5000    418.4000
    229    250    260   1    112.7000    488.2728
    229    250    261   1    110.7000    313.8000
    251    250    260   1    109.5000    418.4000
    251    250    261   1    109.5000    292.8800
    260    250    261   1    110.7000    313.8000
    250    251    252   1    109.5000    502.0800
    251    252    253   1    109.5000    418.4000
    251    252    262   1    109.5000    292.8800
    251    252    263   1    109.5000    292.8800
    253    252    262   1    110.7000    313.8000
    253    252    263   1    110.7000    313.8000
    262    252    263   1    107.8000    276.1440
    252    253    254   1    112.7000    488.2728
    252    253    264   1    110.7000    313.8000
    252    253    265   1    110.7000    313.8000
    254    253    264   1    110.7000    313.8000
    254    253    265   1    110.7000    313.8000
    264    253    265   1    107.8000    276.1440
    253    254    255   1    112.7000    488.2728
    253    254    266   1    110.7000    313.8000
    253    254    267   1    110.7000    313.8000
    255    254    266   1    110.7000    313.8000
    255    254    267   1    110.7000    313.8000
    266    254    267   1    107.8000    276.1440
    254    255    256   1    112.7000    488.2728
    254    255    268   1    110.7000    313.8000
    254    255    269   1    110.7000    313.8000
    256    255    268   1    110.7000    313.8000
    256    255    269   1    110.7000    313.8000
    268    255    269   1    107.8000    276.1440
    255    256    257   1    112.7000    488.2728
    255    256    270   1    110.7000    313.8000
    255    256    271   1    110.7000    313.8000
    257    256    270   1    110.7000    313.8000
    257    256    271   1    110.7000    313.8000
    270    256    271   1    107.8000    276.1440
    256    257    258   1    112.7000    488.2728
    256    257    272   1    110.7000    313.8000
    256    257    273   1    110.7000    313.8000
    258    257    272   1    110.7000    313.8000
    258    257    273   1    110.7000    313.8000
    272    257    273   1    107.8000    276.1440
    257    258    259   1    112.7000    488.2728
    257    258    274   1    110.7000    313.8000
    257    258    275   1    110.7000    313.8000
    259    258    274   1    110.7000    313.8000
    259    258    275   1    110.7000    313.8000
    274    258    275   1    107.8000    276.1440
    258    259    276   1    110.7000    313.8000
    258    259    277   1    110.7000    313.8000
    258    259    278   1    110.7000    313.8000
    276    259    277   1    107.8000    276.1440
    276    259    278   1    107.8000    276.1440
    277    259    278   1    107.8000    276.1440
    250    260    279   1    110.7000    313.8000
    250    260    280   1    110.7000    313.8000
    250    260    281   1    112.7000    488.2728
    279    260    280   1    107.8000    276.1440
    279    260    281   1    110.7000    313.8000
    280    260    281   1    110.7000    313.8000
    260    281    282   1    109.5000    418.4000
    260    281    291   1    112.7000    488.2728
    260    281    292   1    110.7000    313.8000
    282    281    291   1    109.5000    418.4000
    282    281    292   1    109.5000    292.8800
    291    281    292   1    110.7000    313.8000
    281    282    283   1    109.5000    502.0800
    282    283    284   1    109.5000    418.4000
    282    283    293   1    109.5000    292.8800
    282    283    294   1    109.5000    292.8800
    284    283    293   1    110.7000    313.8000
    284    283    294   1    110.7000    313.8000
    293    283    294   1    107.8000    276.1440
    283    284    285   1    112.7000    488.2728
    283    284    295   1    110.7000    313.8000
    283    284    296   1    110.7000    313.8000
    285    284    295   1    110.7000    313.8000
    285    284    296   1    110.7000    313.8000
    295    284    296   1    107.8000    276.1440
    284    285    286   1    112.7000    488.2728
    284    285    297   1    110.7000    313.8000
    284    285    298   1    110.7000    313.8000
    286    285    297   1    110.7000    313.8000
    286    285    298   1    110.7000    313.8000
    297    285    298   1    107.8000    276.1440
    285    286    287   1    112.7000    488.2728
    285    286    299   1    110.7000    313.8000
    285    286    300   1    110.7000    313.8000
    287    286    299   1    110.7000    313.8000
    287    286    300   1    110.7000    313.8000
    299    286    300   1    107.8000    276.1440
    286    287    288   1    112.7000    488.2728
    286    287    301   1    110.7000    313.8000
    286    287    302   1    110.7000    313.8000
    288    287    301   1    110.7000    313.8000
    288    287    302   1    110.7000    313.8000
    301    287    302   1    107.8000    276.1440
    287    288    289   1    112.7000    488.2728
    287    288    303   1    110.7000    313.8000
    287    288    304   1    110.7000    313.8000
    289    288    303   1    110.7000    313.8000
    289    288    304   1    110.7000    313.8000
    303    288    304   1    107.8000    276.1440
    288    289    290   1    112.7000    488.2728
    288    289    305   1    110.7000    313.8000
    288    289    306   1    110.7000    313.8000
    290    289    305   1    110.7000    313.8000
    290    289    306   1    110.7000    313.8000
    305    289    306   1    107.8000    276.1440
    289    290    307   1    110.7000    313.8000
    289    290    308   1    110.7000    313.8000
    289    290    309   1    110.7000    313.8000
    307    290    308   1    107.8000    276.1440
    307    290    309   1    107.8000    276.1440
    308    290    309   1    107.8000    276.1440
    281    291    310   1    110.7000    313.8000
    281    291    311   1    110.7000    313.8000
    281    291    312   1    112.7000    488.2728
    310    291    311   1    107.8000    276.1440
    310    291    312   1    110.7000    313.8000
    311    291    312   1    110.7000    313.8000
    291    312    313   1    109.5000    418.4000
    291    312    322   1    112.7000    488.2728
    291    312    323   1    110.7000    313.8000
    313    312    322   1    109.5000    418.4000
    313    312    323   1    109.5000    292.8800
    322    312    323   1    110.7000    313.8000
    312    313    314   1    109.5000    502.0800
    313    314    315   1    109.5000    418.4000
    313    314    324   1    109.5000    292.8800
    313    314    325   1    109.5000    292.8800
    315    314    324   1    110.7000    313.8000
    315    314    325   1    110.7000    313.8000
    324    314    325   1    107.8000    276.1440
    314    315    316   1    112.7000    488.2728
    314    315    326   1    110.7000    313.8000
    314    315    327   1    110.7000    313.8000
    316    315    326   1    110.7000    313.8000
    316    315    327   1    110.7000    313.8000
    326    315    327   1    107.8000    276.1440
    315    316    317   1    112.7000    488.2728
    315    316    328   1    110.7000    313.8000
    315    316    329   1    110.7000    313.8000
    317    316    328   1    110.7000    313.8000
    317    316    329   1    110.7000    313.8000
    328    316    329   1    107.8000    276.1440
    316    317    318   1    112.7000    488.2728
    316    317    330   1    110.7000    313.8000
    316    317    331   1    110.7000    313.8000
    318    317    330   1    110.7000    313.8000
    318    317    331   1    110.7000    313.8000
    330    317    331   1    107.8000    276.1440
    317    318    319   1    112.7000    488.2728
    317    318    332   1    110.7000    313.8000
    317    318    333   1    110.7000    313.8000
    319    318    332   1    110.7000    313.8000
    319    318    333   1    110.7000    313.8000
    332    318    333   1    107.8000    276.1440
    318    319    320   1    112.7000    488.2728
    318    319    334   1    110.7000    313.8000
    318    319    335   1    110.7000    313.8000
    320    319    334   1    110.7000    313.8000
    320    319    335   1    110.7000    313.8000
    334    319    335   1    107.8000    276.1440
    319    320    321   1    112.7000    488.2728
    319    320    336   1    110.7000    313.8000
    319    320    337   1    110.7000    313.8000
    321    320    336   1    110.7000    313.8000
    321    320    337   1    110.7000    313.8000
    336    320    337   1    107.8000    276.1440
    320    321    338   1    110.7000    313.8000
    320    321    339   1    110.7000    313.8000
    320    321    340   1    110.7000    313.8000
    338    321    339   1    107.8000    276.1440
    338    321    340   1    107.8000    276.1440
    339    321    340   1    107.8000    276.1440
    312    322    341   1    110.7000    313.8000
    312    322    342   1    110.7000    313.8000
    312    322    343   1    112.7000    488.2728
    341    322    342   1    107.8000    276.1440
    341    322    343   1    110.7000    313.8000
    342    322    343   1    110.7000    313.8000
    322    343    344   1    109.5000    418.4000
    322    343    353   1    112.7000    488.2728
    322    343    354   1    110.7000    313.8000
    344    343    353   1    109.5000    418.4000
    344    343    354   1    109.5000    292.8800
    353    343    354   1    110.7000    313.8000
    343    344    345   1    109.5000    502.0800
    344    345    346   1    109.5000    418.4000
    344    345    355   1    109.5000    292.8800
    344    345    356   1    109.5000    292.8800
    346    345    355   1    110.7000    313.8000
    346    345    356   1    110.7000    313.8000
    355    345    356   1    107.8000    276.1440
    345    346    347   1    112.7000    488.2728
    345    346    357   1    110.7000    313.8000
    345    346    358   1    110.7000    313.8000
    347    346    357   1    110.7000    313.8000
    347    346    358   1    110.7000    313.8000
    357    346    358   1    107.8000    276.1440
    346    347    348   1    112.7000    488.2728
    346    347    359   1    110.7000    313.8000
    346    347    360   1    110.7000    313.8000
    348    347    359   1    110.7000    313.8000
    348    347    360   1    110.7000    313.8000
    359    347    360   1    107.8000    276.1440
    347    348    349   1    112.7000    488.2728
    347    348    361   1    110.7000    313.8000
    347    348    362   1    110.7000    313.8000
    349    348    361   1    110.7000    313.8000
    349    348    362   1    110.7000    313.8000
    361    348    362   1    107.8000    276.1440
    348    349    350   1    112.7000    488.2728
    348    349    363   1    110.7000    313.8000
    348    349    364   1    110.7000    313.8000
    350    349    363   1    110.7000    313.8000
    350    349    364   1    110.7000    313.8000
    363    349    364   1    107.8000    276.1440
    349    350    351   1    112.7000    488.2728
    349    350    365   1    110.7000    313.8000
    349    350    366   1    110.7000    313.8000
    351    350    365   1    110.7000    313.8000
    351    350    366   1    110.7000    313.8000
    365    350    366   1    107.8000    276.1440
    350    351    352   1    112.7000    488.2728
    350    351    367   1    110.7000    313.8000
    350    351    368   1    110.7000    313.8000
    352    351    367   1    110.7000    313.8000
    352    351    368   1    110.7000    313.8000
    367    351    368   1    107.8000    276.1440
    351    352    369   1    110.7000    313.8000
    351    352    370   1    110.7000    313.8000
    351    352    371   1    110.7000    313.8000
    369    352    370   1    107.8000    276.1440
    369    352    371   1    107.8000    276.1440
    370    352    371   1    107.8000    276.1440
    343    353    372   1    110.7000    313.8000
    343    353    373   1    110.7000    313.8000
    343    353    374   1    112.7000    488.2728
    372    353    373   1    107.8000    276.1440
    372    353    374   1    110.7000    313.8000
    373    353    374   1    110.7000    313.8000
    353    374    375   1    109.5000    418.4000
    353    374    384   1    112.7000    488.2728
    353    374    385   1    110.7000    313.8000
    375    374    384   1    109.5000    418.4000
    375    374    385   1    109.5000    292.8800
    384    374    385   1    110.7000    313.8000
    374    375    376   1    109.5000    502.0800
    375    376    377   1    109.5000    418.4000
    375    376    386   1    109.5000    292.8800
    375    376    387   1    109.5000    292.8800
    377    376    386   1    110.7000    313.8000
    377    376    387   1    110.7000    313.8000
    386    376    387   1    107.8000    276.1440
    376    377    378   1    112.7000    488.2728
    376    377    388   1    110.7000    313.8000
    376    377    389   1    110.7000    313.8000
    378    377    388   1    110.7000    313.8000
    378    377    389   1    110.7000    313.8000
    388    377    389   1    107.8000    276.1440
    377    378    379   1    112.7000    488.2728
    377    378    390   1    110.7000    313.8000
    377    378    391   1    110.7000    313.8000
    379    378    390   1    110.7000    313.8000
    379    378    391   1    110.7000    313.8000
    390    378    391   1    107.8000    276.1440
    378    379    380   1    112.7000    488.2728
    378    379    392   1    110.7000    313.8000
    378    379    393   1    110.7000    313.8000
    380    379    392   1    110.7000    313.8000
    380    379    393   1    110.7000    313.8000
    392    379    393   1    107.8000    276.1440
    379    380    381   1    112.7000    488.2728
    379    380    394   1    110.7000    313.8000
    379    380    395   1    110.7000    313.8000
    381    380    394   1    110.7000    313.8000
    381    380    395   1    110.7000    313.8000
    394    380    395   1    107.8000    276.1440
    380    381    382   1    112.7000    488.2728
    380    381    396   1    110.7000    313.8000
    380    381    397   1    110.7000    313.8000
    382    381    396   1    110.7000    313.8000
    382    381    397   1    110.7000    313.8000
    396    381    397   1    107.8000    276.1440
    381    382    383   1    112.7000    488.2728
    381    382    398   1    110.7000    313.8000
    381    382    399   1    110.7000    313.8000
    383    382    398   1    110.7000    313.8000
    383    382    399   1    110.7000    313.8000
    398    382    399   1    107.8000    276.1440
    382    383    400   1    110.7000    313.8000
    382    383    401   1    110.7000    313.8000
    382    383    402   1    110.7000    313.8000
    400    383    401   1    107.8000    276.1440
    400    383    402   1    107.8000    276.1440
    401    383    402   1    107.8000    276.1440
    374    384    403   1    110.7000    313.8000
    374    384    404   1    110.7000    313.8000
    374    384    405   1    112.7000    488.2728
    403    384    404   1    107.8000    276.1440
    403    384    405   1    110.7000    313.8000
    404    384    405   1    110.7000    313.8000
    384    405    406   1    109.5000    418.4000
    384    405    415   1    112.7000    488.2728
    384    405    416   1    110.7000    313.8000
    406    405    415   1    109.5000    418.4000
    406    405    416   1    109.5000    292.8800
    415    405    416   1    110.7000    313.8000
    405    406    407   1    109.5000    502.0800
    406    407    408   1    109.5000    418.4000
    406    407    417   1    109.5000    292.8800
    406    407    418   1    109.5000    292.8800
    408    407    417   1    110.7000    313.8000
    408    407    418   1    110.7000    313.8000
    417    407    418   1    107.8000    276.1440
    407    408    409   1    112.7000    488.2728
    407    408    419   1    110.7000    313.8000
    407    408    420   1    110.7000    313.8000
    409    408    419   1    110.7000    313.8000
    409    408    420   1    110.7000    313.8000
    419    408    420   1    107.8000    276.1440
    408    409    410   1    112.7000    488.2728
    408    409    421   1    110.7000    313.8000
    408    409    422   1    110.7000    313.8000
    410    409    421   1    110.7000    313.8000
    410    409    422   1    110.7000    313.8000
    421    409    422   1    107.8000    276.1440
    409    410    411   1    112.7000    488.2728
    409    410    423   1    110.7000    313.8000
    409    410    424   1    110.7000    313.8000
    411    410    423   1    110.7000    313.8000
    411    410    424   1    110.7000    313.8000
    423    410    424   1    107.8000    276.1440
    410    411    412   1    112.7000    488.2728
    410    411    425   1    110.7000    313.8000
    410    411    426   1    110.7000    313.8000
    412    411    425   1    110.7000    313.8000
    412    411    426   1    110.7000    313.8000
    425    411    426   1    107.8000    276.1440
    411    412    413   1    112.7000    488.2728
    411    412    427   1    110.7000    313.8000
    411    412    428   1    110.7000    313.8000
    413    412    427   1    110.7000    313.8000
    413    412    428   1    110.7000    313.8000
    427    412    428   1    107.8000    276.1440
    412    413    414   1    112.7000    488.2728
    412    413    429   1    110.7000    313.8000
    412    413    430   1    110.7000    313.8000
    414    413    429   1    110.7000    313.8000
    414    413    430   1    110.7000    313.8000
    429    413    430   1    107.8000    276.1440
    413    414    431   1    110.7000    313.8000
    413    414    432   1    110.7000    313.8000
    413    414    433   1    110.7000    313.8000
    431    414    432   1    107.8000    276.1440
    431    414    433   1    107.8000    276.1440
    432    414    433   1    107.8000    276.1440
    405    415    434   1    110.7000    313.8000
    405    415    435   1    110.7000    313.8000
    405    415    436   1    112.7000    488.2728
    434    415    435   1    107.8000    276.1440
    434    415    436   1    110.7000    313.8000
    435    415    436   1    110.7000    313.8000
    415    436    437   1    109.5000    418.4000
    415    436    446   1    112.7000    488.2728
    415    436    447   1    110.7000    313.8000
    437    436    446   1    109.5000    418.4000
    437    436    447   1    109.5000    292.8800
    446    436    447   1    110.7000    313.8000
    436    437    438   1    109.5000    502.0800
    437    438    439   1    109.5000    418.4000
    437    438    448   1    109.5000    292.8800
    437    438    449   1    109.5000    292.8800
    439    438    448   1    110.7000    313.8000
    439    438    449   1    110.7000    313.8000
    448    438    449   1    107.8000    276.1440
    438    439    440   1    112.7000    488.2728
    438    439    450   1    110.7000    313.8000
    438    439    451   1    110.7000    313.8000
    440    439    450   1    110.7000    313.8000
    440    439    451   1    110.7000    313.8000
    450    439    451   1    107.8000    276.1440
    439    440    441   1    112.7000    488.2728
    439    440    452   1    110.7000    313.8000
    439    440    453   1    110.7000    313.8000
    441    440    452   1    110.7000    313.8000
    441    440    453   1    110.7000    313.8000
    452    440    453   1    107.8000    276.1440
    440    441    442   1    112.7000    488.2728
    440    441    454   1    110.7000    313.8000
    440    441    455   1    110.7000    313.8000
    442    441    454   1    110.7000    313.8000
    442    441    455   1    110.7000    313.8000
    454    441    455   1    107.8000    276.1440
    441    442    443   1    112.7000    488.2728
    441    442    456   1    110.7000    313.8000
    441    442    457   1    110.7000    313.8000
    443    442    456   1    110.7000    313.8000
    443    442    457   1    110.7000    313.8000
    456    442    457   1    107.8000    276.1440
    442    443    444   1    112.7000    488.2728
    442    443    458   1    110.7000    313.8000
    442    443    459   1    110.7000    313.8000
    444    443    458   1    110.7000    313.8000
    444    443    459   1    110.7000    313.8000
    458    443    459   1    107.8000    276.1440
    443    444    445   1    112.7000    488.2728
    443    444    460   1    110.7000    313.8000
    443    444    461   1    110.7000    313.8000
    445    444    460   1    110.7000    313.8000
    445    444    461   1    110.7000    313.8000
    460    444    461   1    107.8000    276.1440
    444    445    462   1    110.7000    313.8000
    444    445    463   1    110.7000    313.8000
    444    445    464   1    110.7000    313.8000
    462    445    463   1    107.8000    276.1440
    462    445    464   1    107.8000    276.1440
    463    445    464   1    107.8000    276.1440
    436    446    465   1    110.7000    313.8000
    436    446    466   1    110.7000    313.8000
    436    446    467   1    112.7000    488.2728
    465    446    466   1    107.8000    276.1440
    465    446    467   1    110.7000    313.8000
    466    446    467   1    110.7000    313.8000
    446    467    468   1    109.5000    418.4000
    446    467    477   1    112.7000    488.2728
    446    467    478   1    110.7000    313.8000
    468    467    477   1    109.5000    418.4000
    468    467    478   1    109.5000    292.8800
    477    467    478   1    110.7000    313.8000
    467    468    469   1    109.5000    502.0800
    468    469    470   1    109.5000    418.4000
    468    469    479   1    109.5000    292.8800
    468    469    480   1    109.5000    292.8800
    470    469    479   1    110.7000    313.8000
    470    469    480   1    110.7000    313.8000
    479    469    480   1    107.8000    276.1440
    469    470    471   1    112.7000    488.2728
    469    470    481   1    110.7000    313.8000
    469    470    482   1    110.7000    313.8000
    471    470    481   1    110.7000    313.8000
    471    470    482   1    110.7000    313.8000
    481    470    482   1    107.8000    276.1440
    470    471    472   1    112.7000    488.2728
    470    471    483   1    110.7000    313.8000
    470    471    484   1    110.7000    313.8000
    472    471    483   1    110.7000    313.8000
    472    471    484   1    110.7000    313.8000
    483    471    484   1    107.8000    276.1440
    471    472    473   1    112.7000    488.2728
    471    472    485   1    110.7000    313.8000
    471    472    486   1    110.7000    313.8000
    473    472    485   1    110.7000    313.8000
    473    472    486   1    110.7000    313.8000
    485    472    486   1    107.8000    276.1440
    472    473    474   1    112.7000    488.2728
    472    473    487   1    110.7000    313.8000
    472    473    488   1    110.7000    313.8000
    474    473    487   1    110.7000    313.8000
    474    473    488   1    110.7000    313.8000
    487    473    488   1    107.8000    276.1440
    473    474    475   1    112.7000    488.2728
    473    474    489   1    110.7000    313.8000
    473    474    490   1    110.7000    313.8000
    475    474    489   1    110.7000    313.8000
    475    474    490   1    110.7000    313.8000
    489    474    490   1    107.8000    276.1440
    474    475    476   1    112.7000    488.2728
    474    475    491   1    110.7000    313.8000
    474    475    492   1    110.7000    313.8000
    476    475    491   1    110.7000    313.8000
    476    475    492   1    110.7000    313.8000
    491    475    492   1    107.8000    276.1440
    475    476    493   1    110.7000    313.8000
    475    476    494   1    110.7000    313.8000
    475    476    495   1    110.7000    313.8000
    493    476    494   1    107.8000    276.1440
    493    476    495   1    107.8000    276.1440
    494    476    495   1    107.8000    276.1440
    467    477    496   1    110.7000    313.8000
    467    477    497   1    110.7000    313.8000
    467    477    498   1    112.7000    488.2728
    496    477    497   1    107.8000    276.1440
    496    477    498   1    110.7000    313.8000
    497    477    498   1    110.7000    313.8000
    477    498    499   1    109.5000    418.4000
    477    498    508   1    112.7000    488.2728
    477    498    509   1    110.7000    313.8000
    499    498    508   1    109.5000    418.4000
    499    498    509   1    109.5000    292.8800
    508    498    509   1    110.7000    313.8000
    498    499    500   1    109.5000    502.0800
    499    500    501   1    109.5000    418.4000
    499    500    510   1    109.5000    292.8800
    499    500    511   1    109.5000    292.8800
    501    500    510   1    110.7000    313.8000
    501    500    511   1    110.7000    313.8000
    510    500    511   1    107.8000    276.1440
    500    501    502   1    112.7000    488.2728
    500    501    512   1    110.7000    313.8000
    500    501    513   1    110.7000    313.8000
    502    501    512   1    110.7000    313.8000
    502    501    513   1    110.7000    313.8000
    512    501    513   1    107.8000    276.1440
    501    502    503   1    112.7000    488.2728
    501    502    514   1    110.7000    313.8000
    501    502    515   1    110.7000    313.8000
    503    502    514   1    110.7000    313.8000
    503    502    515   1    110.7000    313.8000
    514    502    515   1    107.8000    276.1440
    502    503    504   1    112.7000    488.2728
    502    503    516   1    110.7000    313.8000
    502    503    517   1    110.7000    313.8000
    504    503    516   1    110.7000    313.8000
    504    503    517   1    110.7000    313.8000
    516    503    517   1    107.8000    276.1440
    503    504    505   1    112.7000    488.2728
    503    504    518   1    110.7000    313.8000
    503    504    519   1    110.7000    313.8000
    505    504    518   1    110.7000    313.8000
    505    504    519   1    110.7000    313.8000
    518    504    519   1    107.8000    276.1440
    504    505    506   1    112.7000    488.2728
    504    505    520   1    110.7000    313.8000
    504    505    521   1    110.7000    313.8000
    506    505    520   1    110.7000    313.8000
    506    505    521   1    110.7000    313.8000
    520    505    521   1    107.8000    276.1440
    505    506    507   1    112.7000    488.2728
    505    506    522   1    110.7000    313.8000
    505    506    523   1    110.7000    313.8000
    507    506    522   1    110.7000    313.8000
    507    506    523   1    110.7000    313.8000
    522    506    523   1    107.8000    276.1440
    506    507    524   1    110.7000    313.8000
    506    507    525   1    110.7000    313.8000
    506    507    526   1    110.7000    313.8000
    524    507    525   1    107.8000    276.1440
    524    507    526   1    107.8000    276.1440
    525    507    526   1    107.8000    276.1440
    498    508    527   1    110.7000    313.8000
    498    508    528   1    110.7000    313.8000
    498    508    529   1    112.7000    488.2728
    527    508    528   1    107.8000    276.1440
    527    508    529   1    110.7000    313.8000
    528    508    529   1    110.7000    313.8000
    508    529    530   1    109.5000    418.4000
    508    529    539   1    112.7000    488.2728
    508    529    540   1    110.7000    313.8000
    530    529    539   1    109.5000    418.4000
    530    529    540   1    109.5000    292.8800
    539    529    540   1    110.7000    313.8000
    529    530    531   1    109.5000    502.0800
    530    531    532   1    109.5000    418.4000
    530    531    541   1    109.5000    292.8800
    530    531    542   1    109.5000    292.8800
    532    531    541   1    110.7000    313.8000
    532    531    542   1    110.7000    313.8000
    541    531    542   1    107.8000    276.1440
    531    532    533   1    112.7000    488.2728
    531    532    543   1    110.7000    313.8000
    531    532    544   1    110.7000    313.8000
    533    532    543   1    110.7000    313.8000
    533    532    544   1    110.7000    313.8000
    543    532    544   1    107.8000    276.1440
    532    533    534   1    112.7000    488.2728
    532    533    545   1    110.7000    313.8000
    532    533    546   1    110.7000    313.8000
    534    533    545   1    110.7000    313.8000
    534    533    546   1    110.7000    313.8000
    545    533    546   1    107.8000    276.1440
    533    534    535   1    112.7000    488.2728
    533    534    547   1    110.7000    313.8000
    533    534    548   1    110.7000    313.8000
    535    534    547   1    110.7000    313.8000
    535    534    548   1    110.7000    313.8000
    547    534    548   1    107.8000    276.1440
    534    535    536   1    112.7000    488.2728
    534    535    549   1    110.7000    313.8000
    534    535    550   1    110.7000    313.8000
    536    535    549   1    110.7000    313.8000
    536    535    550   1    110.7000    313.8000
    549    535    550   1    107.8000    276.1440
    535    536    537   1    112.7000    488.2728
    535    536    551   1    110.7000    313.8000
    535    536    552   1    110.7000    313.8000
    537    536    551   1    110.7000    313.8000
    537    536    552   1    110.7000    313.8000
    551    536    552   1    107.8000    276.1440
    536    537    538   1    112.7000    488.2728
    536    537    553   1    110.7000    313.8000
    536    537    554   1    110.7000    313.8000
    538    537    553   1    110.7000    313.8000
    538    537    554   1    110.7000    313.8000
    553    537    554   1    107.8000    276.1440
    537    538    555   1    110.7000    313.8000
    537    538    556   1    110.7000    313.8000
    537    538    557   1    110.7000    313.8000
    555    538    556   1    107.8000    276.1440
    555    538    557   1    107.8000    276.1440
    556    538    557   1    107.8000    276.1440
    529    539    558   1    110.7000    313.8000
    529    539    559   1    110.7000    313.8000
    529    539    560   1    112.7000    488.2728
    558    539    559   1    107.8000    276.1440
    558    539    560   1    110.7000    313.8000
    559    539    560   1    110.7000    313.8000
    539    560    561   1    109.5000    418.4000
    539    560    570   1    112.7000    488.2728
    539    560    571   1    110.7000    313.8000
    561    560    570   1    109.5000    418.4000
    561    560    571   1    109.5000    292.8800
    570    560    571   1    110.7000    313.8000
    560    561    562   1    109.5000    502.0800
    561    562    563   1    109.5000    418.4000
    561    562    572   1    109.5000    292.8800
    561    562    573   1    109.5000    292.8800
    563    562    572   1    110.7000    313.8000
    563    562    573   1    110.7000    313.8000
    572    562    573   1    107.8000    276.1440
    562    563    564   1    112.7000    488.2728
    562    563    574   1    110.7000    313.8000
    562    563    575   1    110.7000    313.8000
    564    563    574   1    110.7000    313.8000
    564    563    575   1    110.7000    313.8000
    574    563    575   1    107.8000    276.1440
    563    564    565   1    112.7000    488.2728
    563    564    576   1    110.7000    313.8000
    563    564    577   1    110.7000    313.8000
    565    564    576   1    110.7000    313.8000
    565    564    577   1    110.7000    313.8000
    576    564    577   1    107.8000    276.1440
    564    565    566   1    112.7000    488.2728
    564    565    578   1    110.7000    313.8000
    564    565    579   1    110.7000    313.8000
    566    565    578   1    110.7000    313.8000
    566    565    579   1    110.7000    313.8000
    578    565    579   1    107.8000    276.1440
    565    566    567   1    112.7000    488.2728
    565    566    580   1    110.7000    313.8000
    565    566    581   1    110.7000    313.8000
    567    566    580   1    110.7000    313.8000
    567    566    581   1    110.7000    313.8000
    580    566    581   1    107.8000    276.1440
    566    567    568   1    112.7000    488.2728
    566    567    582   1    110.7000    313.8000
    566    567    583   1    110.7000    313.8000
    568    567    582   1    110.7000    313.8000
    568    567    583   1    110.7000    313.8000
    582    567    583   1    107.8000    276.1440
    567    568    569   1    112.7000    488.2728
    567    568    584   1    110.7000    313.8000
    567    568    585   1    110.7000    313.8000
    569    568    584   1    110.7000    313.8000
    569    568    585   1    110.7000    313.8000
    584    568    585   1    107.8000    276.1440
    568    569    586   1    110.7000    313.8000
    568    569    587   1    110.7000    313.8000
    568    569    588   1    110.7000    313.8000
    586    569    587   1    107.8000    276.1440
    586    569    588   1    107.8000    276.1440
    587    569    588   1    107.8000    276.1440
    560    570    589   1    110.7000    313.8000
    560    570    590   1    110.7000    313.8000
    560    570    591   1    112.7000    488.2728
    589    570    590   1    107.8000    276.1440
    589    570    591   1    110.7000    313.8000
    590    570    591   1    110.7000    313.8000
    570    591    592   1    109.5000    418.4000
    570    591    601   1    112.7000    488.2728
    570    591    602   1    110.7000    313.8000
    592    591    601   1    109.5000    418.4000
    592    591    602   1    109.5000    292.8800
    601    591    602   1    110.7000    313.8000
    591    592    593   1    109.5000    502.0800
    592    593    594   1    109.5000    418.4000
    592    593    603   1    109.5000    292.8800
    592    593    604   1    109.5000    292.8800
    594    593    603   1    110.7000    313.8000
    594    593    604   1    110.7000    313.8000
    603    593    604   1    107.8000    276.1440
    593    594    595   1    112.7000    488.2728
    593    594    605   1    110.7000    313.8000
    593    594    606   1    110.7000    313.8000
    595    594    605   1    110.7000    313.8000
    595    594    606   1    110.7000    313.8000
    605    594    606   1    107.8000    276.1440
    594    595    596   1    112.7000    488.2728
    594    595    607   1    110.7000    313.8000
    594    595    608   1    110.7000    313.8000
    596    595    607   1    110.7000    313.8000
    596    595    608   1    110.7000    313.8000
    607    595    608   1    107.8000    276.1440
    595    596    597   1    112.7000    488.2728
    595    596    609   1    110.7000    313.8000
    595    596    610   1    110.7000    313.8000
    597    596    609   1    110.7000    313.8000
    597    596    610   1    110.7000    313.8000
    609    596    610   1    107.8000    276.1440
    596    597    598   1    112.7000    488.2728
    596    597    611   1    110.7000    313.8000
    596    597    612   1    110.7000    313.8000
    598    597    611   1    110.7000    313.8000
    598    597    612   1    110.7000    313.8000
    611    597    612   1    107.8000    276.1440
    597    598    599   1    112.7000    488.2728
    597    598    613   1    110.7000    313.8000
    597    598    614   1    110.7000    313.8000
    599    598    613   1    110.7000    313.8000
    599    598    614   1    110.7000    313.8000
    613    598    614   1    107.8000    276.1440
    598    599    600   1    112.7000    488.2728
    598    599    615   1    110.7000    313.8000
    598    599    616   1    110.7000    313.8000
    600    599    615   1    110.7000    313.8000
    600    599    616   1    110.7000    313.8000
    615    599    616   1    107.8000    276.1440
    599    600    617   1    110.7000    313.8000
    599    600    618   1    110.7000    313.8000
    599    600    619   1    110.7000    313.8000
    617    600    618   1    107.8000    276.1440
    617    600    619   1    107.8000    276.1440
    618    600    619   1    107.8000    276.1440
    591    601    620   1    110.7000    313.8000
    591    601    621   1    110.7000    313.8000
    591    601    622   1    110.7000    313.8000
    620    601    621   1    107.8000    276.1440
    620    601    622   1    107.8000    276.1440
    621    601    622   1    107.8000    276.1440

[ dihedrals ]
; Proper dihedrals
     11      1      2      3   5     0.52300    -0.09205     2.34722  0.0
     12      1      2      3   5     0.00000     0.00000     3.10034  0.0
     32      1      2      3   5     0.00000     0.00000     3.10034  0.0
      2      1     11     30   5     0.00000     0.00000     1.95811  0.0
      2      1     11     31   5     0.00000     0.00000     1.95811  0.0
      2      1     11     33   5     5.25092    -2.58990     2.28446  0.0
     12      1     11     30   5     0.00000     0.00000     1.25520  0.0
     12      1     11     31   5     0.00000     0.00000     1.25520  0.0
     12      1     11     33   5     0.00000     0.00000     1.25520  0.0
     32      1     11     30   5     0.00000     0.00000     1.25520  0.0
     32      1     11     31   5     0.00000     0.00000     1.25520  0.0
     32      1     11     33   5     0.00000     0.00000     1.25520  0.0
      1      2      3      4   5     0.52300    -0.09205     2.34722  0.0
      1      2      3     13   5     0.00000     0.00000     3.10034  0.0
      1      2      3     14   5     0.00000     0.00000     3.10034  0.0
      2      3      4      5   5     5.25092    -2.58990     2.28446  0.0
      2      3      4     15   5     0.00000     0.00000     1.95811  0.0
      2      3      4     16   5     0.00000     0.00000     1.95811  0.0
     13      3      4      5   5     0.00000     0.00000     1.25520  0.0
     13      3      4     15   5     0.00000     0.00000     1.25520  0.0
     13      3      4     16   5     0.00000     0.00000     1.25520  0.0
     14      3      4      5   5     0.00000     0.00000     1.25520  0.0
     14      3      4     15   5     0.00000     0.00000     1.25520  0.0
     14      3      4     16   5     0.00000     0.00000     1.25520  0.0
      3      4      5      6   5     4.74884    -0.63178     1.67360  0.0
      3      4      5     17   5     0.00000     0.00000     1.25520  0.0
      3      4      5     18   5     0.00000     0.00000     1.25520  0.0
     15      4      5      6   5     0.00000     0.00000     1.25520  0.0
     15      4      5     17   5     0.00000     0.00000     1.25520  0.0
     15      4      5     18   5     0.00000     0.00000     1.25520  0.0
     16      4      5      6   5     0.00000     0.00000     1.25520  0.0
     16      4      5     17   5     0.00000     0.00000     1.25520  0.0
     16      4      5     18   5     0.00000     0.00000     1.25520  0.0
      4      5      6      7   5     4.74884    -0.63178     1.67360  0.0
      4      5      6     19   5     0.00000     0.00000     1.25520  0.0
      4      5      6     20   5     0.00000     0.00000     1.25520  0.0
     17      5      6      7   5     0.00000     0.00000     1.25520  0.0
     17      5      6     19   5     0.00000     0.00000     1.25520  0.0
     17      5      6     20   5     0.00000     0.00000     1.25520  0.0
     18      5      6      7   5     0.00000     0.00000     1.25520  0.0
     18      5      6     19   5     0.00000     0.00000     1.25520  0.0
     18      5      6     20   5     0.00000     0.00000     1.25520  0.0
      5      6      7      8   5     4.74884    -0.63178     1.67360  0.0
      5      6      7     21   5     0.00000     0.00000     1.25520  0.0
      5      6      7     22   5     0.00000     0.00000     1.25520  0.0
     19      6      7      8   5     0.00000     0.00000     1.25520  0.0
     19      6      7     21   5     0.00000     0.00000     1.25520  0.0
     19      6      7     22   5     0.00000     0.00000     1.25520  0.0
     20      6      7      8   5     0.00000     0.00000     1.25520  0.0
     20      6      7     21   5     0.00000     0.00000     1.25520  0.0
     20      6      7     22   5     0.00000     0.00000     1.25520  0.0
      6      7      8      9   5     4.74884    -0.63178     1.67360  0.0
      6      7      8     23   5     0.00000     0.00000     1.25520  0.0
      6      7      8     24   5     0.00000     0.00000     1.25520  0.0
     21      7      8      9   5     0.00000     0.00000     1.25520  0.0
     21      7      8     23   5     0.00000     0.00000     1.25520  0.0
     21      7      8     24   5     0.00000     0.00000     1.25520  0.0
     22      7      8      9   5     0.00000     0.00000     1.25520  0.0
     22      7      8     23   5     0.00000     0.00000     1.25520  0.0
     22      7      8     24   5     0.00000     0.00000     1.25520  0.0
      7      8      9     10   5     4.74884    -0.63178     1.67360  0.0
      7      8      9     25   5     0.00000     0.00000     1.25520  0.0
      7      8      9     26   5     0.00000     0.00000     1.25520  0.0
     23      8      9     10   5     0.00000     0.00000     1.25520  0.0
     23      8      9     25   5     0.00000     0.00000     1.25520  0.0
     23      8      9     26   5     0.00000     0.00000     1.25520  0.0
     24      8      9     10   5     0.00000     0.00000     1.25520  0.0
     24      8      9     25   5     0.00000     0.00000     1.25520  0.0
     24      8      9     26   5     0.00000     0.00000     1.25520  0.0
      8      9     10     27   5     0.00000     0.00000     1.25520  0.0
      8      9     10     28   5     0.00000     0.00000     1.25520  0.0
      8      9     10     29   5     0.00000     0.00000     1.25520  0.0
     25      9     10     27   5     0.00000     0.00000     1.25520  0.0
     25      9     10     28   5     0.00000     0.00000     1.25520  0.0
     25      9     10     29   5     0.00000     0.00000     1.25520  0.0
     26      9     10     27   5     0.00000     0.00000     1.25520  0.0
     26      9     10     28   5     0.00000     0.00000     1.25520  0.0
     26      9     10     29   5     0.00000     0.00000     1.25520  0.0
      1     11     33     34   5     5.25092    -2.58990     2.28446  0.0
      1     11     33     43   5     4.74884    -0.63178     1.67360  0.0
      1     11     33     44   5     0.00000     0.00000     1.25520  0.0
     30     11     33     34   5     0.00000     0.00000     1.95811  0.0
     30     11     33     43   5     0.00000     0.00000     1.25520  0.0
     30     11     33     44   5     0.00000     0.00000     1.25520  0.0
     31     11     33     34   5     0.00000     0.00000     1.95811  0.0
     31     11     33     43   5     0.00000     0.00000     1.25520  0.0
     31     11     33     44   5     0.00000     0.00000     1.25520  0.0
     11     33     34     35   5     0.52300    -0.09205     2.34722  0.0
     43     33     34     35   5     0.52300    -0.09205     2.34722  0.0
     44     33     34     35   5     0.00000     0.00000     3.10034  0.0
     11     33     43     62   5     0.00000     0.00000     1.25520  0.0
     11     33     43     63   5     0.00000     0.00000     1.25520  0.0
     11     33     43     64   5     4.74884    -0.63178     1.67360  0.0
     34     33     43     62   5     0.00000     0.00000     1.95811  0.0
     34     33     43     63   5     0.00000     0.00000     1.95811  0.0
     34     33     43     64   5     5.25092    -2.58990     2.28446  0.0
     44     33     43     62   5     0.00000     0.00000     1.25520  0.0
     44     33     43     63   5     0.00000     0.00000     1.25520  0.0
     44     33     43     64   5     0.00000     0.00000     1.25520  0.0
     33     34     35     36   5     0.52300    -0.09205     2.34722  0.0
     33     34     35     45   5     0.00000     0.00000     3.10034  0.0
     33     34     35     46   5     0.00000     0.00000     3.10034  0.0
     34     35     36     37   5     5.25092    -2.58990     2.28446  0.0
     34     35     36     47   5     0.00000     0.00000     1.95811  0.0
     34     35     36     48   5     0.00000     0.00000     1.95811  0.0
     45     35     36     37   5     0.00000     0.00000     1.25520  0.0
     45     35     36     47   5     0.00000     0.00000     1.25520  0.0
     45     35     36     48   5     0.00000     0.00000     1.25520  0.0
     46     35     36     37   5     0.00000     0.00000     1.25520  0.0
     46     35     36     47   5     0.00000     0.00000     1.25520  0.0
     46     35     36     48   5     0.00000     0.00000     1.25520  0.0
     35     36     37     38   5     4.74884    -0.63178     1.67360  0.0
     35     36     37     49   5     0.00000     0.00000     1.25520  0.0
     35     36     37     50   5     0.00000     0.00000     1.25520  0.0
     47     36     37     38   5     0.00000     0.00000     1.25520  0.0
     47     36     37     49   5     0.00000     0.00000     1.25520  0.0
     47     36     37     50   5     0.00000     0.00000     1.25520  0.0
     48     36     37     38   5     0.00000     0.00000     1.25520  0.0
     48     36     37     49   5     0.00000     0.00000     1.25520  0.0
     48     36     37     50   5     0.00000     0.00000     1.25520  0.0
     36     37     38     39   5     4.74884    -0.63178     1.67360  0.0
     36     37     38     51   5     0.00000     0.00000     1.25520  0.0
     36     37     38     52   5     0.00000     0.00000     1.25520  0.0
     49     37     38     39   5     0.00000     0.00000     1.25520  0.0
     49     37     38     51   5     0.00000     0.00000     1.25520  0.0
     49     37     38     52   5     0.00000     0.00000     1.25520  0.0
     50     37     38     39   5     0.00000     0.00000     1.25520  0.0
     50     37     38     51   5     0.00000     0.00000     1.25520  0.0
     50     37     38     52   5     0.00000     0.00000     1.25520  0.0
     37     38     39     40   5     4.74884    -0.63178     1.67360  0.0
     37     38     39     53   5     0.00000     0.00000     1.25520  0.0
     37     38     39     54   5     0.00000     0.00000     1.25520  0.0
     51     38     39     40   5     0.00000     0.00000     1.25520  0.0
     51     38     39     53   5     0.00000     0.00000     1.25520  0.0
     51     38     39     54   5     0.00000     0.00000     1.25520  0.0
     52     38     39     40   5     0.00000     0.00000     1.25520  0.0
     52     38     39     53   5     0.00000     0.00000     1.25520  0.0
     52     38     39     54   5     0.00000     0.00000     1.25520  0.0
     38     39     40     41   5     4.74884    -0.63178     1.67360  0.0
     38     39     40     55   5     0.00000     0.00000     1.25520  0.0
     38     39     40     56   5     0.00000     0.00000     1.25520  0.0
     53     39     40     41   5     0.00000     0.00000     1.25520  0.0
     53     39     40     55   5     0.00000     0.00000     1.25520  0.0
     53     39     40     56   5     0.00000     0.00000     1.25520  0.0
     54     39     40     41   5     0.00000     0.00000     1.25520  0.0
     54     39     40     55   5     0.00000     0.00000     1.25520  0.0
     54     39     40     56   5     0.00000     0.00000     1.25520  0.0
     39     40     41     42   5     4.74884    -0.63178     1.67360  0.0
     39     40     41     57   5     0.00000     0.00000     1.25520  0.0
     39     40     41     58   5     0.00000     0.00000     1.25520  0.0
     55     40     41     42   5     0.00000     0.00000     1.25520  0.0
     55     40     41     57   5     0.00000     0.00000     1.25520  0.0
     55     40     41     58   5     0.00000     0.00000     1.25520  0.0
     56     40     41     42   5     0.00000     0.00000     1.25520  0.0
     56     40     41     57   5     0.00000     0.00000     1.25520  0.0
     56     40     41     58   5     0.00000     0.00000     1.25520  0.0
     40     41     42     59   5     0.00000     0.00000     1.25520  0.0
     40     41     42     60   5     0.00000     0.00000     1.25520  0.0
     40     41     42     61   5     0.00000     0.00000     1.25520  0.0
     57     41     42     59   5     0.00000     0.00000     1.25520  0.0
     57     41     42     60   5     0.00000     0.00000     1.25520  0.0
     57     41     42     61   5     0.00000     0.00000     1.25520  0.0
     58     41     42     59   5     0.00000     0.00000     1.25520  0.0
     58     41     42     60   5     0.00000     0.00000     1.25520  0.0
     58     41     42     61   5     0.00000     0.00000     1.25520  0.0
     33     43     64     65   5     5.25092    -2.58990     2.28446  0.0
     33     43     64     74   5     4.74884    -0.63178     1.67360  0.0
     33     43     64     75   5     0.00000     0.00000     1.25520  0.0
     62     43     64     65   5     0.00000     0.00000     1.95811  0.0
     62     43     64     74   5     0.00000     0.00000     1.25520  0.0
     62     43     64     75   5     0.00000     0.00000     1.25520  0.0
     63     43     64     65   5     0.00000     0.00000     1.95811  0.0
     63     43     64     74   5     0.00000     0.00000     1.25520  0.0
     63     43     64     75   5     0.00000     0.00000     1.25520  0.0
     43     64     65     66   5     0.52300    -0.09205     2.34722  0.0
     74     64     65     66   5     0.52300    -0.09205     2.34722  0.0
     75     64     65     66   5     0.00000     0.00000     3.10034  0.0
     43     64     74     93   5     0.00000     0.00000     1.25520  0.0
     43     64     74     94   5     0.00000     0.00000     1.25520  0.0
     43     64     74     95   5     4.74884    -0.63178     1.67360  0.0
     65     64     74     93   5     0.00000     0.00000     1.95811  0.0
     65     64     74     94   5     0.00000     0.00000     1.95811  0.0
     65     64     74     95   5     5.25092    -2.58990     2.28446  0.0
     75     64     74     93   5     0.00000     0.00000     1.25520  0.0
     75     64     74     94   5     0.00000     0.00000     1.25520  0.0
     75     64     74     95   5     0.00000     0.00000     1.25520  0.0
     64     65     66     67   5     0.52300    -0.09205     2.34722  0.0
     64     65     66     76   5     0.00000     0.00000     3.10034  0.0
     64     65     66     77   5     0.00000     0.00000     3.10034  0.0
     65     66     67     68   5     5.25092    -2.58990     2.28446  0.0
     65     66     67     78   5     0.00000     0.00000     1.95811  0.0
     65     66     67     79   5     0.00000     0.00000     1.95811  0.0
     76     66     67     68   5     0.00000     0.00000     1.25520  0.0
     76     66     67     78   5     0.00000     0.00000     1.25520  0.0
     76     66     67     79   5     0.00000     0.00000     1.25520  0.0
     77     66     67     68   5     0.00000     0.00000     1.25520  0.0
     77     66     67     78   5     0.00000     0.00000     1.25520  0.0
     77     66     67     79   5     0.00000     0.00000     1.25520  0.0
     66     67     68     69   5     4.74884    -0.63178     1.67360  0.0
     66     67     68     80   5     0.00000     0.00000     1.25520  0.0
     66     67     68     81   5     0.00000     0.00000     1.25520  0.0
     78     67     68     69   5     0.00000     0.00000     1.25520  0.0
     78     67     68     80   5     0.00000     0.00000     1.25520  0.0
     78     67     68     81   5     0.00000     0.00000     1.25520  0.0
     79     67     68     69   5     0.00000     0.00000     1.25520  0.0
     79     67     68     80   5     0.00000     0.00000     1.25520  0.0
     79     67     68     81   5     0.00000     0.00000     1.25520  0.0
     67     68     69     70   5     4.74884    -0.63178     1.67360  0.0
     67     68     69     82   5     0.00000     0.00000     1.25520  0.0
     67     68     69     83   5     0.00000     0.00000     1.25520  0.0
     80     68     69     70   5     0.00000     0.00000     1.25520  0.0
     80     68     69     82   5     0.00000     0.00000     1.25520  0.0
     80     68     69     83   5     0.00000     0.00000     1.25520  0.0
     81     68     69     70   5     0.00000     0.00000     1.25520  0.0
     81     68     69     82   5     0.00000     0.00000     1.25520  0.0
     81     68     69     83   5     0.00000     0.00000     1.25520  0.0
     68     69     70     71   5     4.74884    -0.63178     1.67360  0.0
     68     69     70     84   5     0.00000     0.00000     1.25520  0.0
     68     69     70     85   5     0.00000     0.00000     1.25520  0.0
     82     69     70     71   5     0.00000     0.00000     1.25520  0.0
     82     69     70     84   5     0.00000     0.00000     1.25520  0.0
     82     69     70     85   5     0.00000     0.00000     1.25520  0.0
     83     69     70     71   5     0.00000     0.00000     1.25520  0.0
     83     69     70     84   5     0.00000     0.00000     1.25520  0.0
     83     69     70     85   5     0.00000     0.00000     1.25520  0.0
     69     70     71     72   5     4.74884    -0.63178     1.67360  0.0
     69     70     71     86   5     0.00000     0.00000     1.25520  0.0
     69     70     71     87   5     0.00000     0.00000     1.25520  0.0
     84     70     71     72   5     0.00000     0.00000     1.25520  0.0
     84     70     71     86   5     0.00000     0.00000     1.25520  0.0
     84     70     71     87   5     0.00000     0.00000     1.25520  0.0
     85     70     71     72   5     0.00000     0.00000     1.25520  0.0
     85     70     71     86   5     0.00000     0.00000     1.25520  0.0
     85     70     71     87   5     0.00000     0.00000     1.25520  0.0
     70     71     72     73   5     4.74884    -0.63178     1.67360  0.0
     70     71     72     88   5     0.00000     0.00000     1.25520  0.0
     70     71     72     89   5     0.00000     0.00000     1.25520  0.0
     86     71     72     73   5     0.00000     0.00000     1.25520  0.0
     86     71     72     88   5     0.00000     0.00000     1.25520  0.0
     86     71     72     89   5     0.00000     0.00000     1.25520  0.0
     87     71     72     73   5     0.00000     0.00000     1.25520  0.0
     87     71     72     88   5     0.00000     0.00000     1.25520  0.0
     87     71     72     89   5     0.00000     0.00000     1.25520  0.0
     71     72     73     90   5     0.00000     0.00000     1.25520  0.0
     71     72     73     91   5     0.00000     0.00000     1.25520  0.0
     71     72     73     92   5     0.00000     0.00000     1.25520  0.0
     88     72     73     90   5     0.00000     0.00000     1.25520  0.0
     88     72     73     91   5     0.00000     0.00000     1.25520  0.0
     88     72     73     92   5     0.00000     0.00000     1.25520  0.0
     89     72     73     90   5     0.00000     0.00000     1.25520  0.0
     89     72     73     91   5     0.00000     0.00000     1.25520  0.0
     89     72     73     92   5     0.00000     0.00000     1.25520  0.0
     64     74     95     96   5     5.25092    -2.58990     2.28446  0.0
     64     74     95    105   5     4.74884    -0.63178     1.67360  0.0
     64     74     95    106   5     0.00000     0.00000     1.25520  0.0
     93     74     95     96   5     0.00000     0.00000     1.95811  0.0
     93     74     95    105   5     0.00000     0.00000     1.25520  0.0
     93     74     95    106   5     0.00000     0.00000     1.25520  0.0
     94     74     95     96   5     0.00000     0.00000     1.95811  0.0
     94     74     95    105   5     0.00000     0.00000     1.25520  0.0
     94     74     95    106   5     0.00000     0.00000     1.25520  0.0
     74     95     96     97   5     0.52300    -0.09205     2.34722  0.0
    105     95     96     97   5     0.52300    -0.09205     2.34722  0.0
    106     95     96     97   5     0.00000     0.00000     3.10034  0.0
     74     95    105    124   5     0.00000     0.00000     1.25520  0.0
     74     95    105    125   5     0.00000     0.00000     1.25520  0.0
     74     95    105    126   5     4.74884    -0.63178     1.67360  0.0
     96     95    105    124   5     0.00000     0.00000     1.95811  0.0
     96     95    105    125   5     0.00000     0.00000     1.95811  0.0
     96     95    105    126   5     5.25092    -2.58990     2.28446  0.0
    106     95    105    124   5     0.00000     0.00000     1.25520  0.0
    106     95    105    125   5     0.00000     0.00000     1.25520  0.0
    106     95    105    126   5     0.00000     0.00000     1.25520  0.0
     95     96     97     98   5     0.52300    -0.09205     2.34722  0.0
     95     96     97    107   5     0.00000     0.00000     3.10034  0.0
     95     96     97    108   5     0.00000     0.00000     3.10034  0.0
     96     97     98     99   5     5.25092    -2.58990     2.28446  0.0
     96     97     98    109   5     0.00000     0.00000     1.95811  0.0
     96     97     98    110   5     0.00000     0.00000     1.95811  0.0
    107     97     98     99   5     0.00000     0.00000     1.25520  0.0
    107     97     98    109   5     0.00000     0.00000     1.25520  0.0
    107     97     98    110   5     0.00000     0.00000     1.25520  0.0
    108     97     98     99   5     0.00000     0.00000     1.25520  0.0
    108     97     98    109   5     0.00000     0.00000     1.25520  0.0
    108     97     98    110   5     0.00000     0.00000     1.25520  0.0
     97     98     99    100   5     4.74884    -0.63178     1.67360  0.0
     97     98     99    111   5     0.00000     0.00000     1.25520  0.0
     97     98     99    112   5     0.00000     0.00000     1.25520  0.0
    109     98     99    100   5     0.00000     0.00000     1.25520  0.0
    109     98     99    111   5     0.00000     0.00000     1.25520  0.0
    109     98     99    112   5     0.00000     0.00000     1.25520  0.0
    110     98     99    100   5     0.00000     0.00000     1.25520  0.0
    110     98     99    111   5     0.00000     0.00000     1.25520  0.0
    110     98     99    112   5     0.00000     0.00000     1.25520  0.0
     98     99    100    101   5     4.74884    -0.63178     1.67360  0.0
     98     99    100    113   5     0.00000     0.00000     1.25520  0.0
     98     99    100    114   5     0.00000     0.00000     1.25520  0.0
    111     99    100    101   5     0.00000     0.00000     1.25520  0.0
    111     99    100    113   5     0.00000     0.00000     1.25520  0.0
    111     99    100    114   5     0.00000     0.00000     1.25520  0.0
    112     99    100    101   5     0.00000     0.00000     1.25520  0.0
    112     99    100    113   5     0.00000     0.00000     1.25520  0.0
    112     99    100    114   5     0.00000     0.00000     1.25520  0.0
     99    100    101    102   5     4.74884    -0.63178     1.67360  0.0
     99    100    101    115   5     0.00000     0.00000     1.25520  0.0
     99    100    101    116   5     0.00000     0.00000     1.25520  0.0
    113    100    101    102   5     0.00000     0.00000     1.25520  0.0
    113    100    101    115   5     0.00000     0.00000     1.25520  0.0
    113    100    101    116   5     0.00000     0.00000     1.25520  0.0
    114    100    101    102   5     0.00000     0.00000     1.25520  0.0
    114    100    101    115   5     0.00000     0.00000     1.25520  0.0
    114    100    101    116   5     0.00000     0.00000     1.25520  0.0
    100    101    102    103   5     4.74884    -0.63178     1.67360  0.0
    100    101    102    117   5     0.00000     0.00000     1.25520  0.0
    100    101    102    118   5     0.00000     0.00000     1.25520  0.0
    115    101    102    103   5     0.00000     0.00000     1.25520  0.0
    115    101    102    117   5     0.00000     0.00000     1.25520  0.0
    115    101    102    118   5     0.00000     0.00000     1.25520  0.0
    116    101    102    103   5     0.00000     0.00000     1.25520  0.0
    116    101    102    117   5     0.00000     0.00000     1.25520  0.0
    116    101    102    118   5     0.00000     0.00000     1.25520  0.0
    101    102    103    104   5     4.74884    -0.63178     1.67360  0.0
    101    102    103    119   5     0.00000     0.00000     1.25520  0.0
    101    102    103    120   5     0.00000     0.00000     1.25520  0.0
    117    102    103    104   5     0.00000     0.00000     1.25520  0.0
    117    102    103    119   5     0.00000     0.00000     1.25520  0.0
    117    102    103    120   5     0.00000     0.00000     1.25520  0.0
    118    102    103    104   5     0.00000     0.00000     1.25520  0.0
    118    102    103    119   5     0.00000     0.00000     1.25520  0.0
    118    102    103    120   5     0.00000     0.00000     1.25520  0.0
    102    103    104    121   5     0.00000     0.00000     1.25520  0.0
    102    103    104    122   5     0.00000     0.00000     1.25520  0.0
    102    103    104    123   5     0.00000     0.00000     1.25520  0.0
    119    103    104    121   5     0.00000     0.00000     1.25520  0.0
    119    103    104    122   5     0.00000     0.00000     1.25520  0.0
    119    103    104    123   5     0.00000     0.00000     1.25520  0.0
    120    103    104    121   5     0.00000     0.00000     1.25520  0.0
    120    103    104    122   5     0.00000     0.00000     1.25520  0.0
    120    103    104    123   5     0.00000     0.00000     1.25520  0.0
     95    105    126    127   5     5.25092    -2.58990     2.28446  0.0
     95    105    126    136   5     4.74884    -0.63178     1.67360  0.0
     95    105    126    137   5     0.00000     0.00000     1.25520  0.0
    124    105    126    127   5     0.00000     0.00000     1.95811  0.0
    124    105    126    136   5     0.00000     0.00000     1.25520  0.0
    124    105    126    137   5     0.00000     0.00000     1.25520  0.0
    125    105    126    127   5     0.00000     0.00000     1.95811  0.0
    125    105    126    136   5     0.00000     0.00000     1.25520  0.0
    125    105    126    137   5     0.00000     0.00000     1.25520  0.0
    105    126    127    128   5     0.52300    -0.09205     2.34722  0.0
    136    126    127    128   5     0.52300    -0.09205     2.34722  0.0
    137    126    127    128   5     0.00000     0.00000     3.10034  0.0
    105    126    136    155   5     0.00000     0.00000     1.25520  0.0
    105    126    136    156   5     0.00000     0.00000     1.25520  0.0
    105    126    136    157   5     4.74884    -0.63178     1.67360  0.0
    127    126    136    155   5     0.00000     0.00000     1.95811  0.0
    127    126    136    156   5     0.00000     0.00000     1.95811  0.0
    127    126    136    157   5     5.25092    -2.58990     2.28446  0.0
    137    126    136    155   5     0.00000     0.00000     1.25520  0.0
    137    126    136    156   5     0.00000     0.00000     1.25520  0.0
    137    126    136    157   5     0.00000     0.00000     1.25520  0.0
    126    127    128    129   5     0.52300    -0.09205     2.34722  0.0
    126    127    128    138   5     0.00000     0.00000     3.10034  0.0
    126    127    128    139   5     0.00000     0.00000     3.10034  0.0
    127    128    129    130   5     5.25092    -2.58990     2.28446  0.0
    127    128    129    140   5     0.00000     0.00000     1.95811  0.0
    127    128    129    141   5     0.00000     0.00000     1.95811  0.0
    138    128    129    130   5     0.00000     0.00000     1.25520  0.0
    138    128    129    140   5     0.00000     0.00000     1.25520  0.0
    138    128    129    141   5     0.00000     0.00000     1.25520  0.0
    139    128    129    130   5     0.00000     0.00000     1.25520  0.0
    139    128    129    140   5     0.00000     0.00000     1.25520  0.0
    139    128    129    141   5     0.00000     0.00000     1.25520  0.0
    128    129    130    131   5     4.74884    -0.63178     1.67360  0.0
    128    129    130    142   5     0.00000     0.00000     1.25520  0.0
    128    129    130    143   5     0.00000     0.00000     1.25520  0.0
    140    129    130    131   5     0.00000     0.00000     1.25520  0.0
    140    129    130    142   5     0.00000     0.00000     1.25520  0.0
    140    129    130    143   5     0.00000     0.00000     1.25520  0.0
    141    129    130    131   5     0.00000     0.00000     1.25520  0.0
    141    129    130    142   5     0.00000     0.00000     1.25520  0.0
    141    129    130    143   5     0.00000     0.00000     1.25520  0.0
    129    130    131    132   5     4.74884    -0.63178     1.67360  0.0
    129    130    131    144   5     0.00000     0.00000     1.25520  0.0
    129    130    131    145   5     0.00000     0.00000     1.25520  0.0
    142    130    131    132   5     0.00000     0.00000     1.25520  0.0
    142    130    131    144   5     0.00000     0.00000     1.25520  0.0
    142    130    131    145   5     0.00000     0.00000     1.25520  0.0
    143    130    131    132   5     0.00000     0.00000     1.25520  0.0
    143    130    131    144   5     0.00000     0.00000     1.25520  0.0
    143    130    131    145   5     0.00000     0.00000     1.25520  0.0
    130    131    132    133   5     4.74884    -0.63178     1.67360  0.0
    130    131    132    146   5     0.00000     0.00000     1.25520  0.0
    130    131    132    147   5     0.00000     0.00000     1.25520  0.0
    144    131    132    133   5     0.00000     0.00000     1.25520  0.0
    144    131    132    146   5     0.00000     0.00000     1.25520  0.0
    144    131    132    147   5     0.00000     0.00000     1.25520  0.0
    145    131    132    133   5     0.00000     0.00000     1.25520  0.0
    145    131    132    146   5     0.00000     0.00000     1.25520  0.0
    145    131    132    147   5     0.00000     0.00000     1.25520  0.0
    131    132    133    134   5     4.74884    -0.63178     1.67360  0.0
    131    132    133    148   5     0.00000     0.00000     1.25520  0.0
    131    132    133    149   5     0.00000     0.00000     1.25520  0.0
    146    132    133    134   5     0.00000     0.00000     1.25520  0.0
    146    132    133    148   5     0.00000     0.00000     1.25520  0.0
    146    132    133    149   5     0.00000     0.00000     1.25520  0.0
    147    132    133    134   5     0.00000     0.00000     1.25520  0.0
    147    132    133    148   5     0.00000     0.00000     1.25520  0.0
    147    132    133    149   5     0.00000     0.00000     1.25520  0.0
    132    133    134    135   5     4.74884    -0.63178     1.67360  0.0
    132    133    134    150   5     0.00000     0.00000     1.25520  0.0
    132    133    134    151   5     0.00000     0.00000     1.25520  0.0
    148    133    134    135   5     0.00000     0.00000     1.25520  0.0
    148    133    134    150   5     0.00000     0.00000     1.25520  0.0
    148    133    134    151   5     0.00000     0.00000     1.25520  0.0
    149    133    134    135   5     0.00000     0.00000     1.25520  0.0
    149    133    134    150   5     0.00000     0.00000     1.25520  0.0
    149    133    134    151   5     0.00000     0.00000     1.25520  0.0
    133    134    135    152   5     0.00000     0.00000     1.25520  0.0
    133    134    135    153   5     0.00000     0.00000     1.25520  0.0
    133    134    135    154   5     0.00000     0.00000     1.25520  0.0
    150    134    135    152   5     0.00000     0.00000     1.25520  0.0
    150    134    135    153   5     0.00000     0.00000     1.25520  0.0
    150    134    135    154   5     0.00000     0.00000     1.25520  0.0
    151    134    135    152   5     0.00000     0.00000     1.25520  0.0
    151    134    135    153   5     0.00000     0.00000     1.25520  0.0
    151    134    135    154   5     0.00000     0.00000     1.25520  0.0
    126    136    157    158   5     5.25092    -2.58990     2.28446  0.0
    126    136    157    167   5     4.74884    -0.63178     1.67360  0.0
    126    136    157    168   5     0.00000     0.00000     1.25520  0.0
    155    136    157    158   5     0.00000     0.00000     1.95811  0.0
    155    136    157    167   5     0.00000     0.00000     1.25520  0.0
    155    136    157    168   5     0.00000     0.00000     1.25520  0.0
    156    136    157    158   5     0.00000     0.00000     1.95811  0.0
    156    136    157    167   5     0.00000     0.00000     1.25520  0.0
    156    136    157    168   5     0.00000     0.00000     1.25520  0.0
    136    157    158    159   5     0.52300    -0.09205     2.34722  0.0
    167    157    158    159   5     0.52300    -0.09205     2.34722  0.0
    168    157    158    159   5     0.00000     0.00000     3.10034  0.0
    136    157    167    186   5     0.00000     0.00000     1.25520  0.0
    136    157    167    187   5     0.00000     0.00000     1.25520  0.0
    136    157    167    188   5     4.74884    -0.63178     1.67360  0.0
    158    157    167    186   5     0.00000     0.00000     1.95811  0.0
    158    157    167    187   5     0.00000     0.00000     1.95811  0.0
    158    157    167    188   5     5.25092    -2.58990     2.28446  0.0
    168    157    167    186   5     0.00000     0.00000     1.25520  0.0
    168    157    167    187   5     0.00000     0.00000     1.25520  0.0
    168    157    167    188   5     0.00000     0.00000     1.25520  0.0
    157    158    159    160   5     0.52300    -0.09205     2.34722  0.0
    157    158    159    169   5     0.00000     0.00000     3.10034  0.0
    157    158    159    170   5     0.00000     0.00000     3.10034  0.0
    158    159    160    161   5     5.25092    -2.58990     2.28446  0.0
    158    159    160    171   5     0.00000     0.00000     1.95811  0.0
    158    159    160    172   5     0.00000     0.00000     1.95811  0.0
    169    159    160    161   5     0.00000     0.00000     1.25520  0.0
    169    159    160    171   5     0.00000     0.00000     1.25520  0.0
    169    159    160    172   5     0.00000     0.00000     1.25520  0.0
    170    159    160    161   5     0.00000     0.00000     1.25520  0.0
    170    159    160    171   5     0.00000     0.00000     1.25520  0.0
    170    159    160    172   5     0.00000     0.00000     1.25520  0.0
    159    160    161    162   5     4.74884    -0.63178     1.67360  0.0
    159    160    161    173   5     0.00000     0.00000     1.25520  0.0
    159    160    161    174   5     0.00000     0.00000     1.25520  0.0
    171    160    161    162   5     0.00000     0.00000     1.25520  0.0
    171    160    161    173   5     0.00000     0.00000     1.25520  0.0
    171    160    161    174   5     0.00000     0.00000     1.25520  0.0
    172    160    161    162   5     0.00000     0.00000     1.25520  0.0
    172    160    161    173   5     0.00000     0.00000     1.25520  0.0
    172    160    161    174   5     0.00000     0.00000     1.25520  0.0
    160    161    162    163   5     4.74884    -0.63178     1.67360  0.0
    160    161    162    175   5     0.00000     0.00000     1.25520  0.0
    160    161    162    176   5     0.00000     0.00000     1.25520  0.0
    173    161    162    163   5     0.00000     0.00000     1.25520  0.0
    173    161    162    175   5     0.00000     0.00000     1.25520  0.0
    173    161    162    176   5     0.00000     0.00000     1.25520  0.0
    174    161    162    163   5     0.00000     0.00000     1.25520  0.0
    174    161    162    175   5     0.00000     0.00000     1.25520  0.0
    174    161    162    176   5     0.00000     0.00000     1.25520  0.0
    161    162    163    164   5     4.74884    -0.63178     1.67360  0.0
    161    162    163    177   5     0.00000     0.00000     1.25520  0.0
    161    162    163    178   5     0.00000     0.00000     1.25520  0.0
    175    162    163    164   5     0.00000     0.00000     1.25520  0.0
    175    162    163    177   5     0.00000     0.00000     1.25520  0.0
    175    162    163    178   5     0.00000     0.00000     1.25520  0.0
    176    162    163    164   5     0.00000     0.00000     1.25520  0.0
    176    162    163    177   5     0.00000     0.00000     1.25520  0.0
    176    162    163    178   5     0.00000     0.00000     1.25520  0.0
    162    163    164    165   5     4.74884    -0.63178     1.67360  0.0
    162    163    164    179   5     0.00000     0.00000     1.25520  0.0
    162    163    164    180   5     0.00000     0.00000     1.25520  0.0
    177    163    164    165   5     0.00000     0.00000     1.25520  0.0
    177    163    164    179   5     0.00000     0.00000     1.25520  0.0
    177    163    164    180   5     0.00000     0.00000     1.25520  0.0
    178    163    164    165   5     0.00000     0.00000     1.25520  0.0
    178    163    164    179   5     0.00000     0.00000     1.25520  0.0
    178    163    164    180   5     0.00000     0.00000     1.25520  0.0
    163    164    165    166   5     4.74884    -0.63178     1.67360  0.0
    163    164    165    181   5     0.00000     0.00000     1.25520  0.0
    163    164    165    182   5     0.00000     0.00000     1.25520  0.0
    179    164    165    166   5     0.00000     0.00000     1.25520  0.0
    179    164    165    181   5     0.00000     0.00000     1.25520  0.0
    179    164    165    182   5     0.00000     0.00000     1.25520  0.0
    180    164    165    166   5     0.00000     0.00000     1.25520  0.0
    180    164    165    181   5     0.00000     0.00000     1.25520  0.0
    180    164    165    182   5     0.00000     0.00000     1.25520  0.0
    164    165    166    183   5     0.00000     0.00000     1.25520  0.0
    164    165    166    184   5     0.00000     0.00000     1.25520  0.0
    164    165    166    185   5     0.00000     0.00000     1.25520  0.0
    181    165    166    183   5     0.00000     0.00000     1.25520  0.0
    181    165    166    184   5     0.00000     0.00000     1.25520  0.0
    181    165    166    185   5     0.00000     0.00000     1.25520  0.0
    182    165    166    183   5     0.00000     0.00000     1.25520  0.0
    182    165    166    184   5     0.00000     0.00000     1.25520  0.0
    182    165    166    185   5     0.00000     0.00000     1.25520  0.0
    157    167    188    189   5     5.25092    -2.58990     2.28446  0.0
    157    167    188    198   5     4.74884    -0.63178     1.67360  0.0
    157    167    188    199   5     0.00000     0.00000     1.25520  0.0
    186    167    188    189   5     0.00000     0.00000     1.95811  0.0
    186    167    188    198   5     0.00000     0.00000     1.25520  0.0
    186    167    188    199   5     0.00000     0.00000     1.25520  0.0
    187    167    188    189   5     0.00000     0.00000     1.95811  0.0
    187    167    188    198   5     0.00000     0.00000     1.25520  0.0
    187    167    188    199   5     0.00000     0.00000     1.25520  0.0
    167    188    189    190   5     0.52300    -0.09205     2.34722  0.0
    198    188    189    190   5     0.52300    -0.09205     2.34722  0.0
    199    188    189    190   5     0.00000     0.00000     3.10034  0.0
    167    188    198    217   5     0.00000     0.00000     1.25520  0.0
    167    188    198    218   5     0.00000     0.00000     1.25520  0.0
    167    188    198    219   5     4.74884    -0.63178     1.67360  0.0
    189    188    198    217   5     0.00000     0.00000     1.95811  0.0
    189    188    198    218   5     0.00000     0.00000     1.95811  0.0
    189    188    198    219   5     5.25092    -2.58990     2.28446  0.0
    199    188    198    217   5     0.00000     0.00000     1.25520  0.0
    199    188    198    218   5     0.00000     0.00000     1.25520  0.0
    199    188    198    219   5     0.00000     0.00000     1.25520  0.0
    188    189    190    191   5     0.52300    -0.09205     2.34722  0.0
    188    189    190    200   5     0.00000     0.00000     3.10034  0.0
    188    189    190    201   5     0.00000     0.00000     3.10034  0.0
    189    190    191    192   5     5.25092    -2.58990     2.28446  0.0
    189    190    191    202   5     0.00000     0.00000     1.95811  0.0
    189    190    191    203   5     0.00000     0.00000     1.95811  0.0
    200    190    191    192   5     0.00000     0.00000     1.25520  0.0
    200    190    191    202   5     0.00000     0.00000     1.25520  0.0
    200    190    191    203   5     0.00000     0.00000     1.25520  0.0
    201    190    191    192   5     0.00000     0.00000     1.25520  0.0
    201    190    191    202   5     0.00000     0.00000     1.25520  0.0
    201    190    191    203   5     0.00000     0.00000     1.25520  0.0
    190    191    192    193   5     4.74884    -0.63178     1.67360  0.0
    190    191    192    204   5     0.00000     0.00000     1.25520  0.0
    190    191    192    205   5     0.00000     0.00000     1.25520  0.0
    202    191    192    193   5     0.00000     0.00000     1.25520  0.0
    202    191    192    204   5     0.00000     0.00000     1.25520  0.0
    202    191    192    205   5     0.00000     0.00000     1.25520  0.0
    203    191    192    193   5     0.00000     0.00000     1.25520  0.0
    203    191    192    204   5     0.00000     0.00000     1.25520  0.0
    203    191    192    205   5     0.00000     0.00000     1.25520  0.0
    191    192    193    194   5     4.74884    -0.63178     1.67360  0.0
    191    192    193    206   5     0.00000     0.00000     1.25520  0.0
    191    192    193    207   5     0.00000     0.00000     1.25520  0.0
    204    192    193    194   5     0.00000     0.00000     1.25520  0.0
    204    192    193    206   5     0.00000     0.00000     1.25520  0.0
    204    192    193    207   5     0.00000     0.00000     1.25520  0.0
    205    192    193    194   5     0.00000     0.00000     1.25520  0.0
    205    192    193    206   5     0.00000     0.00000     1.25520  0.0
    205    192    193    207   5     0.00000     0.00000     1.25520  0.0
    192    193    194    195   5     4.74884    -0.63178     1.67360  0.0
    192    193    194    208   5     0.00000     0.00000     1.25520  0.0
    192    193    194    209   5     0.00000     0.00000     1.25520  0.0
    206    193    194    195   5     0.00000     0.00000     1.25520  0.0
    206    193    194    208   5     0.00000     0.00000     1.25520  0.0
    206    193    194    209   5     0.00000     0.00000     1.25520  0.0
    207    193    194    195   5     0.00000     0.00000     1.25520  0.0
    207    193    194    208   5     0.00000     0.00000     1.25520  0.0
    207    193    194    209   5     0.00000     0.00000     1.25520  0.0
    193    194    195    196   5     4.74884    -0.63178     1.67360  0.0
    193    194    195    210   5     0.00000     0.00000     1.25520  0.0
    193    194    195    211   5     0.00000     0.00000     1.25520  0.0
    208    194    195    196   5     0.00000     0.00000     1.25520  0.0
    208    194    195    210   5     0.00000     0.00000     1.25520  0.0
    208    194    195    211   5     0.00000     0.00000     1.25520  0.0
    209    194    195    196   5     0.00000     0.00000     1.25520  0.0
    209    194    195    210   5     0.00000     0.00000     1.25520  0.0
    209    194    195    211   5     0.00000     0.00000     1.25520  0.0
    194    195    196    197   5     4.74884    -0.63178     1.67360  0.0
    194    195    196    212   5     0.00000     0.00000     1.25520  0.0
    194    195    196    213   5     0.00000     0.00000     1.25520  0.0
    210    195    196    197   5     0.00000     0.00000     1.25520  0.0
    210    195    196    212   5     0.00000     0.00000     1.25520  0.0
    210    195    196    213   5     0.00000     0.00000     1.25520  0.0
    211    195    196    197   5     0.00000     0.00000     1.25520  0.0
    211    195    196    212   5     0.00000     0.00000     1.25520  0.0
    211    195    196    213   5     0.00000     0.00000     1.25520  0.0
    195    196    197    214   5     0.00000     0.00000     1.25520  0.0
    195    196    197    215   5     0.00000     0.00000     1.25520  0.0
    195    196    197    216   5     0.00000     0.00000     1.25520  0.0
    212    196    197    214   5     0.00000     0.00000     1.25520  0.0
    212    196    197    215   5     0.00000     0.00000     1.25520  0.0
    212    196    197    216   5     0.00000     0.00000     1.25520  0.0
    213    196    197    214   5     0.00000     0.00000     1.25520  0.0
    213    196    197    215   5     0.00000     0.00000     1.25520  0.0
    213    196    197    216   5     0.00000     0.00000     1.25520  0.0
    188    198    219    220   5     5.25092    -2.58990     2.28446  0.0
    188    198    219    229   5     4.74884    -0.63178     1.67360  0.0
    188    198    219    230   5     0.00000     0.00000     1.25520  0.0
    217    198    219    220   5     0.00000     0.00000     1.95811  0.0
    217    198    219    229   5     0.00000     0.00000     1.25520  0.0
    217    198    219    230   5     0.00000     0.00000     1.25520  0.0
    218    198    219    220   5     0.00000     0.00000     1.95811  0.0
    218    198    219    229   5     0.00000     0.00000     1.25520  0.0
    218    198    219    230   5     0.00000     0.00000     1.25520  0.0
    198    219    220    221   5     0.52300    -0.09205     2.34722  0.0
    229    219    220    221   5     0.52300    -0.09205     2.34722  0.0
    230    219    220    221   5     0.00000     0.00000     3.10034  0.0
    198    219    229    248   5     0.00000     0.00000     1.25520  0.0
    198    219    229    249   5     0.00000     0.00000     1.25520  0.0
    198    219    229    250   5     4.74884    -0.63178     1.67360  0.0
    220    219    229    248   5     0.00000     0.00000     1.95811  0.0
    220    219    229    249   5     0.00000     0.00000     1.95811  0.0
    220    219    229    250   5     5.25092    -2.58990     2.28446  0.0
    230    219    229    248   5     0.00000     0.00000     1.25520  0.0
    230    219    229    249   5     0.00000     0.00000     1.25520  0.0
    230    219    229    250   5     0.00000     0.00000     1.25520  0.0
    219    220    221    222   5     0.52300    -0.09205     2.34722  0.0
    219    220    221    231   5     0.00000     0.00000     3.10034  0.0
    219    220    221    232   5     0.00000     0.00000     3.10034  0.0
    220    221    222    223   5     5.25092    -2.58990     2.28446  0.0
    220    221    222    233   5     0.00000     0.00000     1.95811  0.0
    220    221    222    234   5     0.00000     0.00000     1.95811  0.0
    231    221    222    223   5     0.00000     0.00000     1.25520  0.0
    231    221    222    233   5     0.00000     0.00000     1.25520  0.0
    231    221    222    234   5     0.00000     0.00000     1.25520  0.0
    232    221    222    223   5     0.00000     0.00000     1.25520  0.0
    232    221    222    233   5     0.00000     0.00000     1.25520  0.0
    232    221    222    234   5     0.00000     0.00000     1.25520  0.0
    221    222    223    224   5     4.74884    -0.63178     1.67360  0.0
    221    222    223    235   5     0.00000     0.00000     1.25520  0.0
    221    222    223    236   5     0.00000     0.00000     1.25520  0.0
    233    222    223    224   5     0.00000     0.00000     1.25520  0.0
    233    222    223    235   5     0.00000     0.00000     1.25520  0.0
    233    222    223    236   5     0.00000     0.00000     1.25520  0.0
    234    222    223    224   5     0.00000     0.00000     1.25520  0.0
    234    222    223    235   5     0.00000     0.00000     1.25520  0.0
    234    222    223    236   5     0.00000     0.00000     1.25520  0.0
    222    223    224    225   5     4.74884    -0.63178     1.67360  0.0
    222    223    224    237   5     0.00000     0.00000     1.25520  0.0
    222    223    224    238   5     0.00000     0.00000     1.25520  0.0
    235    223    224    225   5     0.00000     0.00000     1.25520  0.0
    235    223    224    237   5     0.00000     0.00000     1.25520  0.0
    235    223    224    238   5     0.00000     0.00000     1.25520  0.0
    236    223    224    225   5     0.00000     0.00000     1.25520  0.0
    236    223    224    237   5     0.00000     0.00000     1.25520  0.0
    236    223    224    238   5     0.00000     0.00000     1.25520  0.0
    223    224    225    226   5     4.74884    -0.63178     1.67360  0.0
    223    224    225    239   5     0.00000     0.00000     1.25520  0.0
    223    224    225    240   5     0.00000     0.00000     1.25520  0.0
    237    224    225    226   5     0.00000     0.00000     1.25520  0.0
    237    224    225    239   5     0.00000     0.00000     1.25520  0.0
    237    224    225    240   5     0.00000     0.00000     1.25520  0.0
    238    224    225    226   5     0.00000     0.00000     1.25520  0.0
    238    224    225    239   5     0.00000     0.00000     1.25520  0.0
    238    224    225    240   5     0.00000     0.00000     1.25520  0.0
    224    225    226    227   5     4.74884    -0.63178     1.67360  0.0
    224    225    226    241   5     0.00000     0.00000     1.25520  0.0
    224    225    226    242   5     0.00000     0.00000     1.25520  0.0
    239    225    226    227   5     0.00000     0.00000     1.25520  0.0
    239    225    226    241   5     0.00000     0.00000     1.25520  0.0
    239    225    226    242   5     0.00000     0.00000     1.25520  0.0
    240    225    226    227   5     0.00000     0.00000     1.25520  0.0
    240    225    226    241   5     0.00000     0.00000     1.25520  0.0
    240    225    226    242   5     0.00000     0.00000     1.25520  0.0
    225    226    227    228   5     4.74884    -0.63178     1.67360  0.0
    225    226    227    243   5     0.00000     0.00000     1.25520  0.0
    225    226    227    244   5     0.00000     0.00000     1.25520  0.0
    241    226    227    228   5     0.00000     0.00000     1.25520  0.0
    241    226    227    243   5     0.00000     0.00000     1.25520  0.0
    241    226    227    244   5     0.00000     0.00000     1.25520  0.0
    242    226    227    228   5     0.00000     0.00000     1.25520  0.0
    242    226    227    243   5     0.00000     0.00000     1.25520  0.0
    242    226    227    244   5     0.00000     0.00000     1.25520  0.0
    226    227    228    245   5     0.00000     0.00000     1.25520  0.0
    226    227    228    246   5     0.00000     0.00000     1.25520  0.0
    226    227    228    247   5     0.00000     0.00000     1.25520  0.0
    243    227    228    245   5     0.00000     0.00000     1.25520  0.0
    243    227    228    246   5     0.00000     0.00000     1.25520  0.0
    243    227    228    247   5     0.00000     0.00000     1.25520  0.0
    244    227    228    245   5     0.00000     0.00000     1.25520  0.0
    244    227    228    246   5     0.00000     0.00000     1.25520  0.0
    244    227    228    247   5     0.00000     0.00000     1.25520  0.0
    219    229    250    251   5     5.25092    -2.58990     2.28446  0.0
    219    229    250    260   5     4.74884    -0.63178     1.67360  0.0
    219    229    250    261   5     0.00000     0.00000     1.25520  0.0
    248    229    250    251   5     0.00000     0.00000     1.95811  0.0
    248    229    250    260   5     0.00000     0.00000     1.25520  0.0
    248    229    250    261   5     0.00000     0.00000     1.25520  0.0
    249    229    250    251   5     0.00000     0.00000     1.95811  0.0
    249    229    250    260   5     0.00000     0.00000     1.25520  0.0
    249    229    250    261   5     0.00000     0.00000     1.25520  0.0
    229    250    251    252   5     0.52300    -0.09205     2.34722  0.0
    260    250    251    252   5     0.52300    -0.09205     2.34722  0.0
    261    250    251    252   5     0.00000     0.00000     3.10034  0.0
    229    250    260    279   5     0.00000     0.00000     1.25520  0.0
    229    250    260    280   5     0.00000     0.00000     1.25520  0.0
    229    250    260    281   5     4.74884    -0.63178     1.67360  0.0
    251    250    260    279   5     0.00000     0.00000     1.95811  0.0
    251    250    260    280   5     0.00000     0.00000     1.95811  0.0
    251    250    260    281   5     5.25092    -2.58990     2.28446  0.0
    261    250    260    279   5     0.00000     0.00000     1.25520  0.0
    261    250    260    280   5     0.00000     0.00000     1.25520  0.0
    261    250    260    281   5     0.00000     0.00000     1.25520  0.0
    250    251    252    253   5     0.52300    -0.09205     2.34722  0.0
    250    251    252    262   5     0.00000     0.00000     3.10034  0.0
    250    251    252    263   5     0.00000     0.00000     3.10034  0.0
    251    252    253    254   5     5.25092    -2.58990     2.28446  0.0
    251    252    253    264   5     0.00000     0.00000     1.95811  0.0
    251    252    253    265   5     0.00000     0.00000     1.95811  0.0
    262    252    253    254   5     0.00000     0.00000     1.25520  0.0
    262    252    253    264   5     0.00000     0.00000     1.25520  0.0
    262    252    253    265   5     0.00000     0.00000     1.25520  0.0
    263    252    253    254   5     0.00000     0.00000     1.25520  0.0
    263    252    253    264   5     0.00000     0.00000     1.25520  0.0
    263    252    253    265   5     0.00000     0.00000     1.25520  0.0
    252    253    254    255   5     4.74884    -0.63178     1.67360  0.0
    252    253    254    266   5     0.00000     0.00000     1.25520  0.0
    252    253    254    267   5     0.00000     0.00000     1.25520  0.0
    264    253    254    255   5     0.00000     0.00000     1.25520  0.0
    264    253    254    266   5     0.00000     0.00000     1.25520  0.0
    264    253    254    267   5     0.00000     0.00000     1.25520  0.0
    265    253    254    255   5     0.00000     0.00000     1.25520  0.0
    265    253    254    266   5     0.00000     0.00000     1.25520  0.0
    265    253    254    267   5     0.00000     0.00000     1.25520  0.0
    253    254    255    256   5     4.74884    -0.63178     1.67360  0.0
    253    254    255    268   5     0.00000     0.00000     1.25520  0.0
    253    254    255    269   5     0.00000     0.00000     1.25520  0.0
    266    254    255    256   5     0.00000     0.00000     1.25520  0.0
    266    254    255    268   5     0.00000     0.00000     1.25520  0.0
    266    254    255    269   5     0.00000     0.00000     1.25520  0.0
    267    254    255    256   5     0.00000     0.00000     1.25520  0.0
    267    254    255    268   5     0.00000     0.00000     1.25520  0.0
    267    254    255    269   5     0.00000     0.00000     1.25520  0.0
    254    255    256    257   5     4.74884    -0.63178     1.67360  0.0
    254    255    256    270   5     0.00000     0.00000     1.25520  0.0
    254    255    256    271   5     0.00000     0.00000     1.25520  0.0
    268    255    256    257   5     0.00000     0.00000     1.25520  0.0
    268    255    256    270   5     0.00000     0.00000     1.25520  0.0
    268    255    256    271   5     0.00000     0.00000     1.25520  0.0
    269    255    256    257   5     0.00000     0.00000     1.25520  0.0
    269    255    256    270   5     0.00000     0.00000     1.25520  0.0
    269    255    256    271   5     0.00000     0.00000     1.25520  0.0
    255    256    257    258   5     4.74884    -0.63178     1.67360  0.0
    255    256    257    272   5     0.00000     0.00000     1.25520  0.0
    255    256    257    273   5     0.00000     0.00000     1.25520  0.0
    270    256    257    258   5     0.00000     0.00000     1.25520  0.0
    270    256    257    272   5     0.00000     0.00000     1.25520  0.0
    270    256    257    273   5     0.00000     0.00000     1.25520  0.0
    271    256    257    258   5     0.00000     0.00000     1.25520  0.0
    271    256    257    272   5     0.00000     0.00000     1.25520  0.0
    271    256    257    273   5     0.00000     0.00000     1.25520  0.0
    256    257    258    259   5     4.74884    -0.63178     1.67360  0.0
    256    257    258    274   5     0.00000     0.00000     1.25520  0.0
    256    257    258    275   5     0.00000     0.00000     1.25520  0.0
    272    257    258    259   5     0.00000     0.00000     1.25520  0.0
    272    257    258    274   5     0.00000     0.00000     1.25520  0.0
    272    257    258    275   5     0.00000     0.00000     1.25520  0.0
    273    257    258    259   5     0.00000     0.00000     1.25520  0.0
    273    257    258    274   5     0.00000     0.00000     1.25520  0.0
    273    257    258    275   5     0.00000     0.00000     1.25520  0.0
    257    258    259    276   5     0.00000     0.00000     1.25520  0.0
    257    258    259    277   5     0.00000     0.00000     1.25520  0.0
    257    258    259    278   5     0.00000     0.00000     1.25520  0.0
    274    258    259    276   5     0.00000     0.00000     1.25520  0.0
    274    258    259    277   5     0.00000     0.00000     1.25520  0.0
    274    258    259    278   5     0.00000     0.00000     1.25520  0.0
    275    258    259    276   5     0.00000     0.00000     1.25520  0.0
    275    258    259    277   5     0.00000     0.00000     1.25520  0.0
    275    258    259    278   5     0.00000     0.00000     1.25520  0.0
    250    260    281    282   5     5.25092    -2.58990     2.28446  0.0
    250    260    281    291   5     4.74884    -0.63178     1.67360  0.0
    250    260    281    292   5     0.00000     0.00000     1.25520  0.0
    279    260    281    282   5     0.00000     0.00000     1.95811  0.0
    279    260    281    291   5     0.00000     0.00000     1.25520  0.0
    279    260    281    292   5     0.00000     0.00000     1.25520  0.0
    280    260    281    282   5     0.00000     0.00000     1.95811  0.0
    280    260    281    291   5     0.00000     0.00000     1.25520  0.0
    280    260    281    292   5     0.00000     0.00000     1.25520  0.0
    260    281    282    283   5     0.52300    -0.09205     2.34722  0.0
    291    281    282    283   5     0.52300    -0.09205     2.34722  0.0
    292    281    282    283   5     0.00000     0.00000     3.10034  0.0
    260    281    291    310   5     0.00000     0.00000     1.25520  0.0
    260    281    291    311   5     0.00000     0.00000     1.25520  0.0
    260    281    291    312   5     4.74884    -0.63178     1.67360  0.0
    282    281    291    310   5     0.00000     0.00000     1.95811  0.0
    282    281    291    311   5     0.00000     0.00000     1.95811  0.0
    282    281    291    312   5     5.25092    -2.58990     2.28446  0.0
    292    281    291    310   5     0.00000     0.00000     1.25520  0.0
    292    281    291    311   5     0.00000     0.00000     1.25520  0.0
    292    281    291    312   5     0.00000     0.00000     1.25520  0.0
    281    282    283    284   5     0.52300    -0.09205     2.34722  0.0
    281    282    283    293   5     0.00000     0.00000     3.10034  0.0
    281    282    283    294   5     0.00000     0.00000     3.10034  0.0
    282    283    284    285   5     5.25092    -2.58990     2.28446  0.0
    282    283    284    295   5     0.00000     0.00000     1.95811  0.0
    282    283    284    296   5     0.00000     0.00000     1.95811  0.0
    293    283    284    285   5     0.00000     0.00000     1.25520  0.0
    293    283    284    295   5     0.00000     0.00000     1.25520  0.0
    293    283    284    296   5     0.00000     0.00000     1.25520  0.0
    294    283    284    285   5     0.00000     0.00000     1.25520  0.0
    294    283    284    295   5     0.00000     0.00000     1.25520  0.0
    294    283    284    296   5     0.00000     0.00000     1.25520  0.0
    283    284    285    286   5     4.74884    -0.63178     1.67360  0.0
    283    284    285    297   5     0.00000     0.00000     1.25520  0.0
    283    284    285    298   5     0.00000     0.00000     1.25520  0.0
    295    284    285    286   5     0.00000     0.00000     1.25520  0.0
    295    284    285    297   5     0.00000     0.00000     1.25520  0.0
    295    284    285    298   5     0.00000     0.00000     1.25520  0.0
    296    284    285    286   5     0.00000     0.00000     1.25520  0.0
    296    284    285    297   5     0.00000     0.00000     1.25520  0.0
    296    284    285    298   5     0.00000     0.00000     1.25520  0.0
    284    285    286    287   5     4.74884    -0.63178     1.67360  0.0
    284    285    286    299   5     0.00000     0.00000     1.25520  0.0
    284    285    286    300   5     0.00000     0.00000     1.25520  0.0
    297    285    286    287   5     0.00000     0.00000     1.25520  0.0
    297    285    286    299   5     0.00000     0.00000     1.25520  0.0
    297    285    286    300   5     0.00000     0.00000     1.25520  0.0
    298    285    286    287   5     0.00000     0.00000     1.25520  0.0
    298    285    286    299   5     0.00000     0.00000     1.25520  0.0
    298    285    286    300   5     0.00000     0.00000     1.25520  0.0
    285    286    287    288   5     4.74884    -0.63178     1.67360  0.0
    285    286    287    301   5     0.00000     0.00000     1.25520  0.0
    285    286    287    302   5     0.00000     0.00000     1.25520  0.0
    299    286    287    288   5     0.00000     0.00000     1.25520  0.0
    299    286    287    301   5     0.00000     0.00000     1.25520  0.0
    299    286    287    302   5     0.00000     0.00000     1.25520  0.0
    300    286    287    288   5     0.00000     0.00000     1.25520  0.0
    300    286    287    301   5     0.00000     0.00000     1.25520  0.0
    300    286    287    302   5     0.00000     0.00000     1.25520  0.0
    286    287    288    289   5     4.74884    -0.63178     1.67360  0.0
    286    287    288    303   5     0.00000     0.00000     1.25520  0.0
    286    287    288    304   5     0.00000     0.00000     1.25520  0.0
    301    287    288    289   5     0.00000     0.00000     1.25520  0.0
    301    287    288    303   5     0.00000     0.00000     1.25520  0.0
    301    287    288    304   5     0.00000     0.00000     1.25520  0.0
    302    287    288    289   5     0.00000     0.00000     1.25520  0.0
    302    287    288    303   5     0.00000     0.00000     1.25520  0.0
    302    287    288    304   5     0.00000     0.00000     1.25520  0.0
    287    288    289    290   5     4.74884    -0.63178     1.67360  0.0
    287    288    289    305   5     0.00000     0.00000     1.25520  0.0
    287    288    289    306   5     0.00000     0.00000     1.25520  0.0
    303    288    289    290   5     0.00000     0.00000     1.25520  0.0
    303    288    289    305   5     0.00000     0.00000     1.25520  0.0
    303    288    289    306   5     0.00000     0.00000     1.25520  0.0
    304    288    289    290   5     0.00000     0.00000     1.25520  0.0
    304    288    289    305   5     0.00000     0.00000     1.25520  0.0
    304    288    289    306   5     0.00000     0.00000     1.25520  0.0
    288    289    290    307   5     0.00000     0.00000     1.25520  0.0
    288    289    290    308   5     0.00000     0.00000     1.25520  0.0
    288    289    290    309   5     0.00000     0.00000     1.25520  0.0
    305    289    290    307   5     0.00000     0.00000     1.25520  0.0
    305    289    290    308   5     0.00000     0.00000     1.25520  0.0
    305    289    290    309   5     0.00000     0.00000     1.25520  0.0
    306    289    290    307   5     0.00000     0.00000     1.25520  0.0
    306    289    290    308   5     0.00000     0.00000     1.25520  0.0
    306    289    290    309   5     0.00000     0.00000     1.25520  0.0
    281    291    312    313   5     5.25092    -2.58990     2.28446  0.0
    281    291    312    322   5     4.74884    -0.63178     1.67360  0.0
    281    291    312    323   5     0.00000     0.00000     1.25520  0.0
    310    291    312    313   5     0.00000     0.00000     1.95811  0.0
    310    291    312    322   5     0.00000     0.00000     1.25520  0.0
    310    291    312    323   5     0.00000     0.00000     1.25520  0.0
    311    291    312    313   5     0.00000     0.00000     1.95811  0.0
    311    291    312    322   5     0.00000     0.00000     1.25520  0.0
    311    291    312    323   5     0.00000     0.00000     1.25520  0.0
    291    312    313    314   5     0.52300    -0.09205     2.34722  0.0
    322    312    313    314   5     0.52300    -0.09205     2.34722  0.0
    323    312    313    314   5     0.00000     0.00000     3.10034  0.0
    291    312    322    341   5     0.00000     0.00000     1.25520  0.0
    291    312    322    342   5     0.00000     0.00000     1.25520  0.0
    291    312    322    343   5     4.74884    -0.63178     1.67360  0.0
    313    312    322    341   5     0.00000     0.00000     1.95811  0.0
    313    312    322    342   5     0.00000     0.00000     1.95811  0.0
    313    312    322    343   5     5.25092    -2.58990     2.28446  0.0
    323    312    322    341   5     0.00000     0.00000     1.25520  0.0
    323    312    322    342   5     0.00000     0.00000     1.25520  0.0
    323    312    322    343   5     0.00000     0.00000     1.25520  0.0
    312    313    314    315   5     0.52300    -0.09205     2.34722  0.0
    312    313    314    324   5     0.00000     0.00000     3.10034  0.0
    312    313    314    325   5     0.00000     0.00000     3.10034  0.0
    313    314    315    316   5     5.25092    -2.58990     2.28446  0.0
    313    314    315    326   5     0.00000     0.00000     1.95811  0.0
    313    314    315    327   5     0.00000     0.00000     1.95811  0.0
    324    314    315    316   5     0.00000     0.00000     1.25520  0.0
    324    314    315    326   5     0.00000     0.00000     1.25520  0.0
    324    314    315    327   5     0.00000     0.00000     1.25520  0.0
    325    314    315    316   5     0.00000     0.00000     1.25520  0.0
    325    314    315    326   5     0.00000     0.00000     1.25520  0.0
    325    314    315    327   5     0.00000     0.00000     1.25520  0.0
    314    315    316    317   5     4.74884    -0.63178     1.67360  0.0
    314    315    316    328   5     0.00000     0.00000     1.25520  0.0
    314    315    316    329   5     0.00000     0.00000     1.25520  0.0
    326    315    316    317   5     0.00000     0.00000     1.25520  0.0
    326    315    316    328   5     0.00000     0.00000     1.25520  0.0
    326    315    316    329   5     0.00000     0.00000     1.25520  0.0
    327    315    316    317   5     0.00000     0.00000     1.25520  0.0
    327    315    316    328   5     0.00000     0.00000     1.25520  0.0
    327    315    316    329   5     0.00000     0.00000     1.25520  0.0
    315    316    317    318   5     4.74884    -0.63178     1.67360  0.0
    315    316    317    330   5     0.00000     0.00000     1.25520  0.0
    315    316    317    331   5     0.00000     0.00000     1.25520  0.0
    328    316    317    318   5     0.00000     0.00000     1.25520  0.0
    328    316    317    330   5     0.00000     0.00000     1.25520  0.0
    328    316    317    331   5     0.00000     0.00000     1.25520  0.0
    329    316    317    318   5     0.00000     0.00000     1.25520  0.0
    329    316    317    330   5     0.00000     0.00000     1.25520  0.0
    329    316    317    331   5     0.00000     0.00000     1.25520  0.0
    316    317    318    319   5     4.74884    -0.63178     1.67360  0.0
    316    317    318    332   5     0.00000     0.00000     1.25520  0.0
    316    317    318    333   5     0.00000     0.00000     1.25520  0.0
    330    317    318    319   5     0.00000     0.00000     1.25520  0.0
    330    317    318    332   5     0.00000     0.00000     1.25520  0.0
    330    317    318    333   5     0.00000     0.00000     1.25520  0.0
    331    317    318    319   5     0.00000     0.00000     1.25520  0.0
    331    317    318    332   5     0.00000     0.00000     1.25520  0.0
    331    317    318    333   5     0.00000     0.00000     1.25520  0.0
    317    318    319    320   5     4.74884    -0.63178     1.67360  0.0
    317    318    319    334   5     0.00000     0.00000     1.25520  0.0
    317    318    319    335   5     0.00000     0.00000     1.25520  0.0
    332    318    319    320   5     0.00000     0.00000     1.25520  0.0
    332    318    319    334   5     0.00000     0.00000     1.25520  0.0
    332    318    319    335   5     0.00000     0.00000     1.25520  0.0
    333    318    319    320   5     0.00000     0.00000     1.25520  0.0
    333    318    319    334   5     0.00000     0.00000     1.25520  0.0
    333    318    319    335   5     0.00000     0.00000     1.25520  0.0
    318    319    320    321   5     4.74884    -0.63178     1.67360  0.0
    318    319    320    336   5     0.00000     0.00000     1.25520  0.0
    318    319    320    337   5     0.00000     0.00000     1.25520  0.0
    334    319    320    321   5     0.00000     0.00000     1.25520  0.0
    334    319    320    336   5     0.00000     0.00000     1.25520  0.0
    334    319    320    337   5     0.00000     0.00000     1.25520  0.0
    335    319    320    321   5     0.00000     0.00000     1.25520  0.0
    335    319    320    336   5     0.00000     0.00000     1.25520  0.0
    335    319    320    337   5     0.00000     0.00000     1.25520  0.0
    319    320    321    338   5     0.00000     0.00000     1.25520  0.0
    319    320    321    339   5     0.00000     0.00000     1.25520  0.0
    319    320    321    340   5     0.00000     0.00000     1.25520  0.0
    336    320    321    338   5     0.00000     0.00000     1.25520  0.0
    336    320    321    339   5     0.00000     0.00000     1.25520  0.0
    336    320    321    340   5     0.00000     0.00000     1.25520  0.0
    337    320    321    338   5     0.00000     0.00000     1.25520  0.0
    337    320    321    339   5     0.00000     0.00000     1.25520  0.0
    337    320    321    340   5     0.00000     0.00000     1.25520  0.0
    312    322    343    344   5     5.25092    -2.58990     2.28446  0.0
    312    322    343    353   5     4.74884    -0.63178     1.67360  0.0
    312    322    343    354   5     0.00000     0.00000     1.25520  0.0
    341    322    343    344   5     0.00000     0.00000     1.95811  0.0
    341    322    343    353   5     0.00000     0.00000     1.25520  0.0
    341    322    343    354   5     0.00000     0.00000     1.25520  0.0
    342    322    343    344   5     0.00000     0.00000     1.95811  0.0
    342    322    343    353   5     0.00000     0.00000     1.25520  0.0
    342    322    343    354   5     0.00000     0.00000     1.25520  0.0
    322    343    344    345   5     0.52300    -0.09205     2.34722  0.0
    353    343    344    345   5     0.52300    -0.09205     2.34722  0.0
    354    343    344    345   5     0.00000     0.00000     3.10034  0.0
    322    343    353    372   5     0.00000     0.00000     1.25520  0.0
    322    343    353    373   5     0.00000     0.00000     1.25520  0.0
    322    343    353    374   5     4.74884    -0.63178     1.67360  0.0
    344    343    353    372   5     0.00000     0.00000     1.95811  0.0
    344    343    353    373   5     0.00000     0.00000     1.95811  0.0
    344    343    353    374   5     5.25092    -2.58990     2.28446  0.0
    354    343    353    372   5     0.00000     0.00000     1.25520  0.0
    354    343    353    373   5     0.00000     0.00000     1.25520  0.0
    354    343    353    374   5     0.00000     0.00000     1.25520  0.0
    343    344    345    346   5     0.52300    -0.09205     2.34722  0.0
    343    344    345    355   5     0.00000     0.00000     3.10034  0.0
    343    344    345    356   5     0.00000     0.00000     3.10034  0.0
    344    345    346    347   5     5.25092    -2.58990     2.28446  0.0
    344    345    346    357   5     0.00000     0.00000     1.95811  0.0
    344    345    346    358   5     0.00000     0.00000     1.95811  0.0
    355    345    346    347   5     0.00000     0.00000     1.25520  0.0
    355    345    346    357   5     0.00000     0.00000     1.25520  0.0
    355    345    346    358   5     0.00000     0.00000     1.25520  0.0
    356    345    346    347   5     0.00000     0.00000     1.25520  0.0
    356    345    346    357   5     0.00000     0.00000     1.25520  0.0
    356    345    346    358   5     0.00000     0.00000     1.25520  0.0
    345    346    347    348   5     4.74884    -0.63178     1.67360  0.0
    345    346    347    359   5     0.00000     0.00000     1.25520  0.0
    345    346    347    360   5     0.00000     0.00000     1.25520  0.0
    357    346    347    348   5     0.00000     0.00000     1.25520  0.0
    357    346    347    359   5     0.00000     0.00000     1.25520  0.0
    357    346    347    360   5     0.00000     0.00000     1.25520  0.0
    358    346    347    348   5     0.00000     0.00000     1.25520  0.0
    358    346    347    359   5     0.00000     0.00000     1.25520  0.0
    358    346    347    360   5     0.00000     0.00000     1.25520  0.0
    346    347    348    349   5     4.74884    -0.63178     1.67360  0.0
    346    347    348    361   5     0.00000     0.00000     1.25520  0.0
    346    347    348    362   5     0.00000     0.00000     1.25520  0.0
    359    347    348    349   5     0.00000     0.00000     1.25520  0.0
    359    347    348    361   5     0.00000     0.00000     1.25520  0.0
    359    347    348    362   5     0.00000     0.00000     1.25520  0.0
    360    347    348    349   5     0.00000     0.00000     1.25520  0.0
    360    347    348    361   5     0.00000     0.00000     1.25520  0.0
    360    347    348    362   5     0.00000     0.00000     1.25520  0.0
    347    348    349    350   5     4.74884    -0.63178     1.67360  0.0
    347    348    349    363   5     0.00000     0.00000     1.25520  0.0
    347    348    349    364   5     0.00000     0.00000     1.25520  0.0
    361    348    349    350   5     0.00000     0.00000     1.25520  0.0
    361    348    349    363   5     0.00000     0.00000     1.25520  0.0
    361    348    349    364   5     0.00000     0.00000     1.25520  0.0
    362    348    349    350   5     0.00000     0.00000     1.25520  0.0
    362    348    349    363   5     0.00000     0.00000     1.25520  0.0
    362    348    349    364   5     0.00000     0.00000     1.25520  0.0
    348    349    350    351   5     4.74884    -0.63178     1.67360  0.0
    348    349    350    365   5     0.00000     0.00000     1.25520  0.0
    348    349    350    366   5     0.00000     0.00000     1.25520  0.0
    363    349    350    351   5     0.00000     0.00000     1.25520  0.0
    363    349    350    365   5     0.00000     0.00000     1.25520  0.0
    363    349    350    366   5     0.00000     0.00000     1.25520  0.0
    364    349    350    351   5     0.00000     0.00000     1.25520  0.0
    364    349    350    365   5     0.00000     0.00000     1.25520  0.0
    364    349    350    366   5     0.00000     0.00000     1.25520  0.0
    349    350    351    352   5     4.74884    -0.63178     1.67360  0.0
    349    350    351    367   5     0.00000     0.00000     1.25520  0.0
    349    350    351    368   5     0.00000     0.00000     1.25520  0.0
    365    350    351    352   5     0.00000     0.00000     1.25520  0.0
    365    350    351    367   5     0.00000     0.00000     1.25520  0.0
    365    350    351    368   5     0.00000     0.00000     1.25520  0.0
    366    350    351    352   5     0.00000     0.00000     1.25520  0.0
    366    350    351    367   5     0.00000     0.00000     1.25520  0.0
    366    350    351    368   5     0.00000     0.00000     1.25520  0.0
    350    351    352    369   5     0.00000     0.00000     1.25520  0.0
    350    351    352    370   5     0.00000     0.00000     1.25520  0.0
    350    351    352    371   5     0.00000     0.00000     1.25520  0.0
    367    351    352    369   5     0.00000     0.00000     1.25520  0.0
    367    351    352    370   5     0.00000     0.00000     1.25520  0.0
    367    351    352    371   5     0.00000     0.00000     1.25520  0.0
    368    351    352    369   5     0.00000     0.00000     1.25520  0.0
    368    351    352    370   5     0.00000     0.00000     1.25520  0.0
    368    351    352    371   5     0.00000     0.00000     1.25520  0.0
    343    353    374    375   5     5.25092    -2.58990     2.28446  0.0
    343    353    374    384   5     4.74884    -0.63178     1.67360  0.0
    343    353    374    385   5     0.00000     0.00000     1.25520  0.0
    372    353    374    375   5     0.00000     0.00000     1.95811  0.0
    372    353    374    384   5     0.00000     0.00000     1.25520  0.0
    372    353    374    385   5     0.00000     0.00000     1.25520  0.0
    373    353    374    375   5     0.00000     0.00000     1.95811  0.0
    373    353    374    384   5     0.00000     0.00000     1.25520  0.0
    373    353    374    385   5     0.00000     0.00000     1.25520  0.0
    353    374    375    376   5     0.52300    -0.09205     2.34722  0.0
    384    374    375    376   5     0.52300    -0.09205     2.34722  0.0
    385    374    375    376   5     0.00000     0.00000     3.10034  0.0
    353    374    384    403   5     0.00000     0.00000     1.25520  0.0
    353    374    384    404   5     0.00000     0.00000     1.25520  0.0
    353    374    384    405   5     4.74884    -0.63178     1.67360  0.0
    375    374    384    403   5     0.00000     0.00000     1.95811  0.0
    375    374    384    404   5     0.00000     0.00000     1.95811  0.0
    375    374    384    405   5     5.25092    -2.58990     2.28446  0.0
    385    374    384    403   5     0.00000     0.00000     1.25520  0.0
    385    374    384    404   5     0.00000     0.00000     1.25520  0.0
    385    374    384    405   5     0.00000     0.00000     1.25520  0.0
    374    375    376    377   5     0.52300    -0.09205     2.34722  0.0
    374    375    376    386   5     0.00000     0.00000     3.10034  0.0
    374    375    376    387   5     0.00000     0.00000     3.10034  0.0
    375    376    377    378   5     5.25092    -2.58990     2.28446  0.0
    375    376    377    388   5     0.00000     0.00000     1.95811  0.0
    375    376    377    389   5     0.00000     0.00000     1.95811  0.0
    386    376    377    378   5     0.00000     0.00000     1.25520  0.0
    386    376    377    388   5     0.00000     0.00000     1.25520  0.0
    386    376    377    389   5     0.00000     0.00000     1.25520  0.0
    387    376    377    378   5     0.00000     0.00000     1.25520  0.0
    387    376    377    388   5     0.00000     0.00000     1.25520  0.0
    387    376    377    389   5     0.00000     0.00000     1.25520  0.0
    376    377    378    379   5     4.74884    -0.63178     1.67360  0.0
    376    377    378    390   5     0.00000     0.00000     1.25520  0.0
    376    377    378    391   5     0.00000     0.00000     1.25520  0.0
    388    377    378    379   5     0.00000     0.00000     1.25520  0.0
    388    377    378    390   5     0.00000     0.00000     1.25520  0.0
    388    377    378    391   5     0.00000     0.00000     1.25520  0.0
    389    377    378    379   5     0.00000     0.00000     1.25520  0.0
    389    377    378    390   5     0.00000     0.00000     1.25520  0.0
    389    377    378    391   5     0.00000     0.00000     1.25520  0.0
    377    378    379    380   5     4.74884    -0.63178     1.67360  0.0
    377    378    379    392   5     0.00000     0.00000     1.25520  0.0
    377    378    379    393   5     0.00000     0.00000     1.25520  0.0
    390    378    379    380   5     0.00000     0.00000     1.25520  0.0
    390    378    379    392   5     0.00000     0.00000     1.25520  0.0
    390    378    379    393   5     0.00000     0.00000     1.25520  0.0
    391    378    379    380   5     0.00000     0.00000     1.25520  0.0
    391    378    379    392   5     0.00000     0.00000     1.25520  0.0
    391    378    379    393   5     0.00000     0.00000     1.25520  0.0
    378    379    380    381   5     4.74884    -0.63178     1.67360  0.0
    378    379    380    394   5     0.00000     0.00000     1.25520  0.0
    378    379    380    395   5     0.00000     0.00000     1.25520  0.0
    392    379    380    381   5     0.00000     0.00000     1.25520  0.0
    392    379    380    394   5     0.00000     0.00000     1.25520  0.0
    392    379    380    395   5     0.00000     0.00000     1.25520  0.0
    393    379    380    381   5     0.00000     0.00000     1.25520  0.0
    393    379    380    394   5     0.00000     0.00000     1.25520  0.0
    393    379    380    395   5     0.00000     0.00000     1.25520  0.0
    379    380    381    382   5     4.74884    -0.63178     1.67360  0.0
    379    380    381    396   5     0.00000     0.00000     1.25520  0.0
    379    380    381    397   5     0.00000     0.00000     1.25520  0.0
    394    380    381    382   5     0.00000     0.00000     1.25520  0.0
    394    380    381    396   5     0.00000     0.00000     1.25520  0.0
    394    380    381    397   5     0.00000     0.00000     1.25520  0.0
    395    380    381    382   5     0.00000     0.00000     1.25520  0.0
    395    380    381    396   5     0.00000     0.00000     1.25520  0.0
    395    380    381    397   5     0.00000     0.00000     1.25520  0.0
    380    381    382    383   5     4.74884    -0.63178     1.67360  0.0
    380    381    382    398   5     0.00000     0.00000     1.25520  0.0
    380    381    382    399   5     0.00000     0.00000     1.25520  0.0
    396    381    382    383   5     0.00000     0.00000     1.25520  0.0
    396    381    382    398   5     0.00000     0.00000     1.25520  0.0
    396    381    382    399   5     0.00000     0.00000     1.25520  0.0
    397    381    382    383   5     0.00000     0.00000     1.25520  0.0
    397    381    382    398   5     0.00000     0.00000     1.25520  0.0
    397    381    382    399   5     0.00000     0.00000     1.25520  0.0
    381    382    383    400   5     0.00000     0.00000     1.25520  0.0
    381    382    383    401   5     0.00000     0.00000     1.25520  0.0
    381    382    383    402   5     0.00000     0.00000     1.25520  0.0
    398    382    383    400   5     0.00000     0.00000     1.25520  0.0
    398    382    383    401   5     0.00000     0.00000     1.25520  0.0
    398    382    383    402   5     0.00000     0.00000     1.25520  0.0
    399    382    383    400   5     0.00000     0.00000     1.25520  0.0
    399    382    383    401   5     0.00000     0.00000     1.25520  0.0
    399    382    383    402   5     0.00000     0.00000     1.25520  0.0
    374    384    405    406   5     5.25092    -2.58990     2.28446  0.0
    374    384    405    415   5     4.74884    -0.63178     1.67360  0.0
    374    384    405    416   5     0.00000     0.00000     1.25520  0.0
    403    384    405    406   5     0.00000     0.00000     1.95811  0.0
    403    384    405    415   5     0.00000     0.00000     1.25520  0.0
    403    384    405    416   5     0.00000     0.00000     1.25520  0.0
    404    384    405    406   5     0.00000     0.00000     1.95811  0.0
    404    384    405    415   5     0.00000     0.00000     1.25520  0.0
    404    384    405    416   5     0.00000     0.00000     1.25520  0.0
    384    405    406    407   5     0.52300    -0.09205     2.34722  0.0
    415    405    406    407   5     0.52300    -0.09205     2.34722  0.0
    416    405    406    407   5     0.00000     0.00000     3.10034  0.0
    384    405    415    434   5     0.00000     0.00000     1.25520  0.0
    384    405    415    435   5     0.00000     0.00000     1.25520  0.0
    384    405    415    436   5     4.74884    -0.63178     1.67360  0.0
    406    405    415    434   5     0.00000     0.00000     1.95811  0.0
    406    405    415    435   5     0.00000     0.00000     1.95811  0.0
    406    405    415    436   5     5.25092    -2.58990     2.28446  0.0
    416    405    415    434   5     0.00000     0.00000     1.25520  0.0
    416    405    415    435   5     0.00000     0.00000     1.25520  0.0
    416    405    415    436   5     0.00000     0.00000     1.25520  0.0
    405    406    407    408   5     0.52300    -0.09205     2.34722  0.0
    405    406    407    417   5     0.00000     0.00000     3.10034  0.0
    405    406    407    418   5     0.00000     0.00000     3.10034  0.0
    406    407    408    409   5     5.25092    -2.58990     2.28446  0.0
    406    407    408    419   5     0.00000     0.00000     1.95811  0.0
    406    407    408    420   5     0.00000     0.00000     1.95811  0.0
    417    407    408    409   5     0.00000     0.00000     1.25520  0.0
    417    407    408    419   5     0.00000     0.00000     1.25520  0.0
    417    407    408    420   5     0.00000     0.00000     1.25520  0.0
    418    407    408    409   5     0.00000     0.00000     1.25520  0.0
    418    407    408    419   5     0.00000     0.00000     1.25520  0.0
    418    407    408    420   5     0.00000     0.00000     1.25520  0.0
    407    408    409    410   5     4.74884    -0.63178     1.67360  0.0
    407    408    409    421   5     0.00000     0.00000     1.25520  0.0
    407    408    409    422   5     0.00000     0.00000     1.25520  0.0
    419    408    409    410   5     0.00000     0.00000     1.25520  0.0
    419    408    409    421   5     0.00000     0.00000     1.25520  0.0
    419    408    409    422   5     0.00000     0.00000     1.25520  0.0
    420    408    409    410   5     0.00000     0.00000     1.25520  0.0
    420    408    409    421   5     0.00000     0.00000     1.25520  0.0
    420    408    409    422   5     0.00000     0.00000     1.25520  0.0
    408    409    410    411   5     4.74884    -0.63178     1.67360  0.0
    408    409    410    423   5     0.00000     0.00000     1.25520  0.0
    408    409    410    424   5     0.00000     0.00000     1.25520  0.0
    421    409    410    411   5     0.00000     0.00000     1.25520  0.0
    421    409    410    423   5     0.00000     0.00000     1.25520  0.0
    421    409    410    424   5     0.00000     0.00000     1.25520  0.0
    422    409    410    411   5     0.00000     0.00000     1.25520  0.0
    422    409    410    423   5     0.00000     0.00000     1.25520  0.0
    422    409    410    424   5     0.00000     0.00000     1.25520  0.0
    409    410    411    412   5     4.74884    -0.63178     1.67360  0.0
    409    410    411    425   5     0.00000     0.00000     1.25520  0.0
    409    410    411    426   5     0.00000     0.00000     1.25520  0.0
    423    410    411    412   5     0.00000     0.00000     1.25520  0.0
    423    410    411    425   5     0.00000     0.00000     1.25520  0.0
    423    410    411    426   5     0.00000     0.00000     1.25520  0.0
    424    410    411    412   5     0.00000     0.00000     1.25520  0.0
    424    410    411    425   5     0.00000     0.00000     1.25520  0.0
    424    410    411    426   5     0.00000     0.00000     1.25520  0.0
    410    411    412    413   5     4.74884    -0.63178     1.67360  0.0
    410    411    412    427   5     0.00000     0.00000     1.25520  0.0
    410    411    412    428   5     0.00000     0.00000     1.25520  0.0
    425    411    412    413   5     0.00000     0.00000     1.25520  0.0
    425    411    412    427   5     0.00000     0.00000     1.25520  0.0
    425    411    412    428   5     0.00000     0.00000     1.25520  0.0
    426    411    412    413   5     0.00000     0.00000     1.25520  0.0
    426    411    412    427   5     0.00000     0.00000     1.25520  0.0
    426    411    412    428   5     0.00000     0.00000     1.25520  0.0
    411    412    413    414   5     4.74884    -0.63178     1.67360  0.0
    411    412    413    429   5     0.00000     0.00000     1.25520  0.0
    411    412    413    430   5     0.00000     0.00000     1.25520  0.0
    427    412    413    414   5     0.00000     0.00000     1.25520  0.0
    427    412    413    429   5     0.00000     0.00000     1.25520  0.0
    427    412    413    430   5     0.00000     0.00000     1.25520  0.0
    428    412    413    414   5     0.00000     0.00000     1.25520  0.0
    428    412    413    429   5     0.00000     0.00000     1.25520  0.0
    428    412    413    430   5     0.00000     0.00000     1.25520  0.0
    412    413    414    431   5     0.00000     0.00000     1.25520  0.0
    412    413    414    432   5     0.00000     0.00000     1.25520  0.0
    412    413    414    433   5     0.00000     0.00000     1.25520  0.0
    429    413    414    431   5     0.00000     0.00000     1.25520  0.0
    429    413    414    432   5     0.00000     0.00000     1.25520  0.0
    429    413    414    433   5     0.00000     0.00000     1.25520  0.0
    430    413    414    431   5     0.00000     0.00000     1.25520  0.0
    430    413    414    432   5     0.00000     0.00000     1.25520  0.0
    430    413    414    433   5     0.00000     0.00000     1.25520  0.0
    405    415    436    437   5     5.25092    -2.58990     2.28446  0.0
    405    415    436    446   5     4.74884    -0.63178     1.67360  0.0
    405    415    436    447   5     0.00000     0.00000     1.25520  0.0
    434    415    436    437   5     0.00000     0.00000     1.95811  0.0
    434    415    436    446   5     0.00000     0.00000     1.25520  0.0
    434    415    436    447   5     0.00000     0.00000     1.25520  0.0
    435    415    436    437   5     0.00000     0.00000     1.95811  0.0
    435    415    436    446   5     0.00000     0.00000     1.25520  0.0
    435    415    436    447   5     0.00000     0.00000     1.25520  0.0
    415    436    437    438   5     0.52300    -0.09205     2.34722  0.0
    446    436    437    438   5     0.52300    -0.09205     2.34722  0.0
    447    436    437    438   5     0.00000     0.00000     3.10034  0.0
    415    436    446    465   5     0.00000     0.00000     1.25520  0.0
    415    436    446    466   5     0.00000     0.00000     1.25520  0.0
    415    436    446    467   5     4.74884    -0.63178     1.67360  0.0
    437    436    446    465   5     0.00000     0.00000     1.95811  0.0
    437    436    446    466   5     0.00000     0.00000     1.95811  0.0
    437    436    446    467   5     5.25092    -2.58990     2.28446  0.0
    447    436    446    465   5     0.00000     0.00000     1.25520  0.0
    447    436    446    466   5     0.00000     0.00000     1.25520  0.0
    447    436    446    467   5     0.00000     0.00000     1.25520  0.0
    436    437    438    439   5     0.52300    -0.09205     2.34722  0.0
    436    437    438    448   5     0.00000     0.00000     3.10034  0.0
    436    437    438    449   5     0.00000     0.00000     3.10034  0.0
    437    438    439    440   5     5.25092    -2.58990     2.28446  0.0
    437    438    439    450   5     0.00000     0.00000     1.95811  0.0
    437    438    439    451   5     0.00000     0.00000     1.95811  0.0
    448    438    439    440   5     0.00000     0.00000     1.25520  0.0
    448    438    439    450   5     0.00000     0.00000     1.25520  0.0
    448    438    439    451   5     0.00000     0.00000     1.25520  0.0
    449    438    439    440   5     0.00000     0.00000     1.25520  0.0
    449    438    439    450   5     0.00000     0.00000     1.25520  0.0
    449    438    439    451   5     0.00000     0.00000     1.25520  0.0
    438    439    440    441   5     4.74884    -0.63178     1.67360  0.0
    438    439    440    452   5     0.00000     0.00000     1.25520  0.0
    438    439    440    453   5     0.00000     0.00000     1.25520  0.0
    450    439    440    441   5     0.00000     0.00000     1.25520  0.0
    450    439    440    452   5     0.00000     0.00000     1.25520  0.0
    450    439    440    453   5     0.00000     0.00000     1.25520  0.0
    451    439    440    441   5     0.00000     0.00000     1.25520  0.0
    451    439    440    452   5     0.00000     0.00000     1.25520  0.0
    451    439    440    453   5     0.00000     0.00000     1.25520  0.0
    439    440    441    442   5     4.74884    -0.63178     1.67360  0.0
    439    440    441    454   5     0.00000     0.00000     1.25520  0.0
    439    440    441    455   5     0.00000     0.00000     1.25520  0.0
    452    440    441    442   5     0.00000     0.00000     1.25520  0.0
    452    440    441    454   5     0.00000     0.00000     1.25520  0.0
    452    440    441    455   5     0.00000     0.00000     1.25520  0.0
    453    440    441    442   5     0.00000     0.00000     1.25520  0.0
    453    440    441    454   5     0.00000     0.00000     1.25520  0.0
    453    440    441    455   5     0.00000     0.00000     1.25520  0.0
    440    441    442    443   5     4.74884    -0.63178     1.67360  0.0
    440    441    442    456   5     0.00000     0.00000     1.25520  0.0
    440    441    442    457   5     0.00000     0.00000     1.25520  0.0
    454    441    442    443   5     0.00000     0.00000     1.25520  0.0
    454    441    442    456   5     0.00000     0.00000     1.25520  0.0
    454    441    442    457   5     0.00000     0.00000     1.25520  0.0
    455    441    442    443   5     0.00000     0.00000     1.25520  0.0
    455    441    442    456   5     0.00000     0.00000     1.25520  0.0
    455    441    442    457   5     0.00000     0.00000     1.25520  0.0
    441    442    443    444   5     4.74884    -0.63178     1.67360  0.0
    441    442    443    458   5     0.00000     0.00000     1.25520  0.0
    441    442    443    459   5     0.00000     0.00000     1.25520  0.0
    456    442    443    444   5     0.00000     0.00000     1.25520  0.0
    456    442    443    458   5     0.00000     0.00000     1.25520  0.0
    456    442    443    459   5     0.00000     0.00000     1.25520  0.0
    457    442    443    444   5     0.00000     0.00000     1.25520  0.0
    457    442    443    458   5     0.00000     0.00000     1.25520  0.0
    457    442    443    459   5     0.00000     0.00000     1.25520  0.0
    442    443    444    445   5     4.74884    -0.63178     1.67360  0.0
    442    443    444    460   5     0.00000     0.00000     1.25520  0.0
    442    443    444    461   5     0.00000     0.00000     1.25520  0.0
    458    443    444    445   5     0.00000     0.00000     1.25520  0.0
    458    443    444    460   5     0.00000     0.00000     1.25520  0.0
    458    443    444    461   5     0.00000     0.00000     1.25520  0.0
    459    443    444    445   5     0.00000     0.00000     1.25520  0.0
    459    443    444    460   5     0.00000     0.00000     1.25520  0.0
    459    443    444    461   5     0.00000     0.00000     1.25520  0.0
    443    444    445    462   5     0.00000     0.00000     1.25520  0.0
    443    444    445    463   5     0.00000     0.00000     1.25520  0.0
    443    444    445    464   5     0.00000     0.00000     1.25520  0.0
    460    444    445    462   5     0.00000     0.00000     1.25520  0.0
    460    444    445    463   5     0.00000     0.00000     1.25520  0.0
    460    444    445    464   5     0.00000     0.00000     1.25520  0.0
    461    444    445    462   5     0.00000     0.00000     1.25520  0.0
    461    444    445    463   5     0.00000     0.00000     1.25520  0.0
    461    444    445    464   5     0.00000     0.00000     1.25520  0.0
    436    446    467    468   5     5.25092    -2.58990     2.28446  0.0
    436    446    467    477   5     4.74884    -0.63178     1.67360  0.0
    436    446    467    478   5     0.00000     0.00000     1.25520  0.0
    465    446    467    468   5     0.00000     0.00000     1.95811  0.0
    465    446    467    477   5     0.00000     0.00000     1.25520  0.0
    465    446    467    478   5     0.00000     0.00000     1.25520  0.0
    466    446    467    468   5     0.00000     0.00000     1.95811  0.0
    466    446    467    477   5     0.00000     0.00000     1.25520  0.0
    466    446    467    478   5     0.00000     0.00000     1.25520  0.0
    446    467    468    469   5     0.52300    -0.09205     2.34722  0.0
    477    467    468    469   5     0.52300    -0.09205     2.34722  0.0
    478    467    468    469   5     0.00000     0.00000     3.10034  0.0
    446    467    477    496   5     0.00000     0.00000     1.25520  0.0
    446    467    477    497   5     0.00000     0.00000     1.25520  0.0
    446    467    477    498   5     4.74884    -0.63178     1.67360  0.0
    468    467    477    496   5     0.00000     0.00000     1.95811  0.0
    468    467    477    497   5     0.00000     0.00000     1.95811  0.0
    468    467    477    498   5     5.25092    -2.58990     2.28446  0.0
    478    467    477    496   5     0.00000     0.00000     1.25520  0.0
    478    467    477    497   5     0.00000     0.00000     1.25520  0.0
    478    467    477    498   5     0.00000     0.00000     1.25520  0.0
    467    468    469    470   5     0.52300    -0.09205     2.34722  0.0
    467    468    469    479   5     0.00000     0.00000     3.10034  0.0
    467    468    469    480   5     0.00000     0.00000     3.10034  0.0
    468    469    470    471   5     5.25092    -2.58990     2.28446  0.0
    468    469    470    481   5     0.00000     0.00000     1.95811  0.0
    468    469    470    482   5     0.00000     0.00000     1.95811  0.0
    479    469    470    471   5     0.00000     0.00000     1.25520  0.0
    479    469    470    481   5     0.00000     0.00000     1.25520  0.0
    479    469    470    482   5     0.00000     0.00000     1.25520  0.0
    480    469    470    471   5     0.00000     0.00000     1.25520  0.0
    480    469    470    481   5     0.00000     0.00000     1.25520  0.0
    480    469    470    482   5     0.00000     0.00000     1.25520  0.0
    469    470    471    472   5     4.74884    -0.63178     1.67360  0.0
    469    470    471    483   5     0.00000     0.00000     1.25520  0.0
    469    470    471    484   5     0.00000     0.00000     1.25520  0.0
    481    470    471    472   5     0.00000     0.00000     1.25520  0.0
    481    470    471    483   5     0.00000     0.00000     1.25520  0.0
    481    470    471    484   5     0.00000     0.00000     1.25520  0.0
    482    470    471    472   5     0.00000     0.00000     1.25520  0.0
    482    470    471    483   5     0.00000     0.00000     1.25520  0.0
    482    470    471    484   5     0.00000     0.00000     1.25520  0.0
    470    471    472    473   5     4.74884    -0.63178     1.67360  0.0
    470    471    472    485   5     0.00000     0.00000     1.25520  0.0
    470    471    472    486   5     0.00000     0.00000     1.25520  0.0
    483    471    472    473   5     0.00000     0.00000     1.25520  0.0
    483    471    472    485   5     0.00000     0.00000     1.25520  0.0
    483    471    472    486   5     0.00000     0.00000     1.25520  0.0
    484    471    472    473   5     0.00000     0.00000     1.25520  0.0
    484    471    472    485   5     0.00000     0.00000     1.25520  0.0
    484    471    472    486   5     0.00000     0.00000     1.25520  0.0
    471    472    473    474   5     4.74884    -0.63178     1.67360  0.0
    471    472    473    487   5     0.00000     0.00000     1.25520  0.0
    471    472    473    488   5     0.00000     0.00000     1.25520  0.0
    485    472    473    474   5     0.00000     0.00000     1.25520  0.0
    485    472    473    487   5     0.00000     0.00000     1.25520  0.0
    485    472    473    488   5     0.00000     0.00000     1.25520  0.0
    486    472    473    474   5     0.00000     0.00000     1.25520  0.0
    486    472    473    487   5     0.00000     0.00000     1.25520  0.0
    486    472    473    488   5     0.00000     0.00000     1.25520  0.0
    472    473    474    475   5     4.74884    -0.63178     1.67360  0.0
    472    473    474    489   5     0.00000     0.00000     1.25520  0.0
    472    473    474    490   5     0.00000     0.00000     1.25520  0.0
    487    473    474    475   5     0.00000     0.00000     1.25520  0.0
    487    473    474    489   5     0.00000     0.00000     1.25520  0.0
    487    473    474    490   5     0.00000     0.00000     1.25520  0.0
    488    473    474    475   5     0.00000     0.00000     1.25520  0.0
    488    473    474    489   5     0.00000     0.00000     1.25520  0.0
    488    473    474    490   5     0.00000     0.00000     1.25520  0.0
    473    474    475    476   5     4.74884    -0.63178     1.67360  0.0
    473    474    475    491   5     0.00000     0.00000     1.25520  0.0
    473    474    475    492   5     0.00000     0.00000     1.25520  0.0
    489    474    475    476   5     0.00000     0.00000     1.25520  0.0
    489    474    475    491   5     0.00000     0.00000     1.25520  0.0
    489    474    475    492   5     0.00000     0.00000     1.25520  0.0
    490    474    475    476   5     0.00000     0.00000     1.25520  0.0
    490    474    475    491   5     0.00000     0.00000     1.25520  0.0
    490    474    475    492   5     0.00000     0.00000     1.25520  0.0
    474    475    476    493   5     0.00000     0.00000     1.25520  0.0
    474    475    476    494   5     0.00000     0.00000     1.25520  0.0
    474    475    476    495   5     0.00000     0.00000     1.25520  0.0
    491    475    476    493   5     0.00000     0.00000     1.25520  0.0
    491    475    476    494   5     0.00000     0.00000     1.25520  0.0
    491    475    476    495   5     0.00000     0.00000     1.25520  0.0
    492    475    476    493   5     0.00000     0.00000     1.25520  0.0
    492    475    476    494   5     0.00000     0.00000     1.25520  0.0
    492    475    476    495   5     0.00000     0.00000     1.25520  0.0
    467    477    498    499   5     5.25092    -2.58990     2.28446  0.0
    467    477    498    508   5     4.74884    -0.63178     1.67360  0.0
    467    477    498    509   5     0.00000     0.00000     1.25520  0.0
    496    477    498    499   5     0.00000     0.00000     1.95811  0.0
    496    477    498    508   5     0.00000     0.00000     1.25520  0.0
    496    477    498    509   5     0.00000     0.00000     1.25520  0.0
    497    477    498    499   5     0.00000     0.00000     1.95811  0.0
    497    477    498    508   5     0.00000     0.00000     1.25520  0.0
    497    477    498    509   5     0.00000     0.00000     1.25520  0.0
    477    498    499    500   5     0.52300    -0.09205     2.34722  0.0
    508    498    499    500   5     0.52300    -0.09205     2.34722  0.0
    509    498    499    500   5     0.00000     0.00000     3.10034  0.0
    477    498    508    527   5     0.00000     0.00000     1.25520  0.0
    477    498    508    528   5     0.00000     0.00000     1.25520  0.0
    477    498    508    529   5     4.74884    -0.63178     1.67360  0.0
    499    498    508    527   5     0.00000     0.00000     1.95811  0.0
    499    498    508    528   5     0.00000     0.00000     1.95811  0.0
    499    498    508    529   5     5.25092    -2.58990     2.28446  0.0
    509    498    508    527   5     0.00000     0.00000     1.25520  0.0
    509    498    508    528   5     0.00000     0.00000     1.25520  0.0
    509    498    508    529   5     0.00000     0.00000     1.25520  0.0
    498    499    500    501   5     0.52300    -0.09205     2.34722  0.0
    498    499    500    510   5     0.00000     0.00000     3.10034  0.0
    498    499    500    511   5     0.00000     0.00000     3.10034  0.0
    499    500    501    502   5     5.25092    -2.58990     2.28446  0.0
    499    500    501    512   5     0.00000     0.00000     1.95811  0.0
    499    500    501    513   5     0.00000     0.00000     1.95811  0.0
    510    500    501    502   5     0.00000     0.00000     1.25520  0.0
    510    500    501    512   5     0.00000     0.00000     1.25520  0.0
    510    500    501    513   5     0.00000     0.00000     1.25520  0.0
    511    500    501    502   5     0.00000     0.00000     1.25520  0.0
    511    500    501    512   5     0.00000     0.00000     1.25520  0.0
    511    500    501    513   5     0.00000     0.00000     1.25520  0.0
    500    501    502    503   5     4.74884    -0.63178     1.67360  0.0
    500    501    502    514   5     0.00000     0.00000     1.25520  0.0
    500    501    502    515   5     0.00000     0.00000     1.25520  0.0
    512    501    502    503   5     0.00000     0.00000     1.25520  0.0
    512    501    502    514   5     0.00000     0.00000     1.25520  0.0
    512    501    502    515   5     0.00000     0.00000     1.25520  0.0
    513    501    502    503   5     0.00000     0.00000     1.25520  0.0
    513    501    502    514   5     0.00000     0.00000     1.25520  0.0
    513    501    502    515   5     0.00000     0.00000     1.25520  0.0
    501    502    503    504   5     4.74884    -0.63178     1.67360  0.0
    501    502    503    516   5     0.00000     0.00000     1.25520  0.0
    501    502    503    517   5     0.00000     0.00000     1.25520  0.0
    514    502    503    504   5     0.00000     0.00000     1.25520  0.0
    514    502    503    516   5     0.00000     0.00000     1.25520  0.0
    514    502    503    517   5     0.00000     0.00000     1.25520  0.0
    515    502    503    504   5     0.00000     0.00000     1.25520  0.0
    515    502    503    516   5     0.00000     0.00000     1.25520  0.0
    515    502    503    517   5     0.00000     0.00000     1.25520  0.0
    502    503    504    505   5     4.74884    -0.63178     1.67360  0.0
    502    503    504    518   5     0.00000     0.00000     1.25520  0.0
    502    503    504    519   5     0.00000     0.00000     1.25520  0.0
    516    503    504    505   5     0.00000     0.00000     1.25520  0.0
    516    503    504    518   5     0.00000     0.00000     1.25520  0.0
    516    503    504    519   5     0.00000     0.00000     1.25520  0.0
    517    503    504    505   5     0.00000     0.00000     1.25520  0.0
    517    503    504    518   5     0.00000     0.00000     1.25520  0.0
    517    503    504    519   5     0.00000     0.00000     1.25520  0.0
    503    504    505    506   5     4.74884    -0.63178     1.67360  0.0
    503    504    505    520   5     0.00000     0.00000     1.25520  0.0
    503    504    505    521   5     0.00000     0.00000     1.25520  0.0
    518    504    505    506   5     0.00000     0.00000     1.25520  0.0
    518    504    505    520   5     0.00000     0.00000     1.25520  0.0
    518    504    505    521   5     0.00000     0.00000     1.25520  0.0
    519    504    505    506   5     0.00000     0.00000     1.25520  0.0
    519    504    505    520   5     0.00000     0.00000     1.25520  0.0
    519    504    505    521   5     0.00000     0.00000     1.25520  0.0
    504    505    506    507   5     4.74884    -0.63178     1.67360  0.0
    504    505    506    522   5     0.00000     0.00000     1.25520  0.0
    504    505    506    523   5     0.00000     0.00000     1.25520  0.0
    520    505    506    507   5     0.00000     0.00000     1.25520  0.0
    520    505    506    522   5     0.00000     0.00000     1.25520  0.0
    520    505    506    523   5     0.00000     0.00000     1.25520  0.0
    521    505    506    507   5     0.00000     0.00000     1.25520  0.0
    521    505    506    522   5     0.00000     0.00000     1.25520  0.0
    521    505    506    523   5     0.00000     0.00000     1.25520  0.0
    505    506    507    524   5     0.00000     0.00000     1.25520  0.0
    505    506    507    525   5     0.00000     0.00000     1.25520  0.0
    505    506    507    526   5     0.00000     0.00000     1.25520  0.0
    522    506    507    524   5     0.00000     0.00000     1.25520  0.0
    522    506    507    525   5     0.00000     0.00000     1.25520  0.0
    522    506    507    526   5     0.00000     0.00000     1.25520  0.0
    523    506    507    524   5     0.00000     0.00000     1.25520  0.0
    523    506    507    525   5     0.00000     0.00000     1.25520  0.0
    523    506    507    526   5     0.00000     0.00000     1.25520  0.0
    498    508    529    530   5     5.25092    -2.58990     2.28446  0.0
    498    508    529    539   5     4.74884    -0.63178     1.67360  0.0
    498    508    529    540   5     0.00000     0.00000     1.25520  0.0
    527    508    529    530   5     0.00000     0.00000     1.95811  0.0
    527    508    529    539   5     0.00000     0.00000     1.25520  0.0
    527    508    529    540   5     0.00000     0.00000     1.25520  0.0
    528    508    529    530   5     0.00000     0.00000     1.95811  0.0
    528    508    529    539   5     0.00000     0.00000     1.25520  0.0
    528    508    529    540   5     0.00000     0.00000     1.25520  0.0
    508    529    530    531   5     0.52300    -0.09205     2.34722  0.0
    539    529    530    531   5     0.52300    -0.09205     2.34722  0.0
    540    529    530    531   5     0.00000     0.00000     3.10034  0.0
    508    529    539    558   5     0.00000     0.00000     1.25520  0.0
    508    529    539    559   5     0.00000     0.00000     1.25520  0.0
    508    529    539    560   5     4.74884    -0.63178     1.67360  0.0
    530    529    539    558   5     0.00000     0.00000     1.95811  0.0
    530    529    539    559   5     0.00000     0.00000     1.95811  0.0
    530    529    539    560   5     5.25092    -2.58990     2.28446  0.0
    540    529    539    558   5     0.00000     0.00000     1.25520  0.0
    540    529    539    559   5     0.00000     0.00000     1.25520  0.0
    540    529    539    560   5     0.00000     0.00000     1.25520  0.0
    529    530    531    532   5     0.52300    -0.09205     2.34722  0.0
    529    530    531    541   5     0.00000     0.00000     3.10034  0.0
    529    530    531    542   5     0.00000     0.00000     3.10034  0.0
    530    531    532    533   5     5.25092    -2.58990     2.28446  0.0
    530    531    532    543   5     0.00000     0.00000     1.95811  0.0
    530    531    532    544   5     0.00000     0.00000     1.95811  0.0
    541    531    532    533   5     0.00000     0.00000     1.25520  0.0
    541    531    532    543   5     0.00000     0.00000     1.25520  0.0
    541    531    532    544   5     0.00000     0.00000     1.25520  0.0
    542    531    532    533   5     0.00000     0.00000     1.25520  0.0
    542    531    532    543   5     0.00000     0.00000     1.25520  0.0
    542    531    532    544   5     0.00000     0.00000     1.25520  0.0
    531    532    533    534   5     4.74884    -0.63178     1.67360  0.0
    531    532    533    545   5     0.00000     0.00000     1.25520  0.0
    531    532    533    546   5     0.00000     0.00000     1.25520  0.0
    543    532    533    534   5     0.00000     0.00000     1.25520  0.0
    543    532    533    545   5     0.00000     0.00000     1.25520  0.0
    543    532    533    546   5     0.00000     0.00000     1.25520  0.0
    544    532    533    534   5     0.00000     0.00000     1.25520  0.0
    544    532    533    545   5     0.00000     0.00000     1.25520  0.0
    544    532    533    546   5     0.00000     0.00000     1.25520  0.0
    532    533    534    535   5     4.74884    -0.63178     1.67360  0.0
    532    533    534    547   5     0.00000     0.00000     1.25520  0.0
    532    533    534    548   5     0.00000     0.00000     1.25520  0.0
    545    533    534    535   5     0.00000     0.00000     1.25520  0.0
    545    533    534    547   5     0.00000     0.00000     1.25520  0.0
    545    533    534    548   5     0.00000     0.00000     1.25520  0.0
    546    533    534    535   5     0.00000     0.00000     1.25520  0.0
    546    533    534    547   5     0.00000     0.00000     1.25520  0.0
    546    533    534    548   5     0.00000     0.00000     1.25520  0.0
    533    534    535    536   5     4.74884    -0.63178     1.67360  0.0
    533    534    535    549   5     0.00000     0.00000     1.25520  0.0
    533    534    535    550   5     0.00000     0.00000     1.25520  0.0
    547    534    535    536   5     0.00000     0.00000     1.25520  0.0
    547    534    535    549   5     0.00000     0.00000     1.25520  0.0
    547    534    535    550   5     0.00000     0.00000     1.25520  0.0
    548    534    535    536   5     0.00000     0.00000     1.25520  0.0
    548    534    535    549   5     0.00000     0.00000     1.25520  0.0
    548    534    535    550   5     0.00000     0.00000     1.25520  0.0
    534    535    536    537   5     4.74884    -0.63178     1.67360  0.0
    534    535    536    551   5     0.00000     0.00000     1.25520  0.0
    534    535    536    552   5     0.00000     0.00000     1.25520  0.0
    549    535    536    537   5     0.00000     0.00000     1.25520  0.0
    549    535    536    551   5     0.00000     0.00000     1.25520  0.0
    549    535    536    552   5     0.00000     0.00000     1.25520  0.0
    550    535    536    537   5     0.00000     0.00000     1.25520  0.0
    550    535    536    551   5     0.00000     0.00000     1.25520  0.0
    550    535    536    552   5     0.00000     0.00000     1.25520  0.0
    535    536    537    538   5     4.74884    -0.63178     1.67360  0.0
    535    536    537    553   5     0.00000     0.00000     1.25520  0.0
    535    536    537    554   5     0.00000     0.00000     1.25520  0.0
    551    536    537    538   5     0.00000     0.00000     1.25520  0.0
    551    536    537    553   5     0.00000     0.00000     1.25520  0.0
    551    536    537    554   5     0.00000     0.00000     1.25520  0.0
    552    536    537    538   5     0.00000     0.00000     1.25520  0.0
    552    536    537    553   5     0.00000     0.00000     1.25520  0.0
    552    536    537    554   5     0.00000     0.00000     1.25520  0.0
    536    537    538    555   5     0.00000     0.00000     1.25520  0.0
    536    537    538    556   5     0.00000     0.00000     1.25520  0.0
    536    537    538    557   5     0.00000     0.00000     1.25520  0.0
    553    537    538    555   5     0.00000     0.00000     1.25520  0.0
    553    537    538    556   5     0.00000     0.00000     1.25520  0.0
    553    537    538    557   5     0.00000     0.00000     1.25520  0.0
    554    537    538    555   5     0.00000     0.00000     1.25520  0.0
    554    537    538    556   5     0.00000     0.00000     1.25520  0.0
    554    537    538    557   5     0.00000     0.00000     1.25520  0.0
    529    539    560    561   5     5.25092    -2.58990     2.28446  0.0
    529    539    560    570   5     4.74884    -0.63178     1.67360  0.0
    529    539    560    571   5     0.00000     0.00000     1.25520  0.0
    558    539    560    561   5     0.00000     0.00000     1.95811  0.0
    558    539    560    570   5     0.00000     0.00000     1.25520  0.0
    558    539    560    571   5     0.00000     0.00000     1.25520  0.0
    559    539    560    561   5     0.00000     0.00000     1.95811  0.0
    559    539    560    570   5     0.00000     0.00000     1.25520  0.0
    559    539    560    571   5     0.00000     0.00000     1.25520  0.0
    539    560    561    562   5     0.52300    -0.09205     2.34722  0.0
    570    560    561    562   5     0.52300    -0.09205     2.34722  0.0
    571    560    561    562   5     0.00000     0.00000     3.10034  0.0
    539    560    570    589   5     0.00000     0.00000     1.25520  0.0
    539    560    570    590   5     0.00000     0.00000     1.25520  0.0
    539    560    570    591   5     4.74884    -0.63178     1.67360  0.0
    561    560    570    589   5     0.00000     0.00000     1.95811  0.0
    561    560    570    590   5     0.00000     0.00000     1.95811  0.0
    561    560    570    591   5     5.25092    -2.58990     2.28446  0.0
    571    560    570    589   5     0.00000     0.00000     1.25520  0.0
    571    560    570    590   5     0.00000     0.00000     1.25520  0.0
    571    560    570    591   5     0.00000     0.00000     1.25520  0.0
    560    561    562    563   5     0.52300    -0.09205     2.34722  0.0
    560    561    562    572   5     0.00000     0.00000     3.10034  0.0
    560    561    562    573   5     0.00000     0.00000     3.10034  0.0
    561    562    563    564   5     5.25092    -2.58990     2.28446  0.0
    561    562    563    574   5     0.00000     0.00000     1.95811  0.0
    561    562    563    575   5     0.00000     0.00000     1.95811  0.0
    572    562    563    564   5     0.00000     0.00000     1.25520  0.0
    572    562    563    574   5     0.00000     0.00000     1.25520  0.0
    572    562    563    575   5     0.00000     0.00000     1.25520  0.0
    573    562    563    564   5     0.00000     0.00000     1.25520  0.0
    573    562    563    574   5     0.00000     0.00000     1.25520  0.0
    573    562    563    575   5     0.00000     0.00000     1.25520  0.0
    562    563    564    565   5     4.74884    -0.63178     1.67360  0.0
    562    563    564    576   5     0.00000     0.00000     1.25520  0.0
    562    563    564    577   5     0.00000     0.00000     1.25520  0.0
    574    563    564    565   5     0.00000     0.00000     1.25520  0.0
    574    563    564    576   5     0.00000     0.00000     1.25520  0.0
    574    563    564    577   5     0.00000     0.00000     1.25520  0.0
    575    563    564    565   5     0.00000     0.00000     1.25520  0.0
    575    563    564    576   5     0.00000     0.00000     1.25520  0.0
    575    563    564    577   5     0.00000     0.00000     1.25520  0.0
    563    564    565    566   5     4.74884    -0.63178     1.67360  0.0
    563    564    565    578   5     0.00000     0.00000     1.25520  0.0
    563    564    565    579   5     0.00000     0.00000     1.25520  0.0
    576    564    565    566   5     0.00000     0.00000     1.25520  0.0
    576    564    565    578   5     0.00000     0.00000     1.25520  0.0
    576    564    565    579   5     0.00000     0.00000     1.25520  0.0
    577    564    565    566   5     0.00000     0.00000     1.25520  0.0
    577    564    565    578   5     0.00000     0.00000     1.25520  0.0
    577    564    565    579   5     0.00000     0.00000     1.25520  0.0
    564    565    566    567   5     4.74884    -0.63178     1.67360  0.0
    564    565    566    580   5     0.00000     0.00000     1.25520  0.0
    564    565    566    581   5     0.00000     0.00000     1.25520  0.0
    578    565    566    567   5     0.00000     0.00000     1.25520  0.0
    578    565    566    580   5     0.00000     0.00000     1.25520  0.0
    578    565    566    581   5     0.00000     0.00000     1.25520  0.0
    579    565    566    567   5     0.00000     0.00000     1.25520  0.0
    579    565    566    580   5     0.00000     0.00000     1.25520  0.0
    579    565    566    581   5     0.00000     0.00000     1.25520  0.0
    565    566    567    568   5     4.74884    -0.63178     1.67360  0.0
    565    566    567    582   5     0.00000     0.00000     1.25520  0.0
    565    566    567    583   5     0.00000     0.00000     1.25520  0.0
    580    566    567    568   5     0.00000     0.00000     1.25520  0.0
    580    566    567    582   5     0.00000     0.00000     1.25520  0.0
    580    566    567    583   5     0.00000     0.00000     1.25520  0.0
    581    566    567    568   5     0.00000     0.00000     1.25520  0.0
    581    566    567    582   5     0.00000     0.00000     1.25520  0.0
    581    566    567    583   5     0.00000     0.00000     1.25520  0.0
    566    567    568    569   5     4.74884    -0.63178     1.67360  0.0
    566    567    568    584   5     0.00000     0.00000     1.25520  0.0
    566    567    568    585   5     0.00000     0.00000     1.25520  0.0
    582    567    568    569   5     0.00000     0.00000     1.25520  0.0
    582    567    568    584   5     0.00000     0.00000     1.25520  0.0
    582    567    568    585   5     0.00000     0.00000     1.25520  0.0
    583    567    568    569   5     0.00000     0.00000     1.25520  0.0
    583    567    568    584   5     0.00000     0.00000     1.25520  0.0
    583    567    568    585   5     0.00000     0.00000     1.25520  0.0
    567    568    569    586   5     0.00000     0.00000     1.25520  0.0
    567    568    569    587   5     0.00000     0.00000     1.25520  0.0
    567    568    569    588   5     0.00000     0.00000     1.25520  0.0
    584    568    569    586   5     0.00000     0.00000     1.25520  0.0
    584    568    569    587   5     0.00000     0.00000     1.25520  0.0
    584    568    569    588   5     0.00000     0.00000     1.25520  0.0
    585    568    569    586   5     0.00000     0.00000     1.25520  0.0
    585    568    569    587   5     0.00000     0.00000     1.25520  0.0
    585    568    569    588   5     0.00000     0.00000     1.25520  0.0
    560    570    591    592   5     5.25092    -2.58990     2.28446  0.0
    560    570    591    601   5     4.74884    -0.63178     1.67360  0.0
    560    570    591    602   5     0.00000     0.00000     1.25520  0.0
    589    570    591    592   5     0.00000     0.00000     1.95811  0.0
    589    570    591    601   5     0.00000     0.00000     1.25520  0.0
    589    570    591    602   5     0.00000     0.00000     1.25520  0.0
    590    570    591    592   5     0.00000     0.00000     1.95811  0.0
    590    570    591    601   5     0.00000     0.00000     1.25520  0.0
    590    570    591    602   5     0.00000     0.00000     1.25520  0.0
    570    591    592    593   5     0.52300    -0.09205     2.34722  0.0
    601    591    592    593   5     0.52300    -0.09205     2.34722  0.0
    602    591    592    593   5     0.00000     0.00000     3.10034  0.0
    570    591    601    620   5     0.00000     0.00000     1.25520  0.0
    570    591    601    621   5     0.00000     0.00000     1.25520  0.0
    570    591    601    622   5     0.00000     0.00000     1.25520  0.0
    592    591    601    620   5     0.00000     0.00000     1.95811  0.0
    592    591    601    621   5     0.00000     0.00000     1.95811  0.0
    592    591    601    622   5     0.00000     0.00000     1.95811  0.0
    602    591    601    620   5     0.00000     0.00000     1.25520  0.0
    602    591    601    621   5     0.00000     0.00000     1.25520  0.0
    602    591    601    622   5     0.00000     0.00000     1.25520  0.0
    591    592    593    594   5     0.52300    -0.09205     2.34722  0.0
    591    592    593    603   5     0.00000     0.00000     3.10034  0.0
    591    592    593    604   5     0.00000     0.00000     3.10034  0.0
    592    593    594    595   5     5.25092    -2.58990     2.28446  0.0
    592    593    594    605   5     0.00000     0.00000     1.95811  0.0
    592    593    594    606   5     0.00000     0.00000     1.95811  0.0
    603    593    594    595   5     0.00000     0.00000     1.25520  0.0
    603    593    594    605   5     0.00000     0.00000     1.25520  0.0
    603    593    594    606   5     0.00000     0.00000     1.25520  0.0
    604    593    594    595   5     0.00000     0.00000     1.25520  0.0
    604    593    594    605   5     0.00000     0.00000     1.25520  0.0
    604    593    594    606   5     0.00000     0.00000     1.25520  0.0
    593    594    595    596   5     4.74884    -0.63178     1.67360  0.0
    593    594    595    607   5     0.00000     0.00000     1.25520  0.0
    593    594    595    608   5     0.00000     0.00000     1.25520  0.0
    605    594    595    596   5     0.00000     0.00000     1.25520  0.0
    605    594    595    607   5     0.00000     0.00000     1.25520  0.0
    605    594    595    608   5     0.00000     0.00000     1.25520  0.0
    606    594    595    596   5     0.00000     0.00000     1.25520  0.0
    606    594    595    607   5     0.00000     0.00000     1.25520  0.0
    606    594    595    608   5     0.00000     0.00000     1.25520  0.0
    594    595    596    597   5     4.74884    -0.63178     1.67360  0.0
    594    595    596    609   5     0.00000     0.00000     1.25520  0.0
    594    595    596    610   5     0.00000     0.00000     1.25520  0.0
    607    595    596    597   5     0.00000     0.00000     1.25520  0.0
    607    595    596    609   5     0.00000     0.00000     1.25520  0.0
    607    595    596    610   5     0.00000     0.00000     1.25520  0.0
    608    595    596    597   5     0.00000     0.00000     1.25520  0.0
    608    595    596    609   5     0.00000     0.00000     1.25520  0.0
    608    595    596    610   5     0.00000     0.00000     1.25520  0.0
    595    596    597    598   5     4.74884    -0.63178     1.67360  0.0
    595    596    597    611   5     0.00000     0.00000     1.25520  0.0
    595    596    597    612   5     0.00000     0.00000     1.25520  0.0
    609    596    597    598   5     0.00000     0.00000     1.25520  0.0
    609    596    597    611   5     0.00000     0.00000     1.25520  0.0
    609    596    597    612   5     0.00000     0.00000     1.25520  0.0
    610    596    597    598   5     0.00000     0.00000     1.25520  0.0
    610    596    597    611   5     0.00000     0.00000     1.25520  0.0
    610    596    597    612   5     0.00000     0.00000     1.25520  0.0
    596    597    598    599   5     4.74884    -0.63178     1.67360  0.0
    596    597    598    613   5     0.00000     0.00000     1.25520  0.0
    596    597    598    614   5     0.00000     0.00000     1.25520  0.0
    611    597    598    599   5     0.00000     0.00000     1.25520  0.0
    611    597    598    613   5     0.00000     0.00000     1.25520  0.0
    611    597    598    614   5     0.00000     0.00000     1.25520  0.0
    612    597    598    599   5     0.00000     0.00000     1.25520  0.0
    612    597    598    613   5     0.00000     0.00000     1.25520  0.0
    612    597    598    614   5     0.00000     0.00000     1.25520  0.0
    597    598    599    600   5     4.74884    -0.63178     1.67360  0.0
    597    598    599    615   5     0.00000     0.00000     1.25520  0.0
    597    598    599    616   5     0.00000     0.00000     1.25520  0.0
    613    598    599    600   5     0.00000     0.00000     1.25520  0.0
    613    598    599    615   5     0.00000     0.00000     1.25520  0.0
    613    598    599    616   5     0.00000     0.00000     1.25520  0.0
    614    598    599    600   5     0.00000     0.00000     1.25520  0.0
    614    598    599    615   5     0.00000     0.00000     1.25520  0.0
    614    598    599    616   5     0.00000     0.00000     1.25520  0.0
    598    599    600    617   5     0.00000     0.00000     1.25520  0.0
    598    599    600    618   5     0.00000     0.00000     1.25520  0.0
    598    599    600    619   5     0.00000     0.00000     1.25520  0.0
    615    599    600    617   5     0.00000     0.00000     1.25520  0.0
    615    599    600    618   5     0.00000     0.00000     1.25520  0.0
    615    599    600    619   5     0.00000     0.00000     1.25520  0.0
    616    599    600    617   5     0.00000     0.00000     1.25520  0.0
    616    599    600    618   5     0.00000     0.00000     1.25520  0.0
    616    599    600    619   5     0.00000     0.00000     1.25520  0.0
