Control file title. For DL_FIELD 4.10
49698
    1MOL     C1    1   5.439   0.991   5.678 -0.0645  0.0799 -0.0726
    1MOL     C2    2   5.507   0.971   5.815  0.6676 -0.9359  0.1987
    1MOL     C3    3   5.447   1.072   5.920  0.1574 -0.2973  0.1232
    1MOL     C4    4   5.659   0.997   5.798  0.0587 -0.5238 -0.3439
    1MOL     O5    5   5.720   1.001   5.693  0.1654 -0.6000  0.3876
    1MOL     O6    6   5.715   1.000   5.922 -0.6841 -0.4107  0.4393
    1MOL     C7    7   5.859   1.016   5.934 -0.2091 -0.0484 -0.3860
    1MOL     C8    8   5.901   1.009   6.085 -0.2786 -0.1411  0.1853
    1MOL     C9    9   5.828   1.067   6.189 -0.2124 -0.5110  0.2665
    1MOL    C10   10   5.873   1.066   6.322 -0.4832 -0.0365  0.2544
    1MOL    C11   11   6.003   1.019   6.355 -0.1128  0.1392  0.0598
    1MOL    C12   12   6.072   0.960   6.253 -0.7428  0.0241  0.3325
    1MOL    C13   13   6.025   0.954   6.122 -0.4085 -0.1953  0.6186
    1MOL    H14   14   5.495   0.934   5.603  0.4521 -1.2452  1.2874
    1MOL    H15   15   5.335   0.959   5.679 -0.3372  0.9546  0.3315
    1MOL    H16   16   5.489   1.061   6.020  1.1496  0.1176 -0.2390
    1MOL    H17   17   5.339   1.085   5.918  0.1022 -0.8252 -1.4347
    1MOL    H18   18   5.475   1.174   5.892  0.1497  0.2585  2.1066
    1MOL    H19   19   5.904   0.929   5.885 -0.7543  0.6948 -2.2535
    1MOL    H20   20   5.899   1.107   5.889  0.0520  1.3374  2.5728
    1MOL    H21   21   5.730   1.108   6.165 -0.2283 -0.8678 -0.2904
    1MOL    H22   22   5.822   1.120   6.400 -1.0263 -1.4189  0.8709
    1MOL    H23   23   6.046   1.002   6.452 -0.8419 -1.1160  0.1744
    1MOL    H24   24   6.164   0.914   6.286 -0.5541 -0.6089 -1.0423
    1MOL    H25   25   6.096   0.913   6.052  0.3183  0.8085  0.7492
    1MOL    H26   26   5.440   1.096   5.649  1.4647 -0.1101 -0.7570
    1MOL    C27   27   5.469   0.826   5.878 -0.1138  0.7063  0.4005
    1MOL    C28   28   5.543   0.691   5.841 -0.0827  0.2833 -0.5270
    1MOL    C29   29   5.659   0.667   5.948  0.0264 -0.1514 -0.1251
    1MOL    C30   30   5.590   0.686   5.694 -0.5049  0.1826  0.6999
    1MOL    O31   31   5.516   0.672   5.601 -0.2699  0.0182  0.0422
    1MOL    O32   32   5.721   0.691   5.672 -0.0527 -0.2496  0.1570
    1MOL    C33   33   5.770   0.687   5.538  0.3209 -0.7601  0.4984
    1MOL    C34   34   5.922   0.703   5.526 -0.0585 -0.3052 -0.2415
    1MOL    C35   35   5.992   0.626   5.432 -0.2459 -0.1913 -0.4676
    1MOL    C36   36   6.126   0.659   5.410 -0.2858  0.1024  0.3203
    1MOL    C37   37   6.188   0.765   5.474 -0.3862 -0.1713  0.1450
    1MOL    C38   38   6.121   0.835   5.576  0.4544  0.6242  0.1944
    1MOL    C39   39   5.987   0.806   5.599  0.0802  0.4512 -0.9158
    1MOL    H40   40   5.361   0.816   5.863 -0.0736  0.3564  0.3575
    1MOL    H41   41   5.476   0.837   5.987 -2.1033 -1.4878  0.7923
    1MOL    H42   42   5.692   0.566   5.974  2.8091  0.9604  0.8777
    1MOL    H43   43   5.644   0.715   6.044 -1.3099  0.9575 -0.8750
    1MOL    H44   44   5.751   0.706   5.906  1.0178 -0.6547  1.5331
    1MOL    H45   45   5.734   0.596   5.491 -0.9116  0.1009 -0.2547
    1MOL    H46   46   5.731   0.772   5.482 -1.4038 -0.7945  1.5981
    1MOL    H47   47   5.939   0.549   5.378  1.0078 -0.2774 -1.5771
    1MOL    H48   48   6.181   0.588   5.349  2.7767 -0.2481  3.2822
    1MOL    H49   49   6.290   0.792   5.455 -0.8201 -0.5881 -2.9915
    1MOL    H50   50   6.171   0.919   5.623 -2.3436  0.5405  3.5482
    1MOL    H51   51   5.918   0.864   5.660  1.4921 -0.2903  1.4680
    1MOL    C52   52   5.442   0.578   5.868  0.2806 -0.4445  0.4942
    1MOL    C53   53   5.471   0.422   5.882  0.2457  0.2892 -0.7694
    1MOL    C54   54   5.576   0.380   5.782  0.5896 -0.1884 -0.5390
    1MOL    C55   55   5.343   0.339   5.846 -0.5998 -0.5983  0.4353
    1MOL    O56   56   5.268   0.288   5.932 -0.6085 -0.0422 -0.1484
    1MOL    O57   57   5.324   0.318   5.708 -0.0455 -0.0339 -0.6511
    1MOL    C58   58   5.218   0.241   5.666 -0.8155 -0.5106  0.1433
    1MOL    C59   59   5.245   0.097   5.638  0.0490 -0.0378 -0.8890
    1MOL    C60   60   5.378   0.046   5.645  0.2062 -0.2336 -0.6458
    1MOL    C61   61   5.403   7.920   5.609  0.3119  0.3156  0.4461
    1MOL    C62   62   5.298   7.834   5.567 -0.6479 -0.0159  0.0204
    1MOL    C63   63   5.163   7.880   5.567 -0.2056 -0.5980 -0.4649
    1MOL    C64   64   5.141   0.012   5.598  0.1327  0.3562  0.2832
    1MOL    H65   65   5.359   0.586   5.798  1.3649  1.1048 -0.6219
    1MOL    H66   66   5.379   0.599   5.954 -0.8303 -3.3242  0.4744
    1MOL    H67   67   5.666   0.430   5.818  0.3732 -0.0652 -0.1716
    1MOL    H68   68   5.574   0.408   5.677  3.1591  1.8567 -0.1145
    1MOL    H69   69   5.606   0.275   5.792 -0.6433 -0.7053 -2.1106
    1MOL    H70   70   5.138   0.247   5.740  0.0768  1.3824  0.9656
    1MOL    H71   71   5.188   0.300   5.579 -2.9166  0.5420  1.5234
    1MOL    H72   72   5.467   0.104   5.662  0.1946 -0.0287 -1.2915
    1MOL    H73   73   5.506   7.890   5.599  0.6202  0.2105  3.3609
    1MOL    H74   74   5.310   7.734   5.527 -2.1095  0.7249 -2.3894
    1MOL    H75   75   5.079   7.816   5.545  1.0236 -1.9923 -1.1469
    1MOL    H76   76   5.040   0.043   5.577  0.7345  1.2109 -1.4630
    1MOL    C77   77   5.507   0.386   6.034 -0.1630 -0.2811 -0.4385
    1MOL    C78   78   5.576   0.249   6.086 -0.3733  0.3199 -0.5190
    1MOL    C79   79   5.520   0.239   6.232  0.0710  0.1743 -0.5762
    1MOL    C80   80   5.730   0.267   6.097 -0.6525 -0.3795  0.3306
    1MOL    O81   81   5.790   0.347   6.019 -0.0491  1.1631  0.0355
    1MOL    O82   82   5.794   0.204   6.198  0.9527  0.0126  0.3902
    1MOL    C83   83   5.929   0.215   6.225  0.2085  0.1139 -0.8276
    1MOL    C84   84   5.981   0.126   6.344  0.7314  0.5293  0.1357
    1MOL    C85   85   6.033   0.196   6.458 -0.4763 -0.6682  0.8131
    1MOL    C86   86   6.071   0.134   6.572 -0.0632  0.4338 -0.3865
    1MOL    C87   87   6.064   7.998   6.575  0.5512  0.0834  0.2174
    1MOL    C88   88   6.016   7.925   6.466 -0.2171  0.0792  0.2401
    1MOL    C89   89   5.967   7.993   6.351  0.6165 -0.7788 -0.0248
    1MOL    H90   90   5.416   0.411   6.089 -0.0760 -0.3141 -0.2772
    1MOL    H91   91   5.559   0.464   6.090 -0.4578 -0.4013 -0.0016
    1MOL    H92   92   5.412   0.249   6.237  0.1835  1.7019 -0.9898
    1MOL    H93   93   5.561   0.318   6.294 -0.4507  0.7995 -1.0234
    1MOL    H94   94   5.540   0.144   6.282 -0.5832  0.3258 -0.0165
    1MOL    H95   95   5.976   0.178   6.134  0.8635  0.7761 -0.7618
    1MOL    H96   96   5.963   0.317   6.243 -0.5403  0.4485 -1.3061
    1MOL    H97   97   6.042   0.303   6.455  2.1824 -0.8075  1.8941
    1MOL    H98   98   6.118   0.185   6.655 -1.4904 -1.7233  1.8134
    1MOL    H99   99   6.097   7.944   6.663 -1.0900  1.4752  1.7298
    1MOL   H100  100   6.024   7.818   6.473 -1.7005  0.1038  3.3172
    1MOL   H101  101   5.921   7.941   6.269 -0.7514 -0.3116  0.4245
    1MOL   C102  102   5.535   0.109   6.008  0.4220 -0.8565 -0.6792
    1MOL   C103  103   5.602   7.972   6.031 -0.5250 -0.1395  0.8969
    1MOL   C104  104   5.628   7.931   6.177 -0.1069 -0.9089 -0.4800
    1MOL   C105  105   5.733   7.973   5.955  0.2439  0.0158  0.5674
    1MOL   O106  106   5.837   7.959   6.014 -0.2444 -0.2550 -0.0288
    1MOL   O107  107   5.723   7.993   5.827  0.3058  0.3854 -0.1871
    1MOL   C108  108   5.839   7.986   5.745  0.4850  0.6946 -0.3100
    1MOL   C109  109   5.909   0.112   5.727 -0.4367 -0.2257 -0.4867
    1MOL   C110  110   5.985   0.171   5.834 -0.2640 -0.2371  0.3721
    1MOL   C111  111   6.057   0.287   5.808 -0.3114  0.4567 -0.7606
    1MOL   C112  112   6.054   0.347   5.681  0.0688  0.1843 -0.1943
    1MOL   C113  113   5.970   0.290   5.587  0.3412 -0.2949  0.6164
    1MOL   C114  114   5.895   0.172   5.602  0.2099  0.0700 -0.8465
    1MOL   H115  115   5.526   0.135   5.903  3.2190  2.0504 -0.2686
    1MOL   H116  116   5.430   0.087   6.023  0.1678  0.2990 -0.7923
    1MOL   H117  117   5.678   8.005   6.239  0.0470 -1.1692 -0.2894
    1MOL   H118  118   5.694   7.846   6.191  0.7351 -0.0110  1.1001
    1MOL   H119  119   5.532   7.903   6.221 -1.4125  0.4341 -2.3995
    1MOL   H120  120   5.905   7.903   5.771  0.6831  1.0978  0.4997
    1MOL   H121  121   5.796   7.953   5.651 -1.0301 -0.8555  0.8879
    1MOL   H122  122   5.992   0.128   5.932  1.8776 -0.3003  0.2040
    1MOL   H123  123   6.136   0.321   5.873 -0.4775 -1.8888  0.7362
    1MOL   H124  124   6.118   0.430   5.653 -2.5414  2.7188  1.0810
    1MOL   H125  125   5.965   0.343   5.493  1.4242 -3.4915 -1.3485
    1MOL   H126  126   5.829   0.136   5.524  1.6767 -0.4597 -1.8518
    1MOL   C127  127   5.508   7.869   5.963 -0.5658  0.2627 -0.1019
    1MOL   C128  128   5.495   7.715   5.997 -0.0982  1.0388 -0.3826
    1MOL   C129  129   5.418   7.698   6.129 -0.7250 -0.3131  0.5398
    1MOL   C130  130   5.631   7.647   5.997  0.4824 -0.4081  0.1743
    1MOL   O131  131   5.660   7.563   6.078 -0.4394  0.2204 -0.2163
    1MOL   O132  132   5.711   7.681   5.888 -0.1367  0.3845  0.0286
    1MOL   C133  133   5.817   7.597   5.855  0.5097  0.4974 -0.0626
    1MOL   C134  134   5.955   7.640   5.895  0.7114 -0.2675 -0.7337
    1MOL   C135  135   5.984   7.626   6.034  0.0376  0.0778 -0.2682
    1MOL   C136  136   6.109   7.660   6.080 -0.4324  0.1218  0.0516
    1MOL   C137  137   6.211   7.707   5.991 -0.0408 -0.1633  0.0305
    1MOL   C138  138   6.183   7.711   5.852  0.2556 -1.0503 -0.7959
    1MOL   C139  139   6.055   7.671   5.803 -0.2902 -0.5551 -0.3979
    1MOL   H140  140   5.488   7.888   5.858 -2.1307  1.7964  0.4448
    1MOL   H141  141   5.404   7.899   5.975  0.2273  3.9179 -1.8134
    1MOL   H142  142   5.480   7.718   6.217 -0.2797 -0.5289  0.2768
    1MOL   H143  143   5.380   7.596   6.144  0.2415 -1.2350 -2.9243
    1MOL   H144  144   5.325   7.754   6.128 -1.3224 -1.3018 -0.7560
    1MOL   H145  145   5.806   7.499   5.902  1.0708  0.8598  0.8243
    1MOL   H146  146   5.815   7.574   5.748 -0.5371  0.9918 -0.1589
    1MOL   H147  147   5.903   7.601   6.102 -0.3628 -1.7831 -1.3838
    1MOL   H148  148   6.128   7.659   6.187  1.8653  0.5405 -0.3169
    1MOL   H149  149   6.306   7.749   6.021  0.8990 -1.8079 -0.5284
    1MOL   H150  150   6.246   7.746   5.771  0.1630  2.4801  0.5494
    1MOL   H151  151   6.043   7.675   5.696  2.8981  3.4427 -0.6977
    1MOL   C152  152   5.409   7.656   5.879 -0.6048  0.6308  0.0359
    1MOL   C153  153   5.399   7.500   5.849 -0.2566  0.5094  0.5295
    1MOL   C154  154   5.410   7.401   5.969 -0.1203 -0.0427  0.1749
    1MOL   C155  155   5.514   7.461   5.746  0.6385  0.0427  0.2143
    1MOL   O156  156   5.593   7.369   5.765  0.1107 -0.4415  0.2684
    1MOL   O157  157   5.505   7.524   5.629 -0.0796  0.1715 -0.1617
    1MOL   C158  158   5.577   7.496   5.511 -0.1186 -0.3170  0.2336
    1MOL   C159  159   5.581   7.608   5.413  0.2805  0.1978  0.0121
    1MOL   C160  160   5.528   7.584   5.284 -0.0942  0.2254  0.0691
    1MOL   C161  161   5.538   7.685   5.184 -0.6030  0.9297  0.0293
    1MOL   C162  162   5.610   7.800   5.211  0.5694  0.4911 -0.2439
    1MOL   C163  163   5.664   7.827   5.344  0.2160  0.2044  0.3095
    1MOL   C164  164   5.647   7.728   5.440 -1.1107 -0.6663 -0.3196
    1MOL   H165  165   5.438   7.704   5.786 -0.7286  0.7879  0.0784
    1MOL   H166  166   5.304   7.685   5.886 -0.7331  0.5736 -1.4127
    1MOL   H167  167   5.392   7.294   5.955 -0.5837  0.0922 -0.2511
    1MOL   H168  168   5.336   7.422   6.046 -1.1733 -1.9147 -0.2900
    1MOL   H169  169   5.509   7.396   6.015 -0.1140  1.5766  0.3642
    1MOL   H170  170   5.680   7.470   5.532  0.0404  0.0623 -0.0621
    1MOL   H171  171   5.533   7.409   5.463  0.1235  0.3038 -1.1464
    1MOL   H172  172   5.463   7.501   5.263  1.0389 -0.8371  0.6821
    1MOL   H173  173   5.501   7.654   5.087 -1.5656 -0.6855  0.8931
    1MOL   H174  174   5.636   7.880   5.145  2.0145  1.2486  1.1944
    1MOL   H175  175   5.728   7.913   5.352  1.2163 -0.5531  0.5439
    1MOL   H176  176   5.694   7.752   5.534 -0.2931 -1.8302 -0.4216
    1MOL   C177  177   5.263   7.471   5.765  0.5844 -0.4946 -0.0590
    1MOL   C178  178   5.126   7.418   5.831  0.3552  0.0532  0.0593
    1MOL   C179  179   5.097   7.498   5.963  0.2022 -0.3491 -0.3125
    1MOL   C180  180   5.129   7.261   5.865 -0.3553  0.3025 -0.3037
    1MOL   O181  181   5.218   7.192   5.815  0.5916  0.1114 -0.5351
    1MOL   O182  182   5.019   7.218   5.928  0.2364  0.2071 -0.6871
    1MOL   C183  183   4.986   7.082   5.932 -0.2889  0.1652  0.1200
    1MOL   C184  184   5.017   7.036   6.077  0.2687 -0.5991 -0.2022
    1MOL   C185  185   4.919   6.956   6.137 -0.3399 -0.3739 -0.0028
    1MOL   C186  186   4.942   6.904   6.265  0.3464 -0.1612 -0.1432
    1MOL   C187  187   5.062   6.941   6.339  0.3178  0.4936  0.1405
    1MOL   C188  188   5.162   7.022   6.271  0.0453 -0.5773 -0.1335
    1MOL   C189  189   5.140   7.066   6.142  0.1991  0.3548  0.0597
    1MOL   H190  190   5.291   7.392   5.696 -0.5410 -0.1403 -0.9359
    1MOL   H191  191   5.245   7.558   5.702  0.5135 -0.4146  0.0702
    1MOL   H192  192   4.991   7.502   5.990  0.0824  0.3506 -0.8643
    1MOL   H193  193   5.131   7.601   5.977 -1.7641  0.2889 -0.0499
    1MOL   H194  194   5.130   7.449   6.054 -3.6822  1.6736  2.3313
    1MOL   H195  195   4.882   7.057   5.913  0.2935 -2.5710  0.3156
    1MOL   H196  196   5.037   7.019   5.859 -0.0469  0.6252 -0.1114
    1MOL   H197  197   4.838   6.918   6.077 -0.9946  0.6201  0.2440
    1MOL   H198  198   4.865   6.841   6.307  0.1032  0.2169 -0.0192
    1MOL   H199  199   5.085   6.901   6.436 -0.4293 -1.6188 -0.5349
    1MOL   H200  200   5.255   7.051   6.319 -0.0520 -0.9941  0.3094
    1MOL   H201  201   5.212   7.128   6.091 -2.2106  0.5861 -3.2036
    1MOL   C202  202   5.006   7.444   5.735 -0.3078  0.1403  0.1441
    1MOL   C203  203   4.985   7.376   5.590  0.0323  0.0255 -0.0412
    1MOL   C204  204   4.920   7.232   5.608  0.2745 -0.3524  0.0406
    1MOL   C205  205   5.119   7.358   5.514  0.2728 -0.5620 -0.6433
    1MOL   O206  206   5.165   7.449   5.447 -0.0095  0.0707 -0.3000
    1MOL   O207  207   5.181   7.242   5.524  0.3326  0.0463  0.1006
    1MOL   C208  208   5.281   7.201   5.430 -0.5892 -0.1424  0.8657
    1MOL   C209  209   5.374   7.096   5.489 -0.0811  0.4676 -0.0480
    1MOL   C210  210   5.346   7.012   5.603  0.1809 -0.7200 -0.6686
    1MOL   C211  211   5.451   6.926   5.652  0.5266  0.1799  0.0313
    1MOL   C212  212   5.570   6.904   5.585  0.5606  0.0556  0.1478
    1MOL   C213  213   5.601   6.995   5.480 -0.6335 -0.1954 -0.3152
    1MOL   C214  214   5.503   7.088   5.433 -0.1521  0.2421 -0.0068
    1MOL   H215  215   5.011   7.553   5.726  0.7436 -0.0216 -1.5289
    1MOL   H216  216   4.918   7.437   5.798  1.4495  2.1012  2.9257
    1MOL   H217  217   4.821   7.248   5.652 -0.6169 -1.8019 -1.3485
    1MOL   H218  218   4.981   7.169   5.673  4.6438  0.0388 -3.4181
    1MOL   H219  219   4.917   7.176   5.514 -2.0830 -0.2106 -0.0030
    1MOL   H220  220   5.224   7.171   5.342  1.3491  0.8659 -0.7836
    1MOL   H221  221   5.353   7.278   5.404 -0.8251 -0.6753 -1.4834
    1MOL   H222  222   5.243   7.019   5.636  0.2962  0.5514 -0.5482
    1MOL   H223  223   5.428   6.869   5.741  1.4836 -0.7925 -0.3389
    1MOL   H224  224   5.645   6.831   5.610  2.6438  2.0753  0.0756
    1MOL   H225  225   5.699   6.992   5.434 -0.8924  1.8701 -1.0621
    1MOL   H226  226   5.523   7.169   5.364 -2.7355  0.2636 -0.7645
    1MOL   C227  227   4.882   7.477   5.525  0.3392  0.0347 -0.4683
    1MOL   C228  228   4.809   7.469   5.386  0.0416  0.4045  0.1271
    1MOL   C229  229   4.710   7.353   5.391 -0.1634 -0.2453  0.5062
    1MOL   C230  230   4.911   7.462   5.261 -0.0871 -0.3436 -1.1047
    1MOL   O231  231   4.924   7.353   5.202  0.3504 -0.0369  0.3660
    1MOL   O232  232   4.986   7.570   5.236 -0.5123 -0.5546 -0.6282
    1MOL   C233  233   5.107   7.554   5.154  0.3811 -0.7041  0.1261
    1MOL   C234  234   5.088   7.605   5.012 -0.1004  0.6863 -0.0887
    1MOL   C235  235   5.190   7.685   4.955 -0.3458 -0.0245  0.1392
    1MOL   C236  236   5.167   7.720   4.820  0.7001 -1.0023 -0.7192
    1MOL   C237  237   5.046   7.690   4.746 -0.5551  0.3052  0.4956
    1MOL   C238  238   4.952   7.614   4.808 -0.2373 -0.1525  0.4241
    1MOL   C239  239   4.971   7.576   4.943  0.1139  0.3001 -0.6254
    1MOL   H240  240   4.928   7.575   5.526  0.5945 -0.0833  0.6374
    1MOL   H241  241   4.803   7.468   5.599  1.4459 -2.5388  0.4541
    1MOL   H242  242   4.677   7.334   5.289  0.6225 -0.0213  0.2088
    1MOL   H243  243   4.628   7.371   5.461 -1.4752 -3.0072 -0.2606
    1MOL   H244  244   4.753   7.258   5.421 -0.4494 -0.5306  0.0212
    1MOL   H245  245   5.189   7.604   5.206  0.1028 -0.7422  0.6032
    1MOL   H246  246   5.140   7.451   5.148  0.2720 -0.6264 -2.7332
    1MOL   H247  247   5.282   7.723   4.997 -0.1711  1.4977 -1.5271
    1MOL   H248  248   5.247   7.778   4.775 -1.1111  1.9042 -0.3198
    1MOL   H249  249   5.030   7.731   4.648 -1.0691 -0.8694  0.0729
    1MOL   H250  250   4.868   7.584   4.747 -0.9738 -0.1602  1.4446
    1MOL   H251  251   4.899   7.507   4.985  1.2635  0.3868  1.5785
    1MOL   C252  252   4.733   7.606   5.355 -0.4502 -0.0705 -0.2080
    1MOL   C253  253   4.598   7.667   5.424 -0.7443 -0.0293 -0.1451
    1MOL   C254  254   4.617   7.652   5.572  0.5378  0.2829  0.1401
    1MOL   C255  255   4.475   7.590   5.376  0.2674 -0.0820 -0.6397
    1MOL   O256  256   4.377   7.583   5.450 -0.6758 -0.7182  0.6642
    1MOL   O257  257   4.483   7.544   5.254  0.8926 -0.3415  0.0752
    1MOL   C258  258   4.394   7.462   5.193  0.9852  0.2631  0.4760
    1MOL   C259  259   4.444   7.384   5.075 -0.1535  0.2547  0.3931
    1MOL   C260  260   4.541   7.431   4.987  0.4533  0.3041 -0.3516
    1MOL   C261  261   4.586   7.353   4.875  0.1119  0.4726  0.3620
    1MOL   C262  262   4.527   7.227   4.848  0.2135  0.8360  0.1912
    1MOL   C263  263   4.444   7.170   4.945 -0.1038  0.3506  0.4671
    1MOL   C264  264   4.397   7.253   5.053 -0.5219  0.3742 -0.6124
    1MOL   H265  265   4.707   7.605   5.249  1.5072 -2.2531 -0.6941
    1MOL   H266  266   4.807   7.685   5.369  0.1861 -0.9094  1.2170
    1MOL   H267  267   4.719   7.677   5.600  0.8723  1.4202 -1.9311
    1MOL   H268  268   4.585   7.552   5.600  1.1142  0.5566  1.8383
    1MOL   H269  269   4.541   7.712   5.622  1.0316 -0.9206  2.3642
    1MOL   H270  270   4.345   7.390   5.260 -1.5081  0.2667 -1.2860
    1MOL   H271  271   4.305   7.520   5.168  0.2534 -0.2230  1.8724
    1MOL   H272  272   4.596   7.523   5.005 -0.6351  0.8361  0.2857
    1MOL   H273  273   4.661   7.384   4.804 -0.8527  0.4555 -0.6929
    1MOL   H274  274   4.545   7.168   4.759  0.8814  2.5655 -0.8461
    1MOL   H275  275   4.402   7.071   4.929  1.8466 -0.3072 -0.7224
    1MOL   H276  276   4.318   7.218   5.118  0.5596  0.1437  0.6120
    1MOL   C277  277   4.583   7.824   5.402  0.1374  0.6154  0.0461
    1MOL   C278  278   4.544   7.900   5.273  0.4197  1.0922 -1.1047
    1MOL   C279  279   4.396   7.871   5.229 -0.3371  0.4571  0.4474
    1MOL   C280  280   4.637   7.863   5.156  0.3021  0.0955  0.3807
    1MOL   O281  281   4.602   7.815   5.047 -0.3969  0.1072 -0.3793
    1MOL   O282  282   4.770   7.884   5.193  0.1041 -0.1864 -0.3939
    1MOL   C283  283   4.875   7.906   5.096 -0.2233 -0.0795 -0.4655
    1MOL   C284  284   4.975   0.004   5.155 -0.0650 -0.1346 -0.0543
    1MOL   C285  285   5.103   7.968   5.202 -0.0284 -0.3363  0.8841
    1MOL   C286  286   5.193   0.055   5.256  0.1839 -0.3369 -0.1784
    1MOL   C287  287   5.159   0.187   5.263  0.3975 -0.6368 -0.2063
    1MOL   C288  288   5.026   0.226   5.216 -0.2672  0.0076 -0.7291
    1MOL   C289  289   4.932   0.137   5.169 -0.3726 -0.2770 -0.6337
    1MOL   H290  290   4.666   7.875   5.451  0.7964  0.2201 -0.6530
    1MOL   H291  291   4.495   7.851   5.461 -1.5986  0.6597 -2.5039
    1MOL   H292  292   4.358   7.927   5.143 -2.7585  3.1299  3.1283
    1MOL   H293  293   4.333   7.897   5.314 -0.6288 -1.5120  0.8631
    1MOL   H294  294   4.368   7.766   5.220 -2.0008  0.9598 -0.3984
    1MOL   H295  295   4.935   7.817   5.077  0.0376  0.2737 -1.3420
    1MOL   H296  296   4.843   7.938   4.997 -0.3785  1.6669  0.1415
    1MOL   H297  297   5.130   7.864   5.202  0.2684 -0.2700 -0.6524
    1MOL   H298  298   5.287   0.026   5.299  1.2132 -0.4073 -2.3865
    1MOL   H299  299   5.232   0.266   5.276 -0.7619  0.2098  1.2503
    1MOL   H300  300   5.008   0.333   5.214 -1.3435 -0.1621  0.0503
    1MOL   H301  301   4.829   0.155   5.143 -0.0960 -2.0911 -3.1107
    1MOL   C302  302   4.544   0.048   5.312 -0.4139 -0.1344 -0.4917
    1MOL   C303  303   4.477   0.173   5.242 -0.9035 -0.0553 -0.0108
    1MOL   C304  304   4.334   0.192   5.292  0.0625  0.0547  0.5527
    1MOL   C305  305   4.483   0.155   5.087 -0.2644  0.4888 -0.0010
    1MOL   O306  306   4.377   0.142   5.024 -0.0397 -0.2607  0.2024
    1MOL   O307  307   4.602   0.157   5.036 -0.3182 -0.4732  0.1953
    1MOL   C308  308   4.627   0.112   4.901  0.1591  0.0953  0.5713
    1MOL   C309  309   4.611   0.208   4.791 -0.5811 -0.1128  0.0155
    1MOL   C310  310   4.593   0.347   4.814  1.0156 -0.4147  0.4165
    1MOL   C311  311   4.605   0.436   4.704  0.4775 -0.2385 -1.0563
    1MOL   C312  312   4.627   0.394   4.572 -0.5829  0.6335  0.4986
    1MOL   C313  313   4.629   0.252   4.548  0.4613 -0.0193 -0.3420
    1MOL   C314  314   4.620   0.164   4.656  0.7149 -0.4224  0.3452
    1MOL   H315  315   4.652   0.062   5.320 -0.7756  1.7004  1.4529
    1MOL   H316  316   4.504   0.057   5.413 -2.5258  0.2565 -1.3369
    1MOL   H317  317   4.332   0.222   5.397  1.2025  0.8478  0.3533
    1MOL   H318  318   4.283   0.096   5.283  0.2346  0.1963 -2.4329
    1MOL   H319  319   4.277   0.259   5.227 -0.4960 -2.7680 -1.9702
    1MOL   H320  320   4.723   0.060   4.896  0.8115  1.0600  2.7631
    1MOL   H321  321   4.565   0.026   4.875  0.0632  0.6553 -1.1087
    1MOL   H322  322   4.593   0.386   4.915 -1.9027  0.6725  0.0413
    1MOL   H323  323   4.606   0.542   4.726 -1.7513 -0.5080  0.4778
    1MOL   H324  324   4.644   0.459   4.487  0.4733  1.2722  1.1892
    1MOL   H325  325   4.636   0.210   4.448  2.2242  0.9948 -0.6520
    1MOL   H326  326   4.622   0.057   4.637 -2.3161 -0.5172  0.3087
    1MOL   C327  327   4.573   0.288   5.298  0.1617 -0.5121  0.2295
    1MOL   C328  328   4.550   0.442   5.286 -0.4525  0.0180  0.1822
    1MOL   C329  329   4.442   0.494   5.380  0.1036  0.3983 -0.7259
    1MOL   C330  330   4.499   0.487   5.149  0.0574 -0.3285  0.7337
    1MOL   O331  331   4.567   0.565   5.078 -0.0477  0.0591 -0.6366
    1MOL   O332  332   4.385   0.444   5.115  0.3181  0.1488  0.0544
    1MOL   C333  333   4.316   0.471   4.993  0.9067 -0.6044 -0.5483
    1MOL   C334  334   4.164   0.474   5.015 -0.2921 -0.0355  0.0353
    1MOL   C335  335   4.071   0.420   4.921 -0.7326  0.6449  1.1609
    1MOL   C336  336   3.935   0.426   4.947  0.6634 -0.2075 -0.1339
    1MOL   C337  337   3.887   0.476   5.069 -0.1684  0.0845  0.6751
    1MOL   C338  338   3.976   0.529   5.163 -0.1118 -0.2546  0.5218
    1MOL   C339  339   4.116   0.532   5.136 -0.2001 -1.1648 -0.5058
    1MOL   H340  340   4.672   0.273   5.255  0.2430  0.4816  0.0391
    1MOL   H341  341   4.583   0.264   5.404 -1.1695  1.3982  0.8285
    1MOL   H342  342   4.434   0.602   5.377 -1.2562  0.3281  0.0615
    1MOL   H343  343   4.460   0.454   5.480 -0.2776 -0.4072 -0.9751
    1MOL   H344  344   4.345   0.452   5.354 -0.9994  3.4407 -1.7346
    1MOL   H345  345   4.344   0.564   4.944  2.3062  0.0583  1.4130
    1MOL   H346  346   4.331   0.395   4.917 -0.3643 -0.3895 -1.0275
    1MOL   H347  347   4.109   0.373   4.831  0.6488  3.2725  0.3241
    1MOL   H348  348   3.874   0.377   4.872 -0.4871  0.9941  0.0025
    1MOL   H349  349   3.781   0.476   5.091 -0.1121  0.9799  0.9293
    1MOL   H350  350   3.936   0.581   5.249 -0.5545 -0.7773  0.6383
    1MOL   H351  351   4.190   0.578   5.201 -0.4081 -0.9997 -0.3842
    1MOL   C352  352   4.697   0.521   5.314 -0.0775 -0.0482 -0.7930
    1MOL   C353  353   4.785   0.520   5.441  0.0280  1.1865 -0.7301
    1MOL   C354  354   4.839   0.381   5.491  0.5765 -0.0529  0.0291
    1MOL   C355  355   4.690   0.578   5.552 -0.4719  0.7431  1.2985
    1MOL   O356  356   4.685   0.522   5.660 -0.3769  0.1226 -0.4500
    1MOL   O357  357   4.617   0.688   5.522 -0.1961  0.1016  0.2192
    1MOL   C358  358   4.524   0.745   5.615 -0.7986 -0.3362 -0.4220
    1MOL   C359  359   4.476   0.878   5.554  0.7248 -0.6001 -0.0157
    1MOL   C360  360   4.573   0.969   5.512  0.3114 -0.1774  0.0561
    1MOL   C361  361   4.542   1.090   5.449  0.6083 -0.1806 -0.0648
    1MOL   C362  362   4.403   1.117   5.437 -0.7619 -0.9366 -0.7431
    1MOL   C363  363   4.306   1.029   5.487  0.0955  0.1889  0.1740
    1MOL   C364  364   4.339   0.902   5.539  0.0983  0.2734 -0.1965
    1MOL   H365  365   4.682   0.628   5.300  0.1058 -0.0886 -1.2993
    1MOL   H366  366   4.760   0.488   5.232 -0.0010 -0.3852 -0.6006
    1MOL   H367  367   4.907   0.391   5.576  0.1440  2.0500  0.1409
    1MOL   H368  368   4.884   0.335   5.403 -2.3073 -1.4803 -0.7467
    1MOL   H369  369   4.765   0.306   5.516  0.5783 -0.0938 -0.0850
    1MOL   H370  370   4.447   0.676   5.647  0.5442 -2.4367 -1.6186
    1MOL   H371  371   4.581   0.757   5.707  0.9987  2.8323 -1.8362
    1MOL   H372  372   4.673   0.930   5.518  0.1695 -0.8158 -1.5101
    1MOL   H373  373   4.616   1.164   5.421 -0.4813  0.8732 -0.1989
    1MOL   H374  374   4.376   1.210   5.390 -0.9553 -0.9339 -0.6253
    1MOL   H375  375   4.205   1.050   5.456  0.3763  2.4139  0.6194
    1MOL   H376  376   4.269   0.824   5.563  0.9290 -1.4839 -3.2085
    1MOL   C377  377   4.899   0.628   5.408 -0.4509  0.2294 -0.2316
    1MOL   C378  378   5.046   0.644   5.477  0.0227  0.2929  0.3743
    1MOL   C379  379   5.136   0.534   5.409  0.0928  0.0892 -0.5778
    1MOL   C380  380   5.030   0.607   5.632 -0.7104 -0.2403  0.8768
    1MOL   O381  381   5.102   0.522   5.686 -0.4056 -0.2252 -0.3384
    1MOL   O382  382   4.949   0.690   5.691 -0.0971 -0.1188 -0.6617
    1MOL   C383  383   4.900   0.686   5.824 -0.2277  0.8574 -0.3263
    1MOL   C384  384   5.010   0.696   5.934 -0.6934  0.1737  0.1994
    1MOL   C385  385   5.052   0.826   5.967  0.4447  0.1887 -0.0650
    1MOL   C386  386   5.141   0.848   6.071 -0.1809 -0.1778  0.3753
    1MOL   C387  387   5.204   0.737   6.134 -0.4630  0.0698  0.6472
    1MOL   C388  388   5.162   0.603   6.100  0.5874  0.2778  0.3568
    1MOL   C389  389   5.061   0.579   6.002  0.2829 -0.5310  0.1233
    1MOL   H390  390   4.853   0.724   5.430 -0.5988  0.1442 -0.1714
    1MOL   H391  391   4.907   0.636   5.299  2.9651 -0.0475 -0.0747
    1MOL   H392  392   5.142   0.547   5.301  1.0158  0.0985 -0.5288
    1MOL   H393  393   5.103   0.432   5.429 -0.0552  0.3777  0.6730
    1MOL   H394  394   5.233   0.544   5.457 -0.0949 -0.8263 -0.0058
    1MOL   H395  395   4.822   0.759   5.845 -1.7294 -0.7412 -0.2106
    1MOL   H396  396   4.859   0.586   5.843  0.9137  0.0836 -1.8241
    1MOL   H397  397   5.004   0.911   5.920 -0.1261 -0.3301 -0.4312
    1MOL   H398  398   5.165   0.951   6.092 -1.3730  0.8594 -3.0545
    1MOL   H399  399   5.277   0.757   6.210 -1.8117 -0.8573  2.2351
    1MOL   H400  400   5.206   0.517   6.148 -1.0506 -1.2452 -0.8141
    1MOL   H401  401   5.021   0.482   5.977  1.2134 -0.9068  0.0702
    1MOL   C402  402   5.107   0.786   5.462 -0.5110 -0.8575  0.5099
    1MOL   C403  403   5.179   0.852   5.336  0.1764 -0.6376  0.5219
    1MOL   C404  404   5.195   1.000   5.381 -0.0503  0.0559  0.1391
    1MOL   C405  405   5.086   0.833   5.211  0.1024  0.5152 -0.4614
    1MOL   O406  406   5.102   0.733   5.140  0.0084 -0.6281  0.2862
    1MOL   O407  407   4.984   0.926   5.198  0.1456  0.4491 -0.0574
    1MOL   C408  408   4.888   0.907   5.091  0.2051  0.0940  0.4440
    1MOL   C409  409   4.794   1.023   5.083 -0.2783 -0.4828  0.5009
    1MOL   C410  410   4.845   1.151   5.038 -0.2630  0.1266 -0.2422
    1MOL   C411  411   4.755   1.260   5.032 -0.2269 -0.2642  0.3787
    1MOL   C412  412   4.615   1.248   5.051  0.2541 -0.7278  0.4684
    1MOL   C413  413   4.566   1.121   5.095 -0.6687 -0.3824  0.4178
    1MOL   C414  414   4.654   1.010   5.116  0.7913 -0.3195 -0.0180
    1MOL   H415  415   5.184   0.781   5.539  1.2387  0.3930 -1.1267
    1MOL   H416  416   5.039   0.852   5.516  1.2041  1.2396  0.1733
    1MOL   H417  417   5.099   1.039   5.415 -1.2133 -1.8406 -0.8158
    1MOL   H418  418   5.231   1.069   5.304  1.5872  0.3716  1.1776
    1MOL   H419  419   5.270   1.019   5.457 -0.4596  2.0238  0.0889
    1MOL   H420  420   4.932   0.913   4.992 -0.2416 -0.7916  0.1871
    1MOL   H421  421   4.829   0.816   5.102 -1.3716  0.8063 -1.8361
    1MOL   H422  422   4.952   1.161   5.024 -0.2409 -1.6126 -1.3568
    1MOL   H423  423   4.801   1.353   5.004 -0.3442 -0.7775 -1.6139
    1MOL   H424  424   4.546   1.331   5.054  2.3605  1.0929 -0.2414
    1MOL   H425  425   4.461   1.103   5.112 -0.8430 -0.1547 -0.3753
    1MOL   H426  426   4.622   0.913   5.150  3.3637 -1.5008 -0.8533
    1MOL   C427  427   5.330   0.800   5.310 -0.1398  0.3511  0.0657
    1MOL   C428  428   5.431   0.850   5.200  0.3528 -0.1452  0.0419
    1MOL   C429  429   5.362   0.919   5.081 -0.0601  0.5143 -0.2380
    1MOL   C430  430   5.520   0.731   5.137 -0.0112 -0.7797  0.0049
    1MOL   O431  431   5.537   0.710   5.016  0.4881 -0.1973 -0.0758
    1MOL   O432  432   5.580   0.667   5.232 -0.4139  0.5899  0.4217
    1MOL   C433  433   5.661   0.551   5.202 -0.4684 -0.2371  0.5520
    1MOL   C434  434   5.603   0.420   5.252  0.6849  0.1341  0.5288
    1MOL   C435  435   5.536   0.416   5.373  0.2428  0.1847  0.0492
    1MOL   C436  436   5.487   0.295   5.422 -0.5732  0.0504  0.1172
    1MOL   C437  437   5.498   0.179   5.347  0.2015  0.2525  0.0831
    1MOL   C438  438   5.562   0.186   5.216 -0.5048 -0.0566 -0.2277
    1MOL   C439  439   5.611   0.309   5.171  0.4877 -0.1796  0.0269
    1MOL   H440  440   5.330   0.692   5.298 -0.2799  0.3752 -0.1600
    1MOL   H441  441   5.388   0.804   5.402  0.3866  0.9007 -0.2840
    1MOL   H442  442   5.299   0.862   5.014 -0.5195  3.9521 -2.8738
    1MOL   H443  443   5.436   0.951   5.008 -0.9925  1.9723 -0.5801
    1MOL   H444  444   5.312   1.013   5.107  0.1429  0.2989  0.9671
    1MOL   H445  445   5.676   0.534   5.096  0.1615 -2.9626  1.0462
    1MOL   H446  446   5.761   0.552   5.244 -0.7323  0.8655  1.1833
    1MOL   H447  447   5.516   0.496   5.442 -0.3823 -1.9103  2.3732
    1MOL   H448  448   5.432   0.280   5.514 -1.9833  0.4276 -0.6476
    1MOL   H449  449   5.460   0.085   5.385 -1.1109  0.4432 -0.7385
    1MOL   H450  450   5.564   0.095   5.157 -1.1666  0.2187 -0.6759
    1MOL   H451  451   5.653   0.310   5.071  0.0125  0.6697 -0.1697
    1MOL   C452  452   5.532   0.938   5.284 -0.2988 -0.4946  0.1652
    1MOL   C453  453   5.615   1.053   5.218 -0.2379 -0.3935  0.2346
    1MOL   C454  454   5.530   1.184   5.228  0.5661 -0.1226  0.6647
    1MOL   C455  455   5.657   1.027   5.077 -0.3340  0.4749  1.0425
    1MOL   O456  456   5.621   1.095   4.980  0.7429  0.0364 -0.0350
    1MOL   O457  457   5.748   0.934   5.058 -0.1388  0.6736 -0.7435
    1MOL   C458  458   5.798   0.895   4.931 -0.0312 -0.8490  0.0995
    1MOL   C459  459   5.942   0.874   4.934  0.0787  0.6710 -0.5517
    1MOL   C460  460   6.004   0.839   5.061  1.3793 -0.0831  0.4932
    1MOL   C461  461   6.139   0.801   5.061 -0.0911  0.5935  0.4332
    1MOL   C462  462   6.216   0.802   4.940  0.7914 -0.1030  0.5732
    1MOL   C463  463   6.153   0.836   4.818 -0.4580  0.2174  0.5420
    1MOL   C464  464   6.015   0.869   4.818  0.4506 -0.2823  0.5254
    1MOL   H465  465   5.589   0.874   5.350  0.6751  1.0167  0.8146
    1MOL   H466  466   5.485   0.984   5.371  0.6277 -0.4140  0.6261
    1MOL   H467  467   5.545   1.228   5.326  1.4471  0.1456  0.4135
    1MOL   H468  468   5.425   1.155   5.225  1.1503 -2.4869  1.5288
    1MOL   H469  469   5.545   1.266   5.158 -1.3573  1.3272  1.9004
    1MOL   H470  470   5.739   0.809   4.900 -0.2004 -0.9422  0.6824
    1MOL   H471  471   5.793   0.977   4.859 -1.9754 -0.9297  0.1248
    1MOL   H472  472   5.947   0.828   5.152  0.7983 -0.3133  0.1036
    1MOL   H473  473   6.184   0.762   5.151 -1.5474  0.4169  1.1009
    1MOL   H474  474   6.322   0.784   4.932  0.6782 -0.8909  0.8024
    1MOL   H475  475   6.214   0.840   4.730 -0.1431  0.5988  0.7774
    1MOL   H476  476   5.960   0.903   4.732  1.2955  0.2058  0.1690
    1MOL   C477  477   5.746   1.070   5.303 -0.1126 -0.4993  0.9767
    1MOL   C478  478   5.855   1.168   5.255  0.7684 -0.6501 -0.8220
    1MOL   C479  479   5.973   1.142   5.347 -0.3770 -0.6371 -0.0293
    1MOL   C480  480   5.809   1.312   5.269 -0.6075 -0.1141  0.5118
    1MOL   O481  481   5.792   1.390   5.174  0.6961 -0.1347 -0.9268
    1MOL   O482  482   5.778   1.343   5.400 -0.1910  0.1324  0.3147
    1MOL   C483  483   5.717   1.457   5.450  0.0333  0.3803  0.3883
    1MOL   C484  484   5.796   1.517   5.569 -0.3588  0.3668  0.8185
    1MOL   C485  485   5.864   1.430   5.653  0.1961 -0.2315 -0.6017
    1MOL   C486  486   5.928   1.480   5.767  0.5963  0.3522  0.0895
    1MOL   C487  487   5.926   1.619   5.789  0.6189  0.7987 -0.4026
    1MOL   C488  488   5.869   1.708   5.695  0.3514  0.2236  0.3191
    1MOL   C489  489   5.793   1.655   5.591  0.6777 -0.1963  0.6393
    1MOL   H490  490   5.793   0.972   5.302 -0.7217 -0.7920  0.7492
    1MOL   H491  491   5.731   1.087   5.409  2.2588 -0.4098  1.3305
    1MOL   H492  492   6.038   1.229   5.348 -0.1635 -0.7964 -0.0684
    1MOL   H493  493   6.027   1.053   5.314 -2.2597 -1.5052 -0.8739
    1MOL   H494  494   5.938   1.131   5.449 -1.9602  0.0849 -0.4717
    1MOL   H495  495   5.696   1.530   5.372  2.3737 -0.8141 -1.4266
    1MOL   H496  496   5.625   1.421   5.496  1.6938  0.6301  4.0562
    1MOL   H497  497   5.854   1.323   5.645  0.8785 -0.3799  0.3818
    1MOL   H498  498   5.978   1.411   5.834  0.1414 -1.1089 -1.0347
    1MOL   H499  499   5.988   1.654   5.871  0.9358  2.3023 -1.2812
    1MOL   H500  500   5.862   1.813   5.719 -1.6557  0.2140 -0.1578
    1MOL   H501  501   5.745   1.723   5.522 -0.3132 -2.1272 -0.6010
    1MOL   H502  502   5.876   1.134   5.153  0.8846 -0.4946 -0.8494
    2MOL     C1  503   1.533   2.473   5.275 -0.3908 -0.1935  0.2032
    2MOL     C2  504   1.634   2.578   5.219 -0.0159  0.6260  0.1340
    2MOL     C3  505   1.546   2.655   5.122  0.3264  0.2299  0.7471
    2MOL     C4  506   1.754   2.514   5.143  0.0377  0.8080 -1.0313
    2MOL     O5  507   1.757   2.393   5.104  0.2648 -0.2915  0.0623
    2MOL     O6  508   1.847   2.602   5.115  0.1814 -0.5369  0.1872
    2MOL     C7  509   1.962   2.562   5.051 -0.5124 -0.1896  0.4448
    2MOL     C8  510   1.955   2.569   4.902 -0.2274 -0.7684  0.0193
    2MOL     C9  511   1.909   2.692   4.847  0.4780  0.3700  0.0582
    2MOL    C10  512   1.910   2.706   4.702  0.6558  0.3743 -0.2878
    2MOL    C11  513   1.944   2.594   4.624  0.2283  0.0706 -0.1268
    2MOL    C12  514   2.001   2.481   4.677  0.5727  0.5765  0.2674
    2MOL    C13  515   2.001   2.467   4.816  0.3699  0.2658  0.1204
    2MOL    H14  516   1.507   2.395   5.203  0.1410 -0.8171  0.6836
    2MOL    H15  517   1.575   2.412   5.354  1.1065 -1.5853 -1.6139
    2MOL    H16  518   1.441   2.648   5.150  0.0092 -1.4717 -0.7628
    2MOL    H17  519   1.545   2.600   5.028 -1.2520 -2.1948  2.1411
    2MOL    H18  520   1.583   2.757   5.107  1.3005 -0.0682  1.1009
    2MOL    H19  521   2.035   2.640   5.072 -1.6479  1.5778 -1.9710
    2MOL    H20  522   2.006   2.467   5.084 -1.7778 -0.9134  0.1046
    2MOL    H21  523   1.878   2.773   4.912  0.6192  2.1394 -2.0326
    2MOL    H22  524   1.870   2.793   4.651  0.3208  0.4520  0.0980
    2MOL    H23  525   1.924   2.595   4.518 -0.4392  0.7850 -0.0004
    2MOL    H24  526   2.030   2.401   4.610 -0.4683  0.6526 -0.2829
    2MOL    H25  527   2.052   2.379   4.852  0.1004  0.5755  1.2884
    2MOL    H26  528   1.443   2.518   5.316 -0.4610 -0.4349  0.3149
    2MOL    C27  529   1.682   2.679   5.330 -0.5337  0.0636 -0.1943
    2MOL    C28  530   1.760   2.633   5.461 -0.1402 -0.1904  0.4603
    2MOL    C29  531   1.871   2.538   5.436 -0.0692  1.4435 -0.1988
    2MOL    C30  532   1.667   2.572   5.571 -0.3820 -0.7482  0.3846
    2MOL    O31  533   1.701   2.478   5.636  0.4167 -0.5146  0.0609
    2MOL    O32  534   1.546   2.631   5.580 -0.5062  0.2900  0.0479
    2MOL    C33  535   1.454   2.593   5.681 -0.5884  0.0328 -0.1582
    2MOL    C34  536   1.399   2.713   5.753  0.1054  0.1624 -0.2157
    2MOL    C35  537   1.391   2.835   5.690 -0.2234  0.0902  0.2358
    2MOL    C36  538   1.339   2.945   5.757  0.2122 -0.3360 -0.1246
    2MOL    C37  539   1.303   2.939   5.891  0.9722 -0.7604 -0.8609
    2MOL    C38  540   1.300   2.813   5.958  0.2103  0.2226  0.2146
    2MOL    C39  541   1.346   2.701   5.886 -0.1147 -0.1668  0.0871
    2MOL    H40  542   1.594   2.739   5.351  0.5374  1.4469  0.4067
    2MOL    H41  543   1.747   2.753   5.284  1.7522 -0.4624  2.0153
    2MOL    H42  544   1.932   2.553   5.347  1.9102  1.5082  1.1276
    2MOL    H43  545   1.833   2.437   5.426  0.1960  1.3403 -0.1489
    2MOL    H44  546   1.934   2.515   5.522 -1.6273 -1.8838  0.1244
    2MOL    H45  547   1.375   2.540   5.628 -0.1919  0.0673 -0.7897
    2MOL    H46  548   1.495   2.515   5.745 -0.9488  1.3901  1.7399
    2MOL    H47  549   1.416   2.837   5.585 -2.1549 -1.4585 -0.2838
    2MOL    H48  550   1.344   3.046   5.718 -0.4427 -0.1443  0.2922
    2MOL    H49  551   1.279   3.032   5.941 -3.6867 -1.8823 -0.8049
    2MOL    H50  552   1.259   2.804   6.057 -2.1351 -1.7273 -0.8918
    2MOL    H51  553   1.347   2.611   5.945 -0.0250  0.2038  0.6540
    2MOL    C52  554   1.815   2.767   5.537 -0.3514  0.4628  0.0679
    2MOL    C53  555   1.891   2.884   5.466 -0.9905  1.2293 -0.1160
    2MOL    C54  556   1.804   2.991   5.397 -0.7194  0.3213 -0.9479
    2MOL    C55  557   1.992   2.818   5.361  0.2198 -0.4886 -0.1546
    2MOL    O56  558   1.981   2.842   5.238  0.4850  0.1629  0.0558
    2MOL    O57  559   2.083   2.736   5.420  0.1065 -0.2091  0.4418
    2MOL    C58  560   2.203   2.699   5.356 -0.2645 -0.4412  0.2220
    2MOL    C59  561   2.319   2.709   5.457 -0.4220  0.2442  0.2590
    2MOL    C60  562   2.437   2.783   5.437  0.8933 -0.2966  0.3146
    2MOL    C61  563   2.537   2.798   5.541 -0.0884  0.1887 -0.6255
    2MOL    C62  564   2.514   2.724   5.663 -0.2549 -0.5757 -0.3544
    2MOL    C63  565   2.396   2.638   5.677  0.5073  0.1939  0.5382
    2MOL    C64  566   2.301   2.631   5.576  0.1091 -0.0391  0.5504
    2MOL    H65  567   1.869   2.734   5.626  1.2749  0.7780 -0.7784
    2MOL    H66  568   1.730   2.816   5.585  1.5445  2.9787  0.9764
    2MOL    H67  569   1.718   3.020   5.457 -0.7744 -1.0326 -0.3792
    2MOL    H68  570   1.754   2.964   5.304 -1.1786 -0.2321 -0.5391
    2MOL    H69  571   1.860   3.081   5.369  0.0661 -0.7818 -3.0561
    2MOL    H70  572   2.177   2.602   5.314 -0.8456  0.5549 -1.7693
    2MOL    H71  573   2.233   2.765   5.275  0.1986 -0.6642  0.2061
    2MOL    H72  574   2.453   2.834   5.343 -1.8535  1.9302  0.9751
    2MOL    H73  575   2.625   2.860   5.530  2.5904 -3.1125  0.9728
    2MOL    H74  576   2.573   2.741   5.752 -0.6965 -0.1427 -0.1431
    2MOL    H75  577   2.381   2.581   5.767 -0.5886  0.6979  0.6734
    2MOL    H76  578   2.203   2.588   5.585 -1.2902  2.7224 -0.7821
    2MOL    C77  579   1.977   2.952   5.584 -1.1391  0.6201  0.2796
    2MOL    C78  580   1.929   3.053   5.691 -0.5662  0.4700 -0.2738
    2MOL    C79  581   1.798   3.010   5.759  0.2682  0.1683  0.0165
    2MOL    C80  582   1.887   3.181   5.621 -0.4670  0.5780  0.0316
    2MOL    O81  583   1.768   3.226   5.621  0.6317  1.0397 -0.3180
    2MOL    O82  584   1.979   3.241   5.546 -0.4371  0.7362  0.2921
    2MOL    C83  585   1.951   3.366   5.489 -0.7068 -0.2282 -0.5036
    2MOL    C84  586   2.033   3.478   5.555 -0.1707 -0.3104  0.3490
    2MOL    C85  587   2.148   3.446   5.626  0.4216  0.2810  0.4358
    2MOL    C86  588   2.234   3.544   5.680 -0.9890 -0.2352 -0.3112
    2MOL    C87  589   2.191   3.678   5.666 -0.3858 -0.1937 -0.3194
    2MOL    C88  590   2.073   3.716   5.594  0.2556  0.3469 -0.0566
    2MOL    C89  591   1.998   3.617   5.539  0.1099  0.5587 -0.4681
    2MOL    H90  592   2.055   3.008   5.533  0.0751 -1.3189  0.0060
    2MOL    H91  593   2.024   2.867   5.633 -0.7873  2.0304  2.4657
    2MOL    H92  594   1.767   3.074   5.842 -0.6014 -2.0478  1.4491
    2MOL    H93  595   1.788   2.907   5.793  1.4301 -0.8863 -2.7138
    2MOL    H94  596   1.710   3.021   5.696 -0.3183  1.8624  1.0902
    2MOL    H95  597   1.979   3.369   5.383 -0.1926  0.9826 -0.3402
    2MOL    H96  598   1.847   3.396   5.494 -1.0536 -1.7270  2.2847
    2MOL    H97  599   2.173   3.342   5.645 -3.8415 -0.7671  0.8044
    2MOL    H98  600   2.324   3.514   5.731 -1.9635 -1.5486  0.6879
    2MOL    H99  601   2.252   3.752   5.716 -0.7140  0.1193 -0.3721
    2MOL   H100  602   2.060   3.822   5.576  1.5559  0.5702  0.2839
    2MOL   H101  603   1.916   3.646   5.476  0.2613  2.8497  0.3394
    2MOL   C102  604   2.054   3.070   5.790 -0.0334  0.4432  0.4846
    2MOL   C103  605   2.042   3.122   5.940  0.8090  0.4757 -0.2156
    2MOL   C104  606   1.983   3.000   6.020  0.3054 -0.3599 -0.4042
    2MOL   C105  607   1.957   3.248   5.955 -0.0131  0.2410 -0.0623
    2MOL   O106  608   1.953   3.343   5.879 -0.0606 -0.0435 -0.1968
    2MOL   O107  609   1.882   3.250   6.066 -0.1001 -0.0879  0.0081
    2MOL   C108  610   1.777   3.348   6.087  0.1683  0.9613  0.0385
    2MOL   C109  611   1.641   3.283   6.113 -0.7369  0.1731 -0.0558
    2MOL   C110  612   1.529   3.360   6.097  0.1430 -0.2885 -0.2888
    2MOL   C111  613   1.407   3.316   6.143 -0.7620 -0.1935  0.2362
    2MOL   C112  614   1.399   3.186   6.206 -0.0296 -0.2113 -0.3692
    2MOL   C113  615   1.514   3.110   6.226  0.2238 -0.1433 -0.3254
    2MOL   C114  616   1.635   3.161   6.182  0.0908 -0.0991 -0.5649
    2MOL   H115  617   2.122   3.138   5.739 -0.1821  0.5809  0.4669
    2MOL   H116  618   2.119   2.983   5.793 -1.8915 -0.9581  1.7254
    2MOL   H117  619   1.960   3.023   6.124  2.5048 -0.3819  0.0982
    2MOL   H118  620   2.053   2.919   6.038 -1.2584 -1.3381  1.5445
    2MOL   H119  621   1.892   2.959   5.976 -0.5937  0.5610  0.5701
    2MOL   H120  622   1.806   3.418   6.165  3.4727 -1.1685  0.8222
    2MOL   H121  623   1.771   3.408   5.996 -0.7937 -0.4764 -0.8573
    2MOL   H122  624   1.543   3.452   6.042  0.8754 -0.7000 -0.8002
    2MOL   H123  625   1.322   3.378   6.122  0.3419  1.6928  1.2651
    2MOL   H124  626   1.300   3.154   6.234  0.7775 -2.4309  0.0240
    2MOL   H125  627   1.514   3.016   6.280  1.6653  0.3763  0.6155
    2MOL   H126  628   1.723   3.101   6.202  0.0022  0.4133  1.4485
    2MOL   C127  629   2.196   3.145   5.992 -0.2531  0.0231  0.5857
    2MOL   C128  630   2.234   3.204   6.134 -0.3234 -1.0047 -0.4511
    2MOL   C129  631   2.139   3.142   6.249  0.8344 -0.3587  0.2707
    2MOL   C130  632   2.222   3.355   6.152  0.1083  0.3490 -0.7730
    2MOL   O131  633   2.202   3.424   6.059  0.2965  0.7353  1.1127
    2MOL   O132  634   2.243   3.401   6.274  0.0697 -0.4361 -0.2601
    2MOL   C133  635   2.238   3.542   6.305  0.1874 -0.0184 -0.3734
    2MOL   C134  636   2.138   3.575   6.413 -0.2765  0.9387 -0.4587
    2MOL   C135  637   2.109   3.487   6.517  0.5438 -0.0734  0.1646
    2MOL   C136  638   2.014   3.518   6.618  0.6528  0.1274  0.7727
    2MOL   C137  639   1.956   3.643   6.624  0.6453 -0.2221 -0.2340
    2MOL   C138  640   1.991   3.737   6.528 -0.0267 -0.3850 -0.3494
    2MOL   C139  641   2.082   3.706   6.424  0.3125  1.4505  0.0827
    2MOL   H140  642   2.244   3.203   5.913  1.5140 -1.7478  0.3296
    2MOL   H141  643   2.243   3.047   5.986 -1.6269 -0.6222 -0.0603
    2MOL   H142  644   2.140   3.035   6.229 -1.6667 -0.7365  1.8785
    2MOL   H143  645   2.036   3.175   6.233  0.3078 -2.7166 -1.6289
    2MOL   H144  646   2.171   3.168   6.349 -1.5426  1.5201  0.5731
    2MOL   H145  647   2.338   3.569   6.338  0.8702 -2.7236 -0.1365
    2MOL   H146  648   2.204   3.595   6.216 -0.6270 -0.5297 -0.3719
    2MOL   H147  649   2.160   3.391   6.517  3.4575  1.4080  0.0404
    2MOL   H148  650   1.984   3.433   6.677  0.6985 -0.8383 -0.5629
    2MOL   H149  651   1.875   3.656   6.695 -2.1269 -0.2596 -3.2969
    2MOL   H150  652   1.941   3.832   6.537  0.3774 -0.0809 -1.2385
    2MOL   H151  653   2.114   3.789   6.361 -1.2706  0.5870 -1.9102
    2MOL   C152  654   2.380   3.158   6.175  0.1585  0.0584 -0.3551
    2MOL   C153  655   2.512   3.233   6.132 -0.2308  0.4483  0.2971
    2MOL   C154  656   2.519   3.369   6.207 -0.6013 -0.5216  0.1668
    2MOL   C155  657   2.501   3.251   5.982  0.9220 -0.0835  0.6911
    2MOL   O156  658   2.496   3.361   5.925  0.0998 -0.6240  0.1296
    2MOL   O157  659   2.507   3.129   5.915  0.7128  0.3261 -0.2469
    2MOL   C158  660   2.508   3.130   5.775  0.7364 -0.0763 -0.4308
    2MOL   C159  661   2.650   3.124   5.730 -0.1681  0.1666 -0.3148
    2MOL   C160  662   2.690   3.182   5.607  0.3308 -0.1970  0.4238
    2MOL   C161  663   2.816   3.168   5.559  0.0591  0.2289 -0.4447
    2MOL   C162  664   2.913   3.105   5.634  0.7979  0.7121 -0.6116
    2MOL   C163  665   2.880   3.051   5.758 -0.5729  0.0111 -0.2749
    2MOL   C164  666   2.749   3.049   5.808  0.7132 -0.1859  0.2482
    2MOL   H165  667   2.389   3.052   6.155  1.2848 -0.4031  2.3868
    2MOL   H166  668   2.386   3.157   6.283  0.5427  0.4788 -0.3676
    2MOL   H167  669   2.484   3.362   6.309 -0.7369 -1.0040  0.0905
    2MOL   H168  670   2.473   3.455   6.158  1.3742  0.4094 -0.0994
    2MOL   H169  671   2.624   3.396   6.213 -0.3219 -1.7199  0.7563
    2MOL   H170  672   2.467   3.032   5.748  1.3227 -0.4083 -0.1284
    2MOL   H171  673   2.454   3.209   5.723  0.2234  1.1296  1.8384
    2MOL   H172  674   2.614   3.234   5.551  0.4819 -0.2546  0.1658
    2MOL   H173  675   2.836   3.209   5.461 -1.4049  2.5461  0.1937
    2MOL   H174  676   3.009   3.109   5.585 -0.3659  0.9273 -2.9093
    2MOL   H175  677   2.954   3.011   5.825  0.0878  0.2364 -0.8652
    2MOL   H176  678   2.725   3.005   5.904  1.2562 -0.9093  0.0563
    2MOL   C177  679   2.648   3.156   6.162  0.4990  0.0246 -0.0665
    2MOL   C178  680   2.686   3.091   6.305  0.1299  0.2026  0.9907
    2MOL   C179  681   2.598   2.963   6.322  0.6440 -0.2251  0.2701
    2MOL   C180  682   2.663   3.184   6.426  0.3270 -0.3913 -0.5216
    2MOL   O181  683   2.574   3.168   6.514 -0.0044  0.3204 -0.6979
    2MOL   O182  684   2.750   3.289   6.430 -0.3745  0.2429 -0.1464
    2MOL   C183  685   2.758   3.366   6.550 -0.5078  0.4425  0.0656
    2MOL   C184  686   2.885   3.445   6.557  0.1491 -0.2012 -0.3421
    2MOL   C185  687   3.008   3.389   6.597 -0.2140  0.4982 -0.0010
    2MOL   C186  688   3.128   3.458   6.599 -0.2729 -0.3550 -0.1136
    2MOL   C187  689   3.114   3.598   6.588  0.1718 -0.0095 -0.5057
    2MOL   C188  690   2.995   3.658   6.555 -0.8564 -0.2301 -0.2549
    2MOL   C189  691   2.880   3.579   6.532  0.2572 -0.2230  0.1395
    2MOL   H190  692   2.735   3.217   6.142  1.6419 -1.6895 -0.4233
    2MOL   H191  693   2.653   3.075   6.089  0.2306  0.5373 -0.6535
    2MOL   H192  694   2.496   2.996   6.339  1.4549  2.9751 -0.7633
    2MOL   H193  695   2.610   2.906   6.415 -1.9524 -0.6319  0.3861
    2MOL   H194  696   2.615   2.901   6.234  1.0360  1.3656 -0.8062
    2MOL   H195  697   2.672   3.432   6.539 -0.7687  0.1103  0.1279
    2MOL   H196  698   2.744   3.318   6.647  3.2438 -2.0285 -0.5077
    2MOL   H197  699   3.006   3.281   6.606  2.1717  0.5962  2.4491
    2MOL   H198  700   3.230   3.424   6.612  0.2241  0.7300 -1.0184
    2MOL   H199  701   3.202   3.660   6.595  0.1910 -0.0530 -0.3623
    2MOL   H200  702   2.985   3.765   6.543  1.7621 -0.0167 -0.6544
    2MOL   H201  703   2.784   3.625   6.511 -0.9885 -2.3383  0.9827
    2MOL   C202  704   2.842   3.048   6.296 -0.2236 -0.7043 -0.2527
    2MOL   C203  705   2.915   2.949   6.407  0.5494  0.1153 -0.1956
    2MOL   C204  706   2.865   2.968   6.555  1.2443  0.8465  0.0850
    2MOL   C205  707   3.070   2.984   6.400 -0.2002 -0.0784  0.7478
    2MOL   O206  708   3.135   2.989   6.294 -1.0002 -0.1383 -0.3683
    2MOL   O207  709   3.115   3.026   6.525  0.0188  0.2041 -0.0350
    2MOL   C208  710   3.248   3.054   6.532 -0.2110  0.3698 -0.3545
    2MOL   C209  711   3.327   2.972   6.632  0.1342  0.6136 -0.1620
    2MOL   C210  712   3.467   2.949   6.626  0.1961 -0.3778 -0.8027
    2MOL   C211  713   3.537   2.864   6.714 -0.1184 -0.7388  0.8927
    2MOL   C212  714   3.468   2.807   6.819 -0.1269 -0.5466 -0.2150
    2MOL   C213  715   3.329   2.829   6.838 -0.6697 -0.1119 -0.2602
    2MOL   C214  716   3.264   2.904   6.738  0.8652 -0.0394 -0.0201
    2MOL   H215  717   2.909   3.134   6.294  0.1585 -0.8639  3.2222
    2MOL   H216  718   2.852   3.006   6.196 -2.0522 -1.7728 -0.0201
    2MOL   H217  719   2.929   2.915   6.626 -0.3586  3.1544  3.3496
    2MOL   H218  720   2.766   2.925   6.574  1.1886  0.1184 -1.7285
    2MOL   H219  721   2.856   3.070   6.591 -1.9320  1.2157 -1.5421
    2MOL   H220  722   3.309   3.038   6.443 -1.0951  0.2570 -0.9472
    2MOL   H221  723   3.270   3.157   6.562  3.9212 -0.4121 -0.3773
    2MOL   H222  724   3.523   2.997   6.548 -2.3282  0.0899 -2.3963
    2MOL   H223  725   3.643   2.879   6.711  0.0681 -2.1250  0.2617
    2MOL   H224  726   3.515   2.739   6.889 -1.1897 -1.0088  0.0543
    2MOL   H225  727   3.273   2.781   6.917  2.3231  1.3477  2.8974
    2MOL   H226  728   3.159   2.910   6.764  1.5520  0.8627  2.7411
    2MOL   C227  729   2.893   2.798   6.357 -0.3096  0.1092 -0.6851
    2MOL   C228  730   2.935   2.670   6.437 -0.6300  0.0501 -0.2003
    2MOL   C229  731   2.892   2.564   6.331 -0.4715  0.6245 -0.3355
    2MOL   C230  732   2.860   2.649   6.576  0.3044  0.3062 -0.6547
    2MOL   O231  733   2.910   2.685   6.684 -0.3143  0.0366 -0.1886
    2MOL   O232  734   2.736   2.596   6.572 -0.2137 -0.1478 -0.1319
    2MOL   C233  735   2.663   2.573   6.691 -0.3326 -0.6271 -0.2407
    2MOL   C234  736   2.597   2.689   6.757  0.0865  0.1240 -0.8221
    2MOL   C235  737   2.595   2.699   6.895 -0.5335  0.1201  0.2325
    2MOL   C236  738   2.536   2.813   6.957 -0.3699  1.0885 -0.9796
    2MOL   C237  739   2.456   2.902   6.882 -0.0605 -0.1408 -0.5180
    2MOL   C238  740   2.457   2.885   6.745  0.2018  0.0946  0.0146
    2MOL   C239  741   2.532   2.786   6.680 -0.2345 -0.2425 -0.3691
    2MOL   H240  742   2.915   2.785   6.251  0.0093 -0.2207 -0.5763
    2MOL   H241  743   2.785   2.791   6.348 -0.3596  0.1642 -0.1370
    2MOL   H242  744   2.943   2.561   6.235  0.1274  1.7397 -0.0664
    2MOL   H243  745   2.788   2.582   6.306 -0.2948  2.8287  0.3824
    2MOL   H244  746   2.890   2.461   6.368  3.1591 -0.0918 -1.9161
    2MOL   H245  747   2.577   2.508   6.674 -1.1679  0.1698  0.8007
    2MOL   H246  748   2.733   2.530   6.762  1.2074 -1.0753 -1.9942
    2MOL   H247  749   2.649   2.622   6.949 -0.0504 -0.9687 -1.7302
    2MOL   H248  750   2.549   2.820   7.064 -3.4586  0.2318 -0.4941
    2MOL   H249  751   2.415   2.988   6.932 -0.5940 -0.4547 -0.4174
    2MOL   H250  752   2.397   2.957   6.691  0.1752  0.7820  0.9580
    2MOL   H251  753   2.538   2.788   6.572 -0.9675  0.6876 -0.3993
    2MOL   C252  754   3.091   2.675   6.448  0.3061  0.3222 -0.1136
    2MOL   C253  755   3.177   2.543   6.479 -0.3491 -0.1635  0.1234
    2MOL   C254  756   3.285   2.614   6.574  0.2635 -0.9556  0.2500
    2MOL   C255  757   3.256   2.493   6.354 -0.3265 -0.6375 -0.3084
    2MOL   O256  758   3.377   2.483   6.355 -0.2047 -0.5680 -0.0640
    2MOL   O257  759   3.182   2.468   6.245  0.3515  0.2856 -0.2061
    2MOL   C258  760   3.239   2.457   6.116 -0.6881  0.0034 -0.4054
    2MOL   C259  761   3.229   2.315   6.066 -0.1006 -0.0160 -0.2520
    2MOL   C260  762   3.143   2.281   5.962  0.0938  0.0313  0.1316
    2MOL   C261  763   3.123   2.152   5.916 -0.2787  0.4534 -0.4232
    2MOL   C262  764   3.198   2.049   5.988  1.0454 -0.5353  0.2429
    2MOL   C263  765   3.292   2.075   6.094 -0.0507 -0.7206 -0.4103
    2MOL   C264  766   3.307   2.212   6.133 -0.2189 -0.4925  0.2551
    2MOL   H265  767   3.116   2.748   6.525 -2.8972  3.0793 -1.5784
    2MOL   H266  768   3.126   2.710   6.351  0.1449  0.5212 -0.0998
    2MOL   H267  769   3.331   2.701   6.527 -0.2945 -1.1730 -0.7282
    2MOL   H268  770   3.377   2.560   6.596  1.5728  0.5512 -1.3866
    2MOL   H269  771   3.242   2.640   6.671  2.9680  1.0690  0.9746
    2MOL   H270  772   3.184   2.522   6.047 -0.9999  1.3526  1.1030
    2MOL   H271  773   3.346   2.480   6.114 -0.6695 -0.0536 -0.0311
    2MOL   H272  774   3.074   2.357   5.929  0.9447  2.0004  2.7322
    2MOL   H273  775   3.058   2.120   5.837  0.7861 -0.0008 -1.1321
    2MOL   H274  776   3.198   1.946   5.956 -2.6482 -0.3997 -0.4279
    2MOL   H275  777   3.358   2.001   6.138  0.7667  1.2188  1.7415
    2MOL   H276  778   3.372   2.248   6.212 -0.1443  0.5649 -0.2823
    2MOL   C277  779   3.110   2.438   6.568  0.3903 -0.1855 -0.1283
    2MOL   C278  780   3.176   2.299   6.606  0.7538  0.0059  0.2594
    2MOL   C279  781   3.317   2.311   6.658  0.0373 -0.1507  0.2405
    2MOL   C280  782   3.166   2.207   6.484  0.4872 -0.5816  1.0466
    2MOL   O281  783   3.263   2.133   6.454 -0.2891 -0.1108  0.4200
    2MOL   O282  784   3.051   2.217   6.412  0.3897 -0.5547 -0.0763
    2MOL   C283  785   3.025   2.139   6.300  0.3438  0.3164  0.4500
    2MOL   C284  786   2.898   2.057   6.302 -0.2867 -0.1477 -0.4043
    2MOL   C285  787   2.860   1.978   6.197 -0.0360 -0.5629  0.4971
    2MOL   C286  788   2.745   1.898   6.200 -0.2809 -0.6422 -0.4466
    2MOL   C287  789   2.654   1.909   6.313  0.6628 -0.2555 -0.3066
    2MOL   C288  790   2.687   2.006   6.411 -0.2822  0.1905 -1.3016
    2MOL   C289  791   2.801   2.086   6.403 -0.7239  0.4639 -0.9250
    2MOL   H290  792   3.009   2.420   6.531 -0.1101  2.4906 -0.1661
    2MOL   H291  793   3.080   2.493   6.657  1.6910 -1.1967  0.9668
    2MOL   H292  794   3.364   2.216   6.683 -0.7416 -0.5251  0.2882
    2MOL   H293  795   3.329   2.382   6.740 -1.0057 -0.3230  0.5512
    2MOL   H294  796   3.375   2.354   6.577 -0.2698  0.4994  0.3582
    2MOL   H295  797   3.022   2.207   6.215  0.2580  2.2778  1.9975
    2MOL   H296  798   3.113   2.078   6.278  0.9859  1.2857  0.3219
    2MOL   H297  799   2.934   1.963   6.121 -0.1767 -0.6264  0.3737
    2MOL   H298  800   2.725   1.823   6.125  0.6113 -0.4992 -0.8282
    2MOL   H299  801   2.572   1.839   6.320 -1.0889  1.9421  2.4883
    2MOL   H300  802   2.611   2.021   6.486  0.6129 -1.0337 -0.1234
    2MOL   H301  803   2.830   2.162   6.474 -1.2512  0.7833 -1.0491
    2MOL   C302  804   3.083   2.214   6.708 -0.6609  0.7659  0.1017
    2MOL   C303  805   3.069   2.243   6.869 -0.4398  0.2620 -0.3234
    2MOL   C304  806   3.035   2.392   6.906  0.3863 -0.5850  0.1132
    2MOL   C305  807   3.204   2.206   6.942  0.4205 -0.9529 -0.5581
    2MOL   O306  808   3.267   2.282   7.020 -0.0387 -0.7047 -0.4892
    2MOL   O307  809   3.239   2.072   6.911 -0.1629 -0.3109 -1.0645
    2MOL   C308  810   3.351   2.022   6.972 -1.0600 -0.6288 -0.0463
    2MOL   C309  811   3.474   2.043   6.882  0.4963  0.3659  0.2126
    2MOL   C310  812   3.552   2.161   6.901 -0.5752  1.0408  0.7243
    2MOL   C311  813   3.662   2.187   6.819 -0.3972 -0.1620 -1.0168
    2MOL   C312  814   3.707   2.089   6.733  0.2314  0.0645  0.4838
    2MOL   C313  815   3.629   1.971   6.715  0.2214 -0.0655 -0.0703
    2MOL   C314  816   3.520   1.947   6.798  0.2089 -0.1413 -0.6277
    2MOL   H315  817   3.109   2.110   6.693 -1.9326  0.1557  1.9529
    2MOL   H316  818   2.982   2.212   6.666 -0.5235 -3.8928 -0.2668
    2MOL   H317  819   3.114   2.461   6.875  0.4727 -0.0240  1.5257
    2MOL   H318  820   3.029   2.407   7.014 -0.0602 -2.0766  0.3071
    2MOL   H319  821   2.940   2.432   6.871 -0.5542 -0.9683  2.1794
    2MOL   H320  822   3.367   2.078   7.064  1.8905  0.4844 -1.1746
    2MOL   H321  823   3.335   1.919   7.005  1.7038 -0.8753  0.6631
    2MOL   H322  824   3.518   2.234   6.973 -4.2654  0.2003 -0.0618
    2MOL   H323  825   3.724   2.274   6.837  0.2815 -1.0998  1.3147
    2MOL   H324  826   3.794   2.092   6.669 -0.8626 -1.0858 -1.0985
    2MOL   H325  827   3.655   1.903   6.635  0.8671  2.0783 -1.7580
    2MOL   H326  828   3.452   1.865   6.777 -1.7348  1.4552 -0.7668
    2MOL   C327  829   2.970   2.145   6.940  0.5843 -0.1734 -0.7943
    2MOL   C328  830   2.818   2.170   6.929  0.1809 -0.3964  0.0100
    2MOL   C329  831   2.759   2.197   6.793  0.2656 -0.3323  0.3381
    2MOL   C330  832   2.774   2.286   7.016  0.1876 -0.0793  0.2639
    2MOL   O331  833   2.690   2.366   6.977 -0.1951 -0.1908  0.4191
    2MOL   O332  834   2.839   2.291   7.133 -0.5638 -0.5494  0.4964
    2MOL   C333  835   2.821   2.386   7.238  0.1832  0.5043 -0.2195
    2MOL   C334  836   2.920   2.385   7.349  0.8972 -0.2721  0.1088
    2MOL   C335  837   3.055   2.361   7.333  0.4240  0.0116  0.4349
    2MOL   C336  838   3.152   2.367   7.441  0.4349 -0.5113 -0.5978
    2MOL   C337  839   3.093   2.378   7.569 -0.0240 -0.1689 -0.1557
    2MOL   C338  840   2.959   2.419   7.589 -0.7097  0.6328 -0.1739
    2MOL   C339  841   2.873   2.418   7.476  0.6855 -0.2716 -0.2019
    2MOL   H340  842   2.990   2.124   7.045 -0.8461  1.2853 -0.2165
    2MOL   H341  843   2.983   2.045   6.898 -1.9227 -0.2943 -1.3519
    2MOL   H342  844   2.651   2.206   6.789  0.3157  0.1005 -0.1148
    2MOL   H343  845   2.791   2.117   6.725 -1.6276  0.4358 -1.4936
    2MOL   H344  846   2.799   2.292   6.758  1.1440 -0.5087  0.8428
    2MOL   H345  847   2.819   2.484   7.190  0.6186  1.0950  0.9550
    2MOL   H346  848   2.719   2.375   7.277  0.8836  0.6506  1.6933
    2MOL   H347  849   3.094   2.348   7.233 -0.2861  1.7330 -0.0974
    2MOL   H348  850   3.257   2.343   7.444  0.7140  0.6583 -0.5491
    2MOL   H349  851   3.152   2.392   7.658  1.3206 -1.6272 -0.7876
    2MOL   H350  852   2.919   2.438   7.688 -1.4111 -1.3344 -0.0719
    2MOL   H351  853   2.767   2.434   7.490  0.6584 -0.8582  0.2931
    2MOL   C352  854   2.746   2.044   6.999  0.4570 -0.0555  0.5428
    2MOL   C353  855   2.707   1.905   6.924 -0.3248 -0.7696 -0.1031
    2MOL   C354  856   2.832   1.844   6.852  0.4099 -0.2094 -0.3576
    2MOL   C355  857   2.598   1.921   6.825  0.1536 -0.1979 -0.5769
    2MOL   O356  858   2.619   1.900   6.702 -0.4190 -0.0689  0.7562
    2MOL   O357  859   2.486   1.969   6.872  0.4926  0.3233  0.1027
    2MOL   C358  860   2.371   1.996   6.802 -0.3096  0.0044 -0.1465
    2MOL   C359  861   2.261   2.032   6.901  0.0916 -0.1472  0.3040
    2MOL   C360  862   2.165   1.938   6.936 -0.2088 -0.1530  0.6132
    2MOL   C361  863   2.059   1.967   7.022 -0.1349  0.3883 -0.2759
    2MOL   C362  864   2.043   2.093   7.076  0.1430  0.1246  0.3884
    2MOL   C363  865   2.140   2.195   7.041 -0.0014 -0.2095  0.5811
    2MOL   C364  866   2.248   2.158   6.953 -1.0946 -0.6233  0.4135
    2MOL   H365  867   2.652   2.069   7.049 -0.3992  0.3420 -1.2460
    2MOL   H366  868   2.791   2.020   7.095 -1.4768 -1.2729  1.1864
    2MOL   H367  869   2.878   1.903   6.773 -0.7724 -0.6864 -1.4051
    2MOL   H368  870   2.802   1.750   6.805  0.0898 -0.3443  0.1179
    2MOL   H369  871   2.895   1.811   6.935 -1.9617 -1.6990  0.9125
    2MOL   H370  872   2.371   2.089   6.744  1.4364 -0.9899 -1.7794
    2MOL   H371  873   2.337   1.914   6.740  0.4527 -0.3699 -0.0634
    2MOL   H372  874   2.184   1.838   6.901 -0.0115 -0.0754  0.4989
    2MOL   H373  875   1.986   1.889   7.040  1.0025 -1.8199 -4.4356
    2MOL   H374  876   1.962   2.120   7.142  0.2097  1.1983  0.0451
    2MOL   H375  877   2.135   2.287   7.096 -0.0909 -0.3635  0.8327
    2MOL   H376  878   2.320   2.231   6.919 -1.3993 -0.0578  0.9868
    2MOL   C377  879   2.652   1.798   7.032  0.1410 -0.2105 -0.2966
    2MOL   C378  880   2.599   1.646   7.017 -0.3948 -0.1829  0.0907
    2MOL   C379  881   2.726   1.557   7.025 -0.4462  0.4906  0.1838
    2MOL   C380  882   2.516   1.628   6.887 -0.2019  0.0727 -0.3482
    2MOL   O381  883   2.397   1.658   6.888  0.1951  0.3245 -1.0328
    2MOL   O382  884   2.589   1.559   6.787 -0.1943  0.4508 -0.4964
    2MOL   C383  885   2.545   1.519   6.657 -0.0001  1.1383 -0.3130
    2MOL   C384  886   2.468   1.387   6.653  0.1640  0.2220  0.3734
    2MOL   C385  887   2.521   1.276   6.578  0.0184 -0.0556 -0.1459
    2MOL   C386  888   2.460   1.150   6.578  0.5896  0.4659 -0.2580
    2MOL   C387  889   2.333   1.134   6.631 -0.4898  0.4689 -0.8999
    2MOL   C388  890   2.269   1.241   6.693 -0.3424 -1.0442  0.3883
    2MOL   C389  891   2.343   1.365   6.714  0.1941  0.2058  0.1101
    2MOL   H390  892   2.574   1.852   7.086  0.4485 -0.0633  0.0041
    2MOL   H391  893   2.736   1.787   7.101  1.0271  0.6520 -1.2165
    2MOL   H392  894   2.757   1.549   7.129  0.5984  1.7338 -0.0121
    2MOL   H393  895   2.810   1.596   6.968 -0.0712 -0.5697  0.0115
    2MOL   H394  896   2.705   1.460   6.980 -1.1981  0.1480  1.2604
    2MOL   H395  897   2.473   1.598   6.634 -1.9192 -0.3928  0.2703
    2MOL   H396  898   2.625   1.513   6.583 -1.0403  0.9429 -1.4335
    2MOL   H397  899   2.607   1.291   6.515 -0.9537 -2.3190 -2.0928
    2MOL   H398  900   2.501   1.058   6.541 -0.5176  0.0679 -0.5372
    2MOL   H399  901   2.283   1.040   6.614 -0.3142  0.2222 -0.0799
    2MOL   H400  902   2.166   1.230   6.724 -1.2676  5.0953  0.1548
    2MOL   H401  903   2.308   1.448   6.774  2.8087 -0.9848  3.4233
    2MOL   C402  904   2.503   1.622   7.142 -0.0291  0.4884  0.7841
    2MOL   C403  905   2.453   1.481   7.203  0.3136  0.8899  0.1848
    2MOL   C404  906   2.539   1.436   7.329 -0.1186  0.7167  0.1173
    2MOL   C405  907   2.450   1.369   7.095 -0.2483 -0.0929 -0.1654
    2MOL   O406  908   2.355   1.352   7.015  0.4685  0.1581 -0.3726
    2MOL   O407  909   2.563   1.293   7.084  0.1614 -0.7596 -0.2393
    2MOL   C408  910   2.560   1.190   6.989 -0.5118  0.2336  0.1799
    2MOL   C409  911   2.682   1.098   6.990  0.3237  0.1967  0.3182
    2MOL   C410  912   2.705   0.998   6.891 -0.5110  0.2237  0.1432
    2MOL   C411  913   2.810   0.905   6.896  0.3991 -0.1970 -0.6271
    2MOL   C412  914   2.899   0.915   6.997 -0.9398  0.1217 -0.1474
    2MOL   C413  915   2.881   1.017   7.095 -0.5637 -0.2890 -0.6118
    2MOL   C414  916   2.776   1.107   7.093  0.3462  0.0465 -0.0191
    2MOL   H415  917   2.423   1.694   7.126 -0.0645  0.2552 -0.1457
    2MOL   H416  918   2.546   1.665   7.232  0.5471  0.5682  0.4774
    2MOL   H417  919   2.552   1.510   7.408 -0.5753 -0.1229  0.9844
    2MOL   H418  920   2.643   1.435   7.296  0.8295 -0.5855  2.9519
    2MOL   H419  921   2.512   1.340   7.372 -0.8962  0.8906  0.0212
    2MOL   H420  922   2.465   1.136   6.994  0.2742 -1.0527  2.1411
    2MOL   H421  923   2.567   1.241   6.893 -0.3359 -0.7564 -0.3445
    2MOL   H422  924   2.628   0.986   6.816 -2.0159 -0.4226  1.7528
    2MOL   H423  925   2.817   0.839   6.811  0.4318  0.2120 -0.9442
    2MOL   H424  926   2.981   0.844   7.004  0.0424  1.2551 -0.0106
    2MOL   H425  927   2.948   1.026   7.179 -0.0845  2.0245 -1.1902
    2MOL   H426  928   2.755   1.175   7.174 -3.6271 -0.5203 -0.4650
    2MOL   C427  929   2.306   1.500   7.251  0.9215  0.6469  0.2587
    2MOL   C428  930   2.261   1.559   7.397  0.2001  0.3564 -0.2807
    2MOL   C429  931   2.336   1.684   7.429 -1.3146  0.4999 -0.3098
    2MOL   C430  932   2.289   1.443   7.501 -0.3665 -0.4126 -0.6430
    2MOL   O431  933   2.349   1.450   7.602 -0.3370 -0.6333 -0.3328
    2MOL   O432  934   2.230   1.327   7.462  0.0718 -0.3482  0.4815
    2MOL   C433  935   2.246   1.209   7.539 -0.2329  0.3051  0.3924
    2MOL   C434  936   2.379   1.140   7.505  0.4832 -0.7250  0.3684
    2MOL   C435  937   2.463   1.100   7.610 -0.1132 -0.6056  0.2935
    2MOL   C436  938   2.591   1.047   7.576 -0.1023 -0.1951 -0.4713
    2MOL   C437  939   2.632   1.022   7.442 -0.3402 -0.2750  0.1138
    2MOL   C438  940   2.542   1.050   7.339 -0.0947 -0.7193 -0.0035
    2MOL   C439  941   2.414   1.107   7.368 -0.3906 -0.2756 -0.4541
    2MOL   H440  942   2.249   1.407   7.242  1.3001  0.3970  0.3955
    2MOL   H441  943   2.264   1.557   7.168  0.0983 -2.3558 -1.4673
    2MOL   H442  944   2.444   1.673   7.429 -1.4049 -0.4207 -0.4837
    2MOL   H443  945   2.318   1.707   7.534  1.2445  0.6276  0.1336
    2MOL   H444  946   2.304   1.765   7.363  1.6391  1.2048 -0.9575
    2MOL   H445  947   2.246   1.229   7.646  0.7915  0.0556  0.4479
    2MOL   H446  948   2.176   1.134   7.504  2.2824 -0.6924 -2.8401
    2MOL   H447  949   2.439   1.123   7.713  1.9694  1.1925  0.4209
    2MOL   H448  950   2.661   1.029   7.656 -1.0512 -0.9590  0.1969
    2MOL   H449  951   2.726   0.971   7.424 -0.1151  0.2680 -0.2761
    2MOL   H450  952   2.562   1.024   7.237 -0.2726  2.3042 -0.8642
    2MOL   H451  953   2.351   1.116   7.281 -1.9286  0.3992  0.6987
    2MOL   C452  954   2.103   1.591   7.379 -0.0097 -0.0411 -0.0407
    2MOL   C453  955   2.013   1.643   7.501 -0.1762 -0.2412  0.3641
    2MOL   C454  956   2.050   1.568   7.640 -0.1220  0.0601  0.4803
    2MOL   C455  957   1.869   1.614   7.451 -0.0811 -0.4476 -0.6187
    2MOL   O456  958   1.800   1.536   7.509  0.0090  0.0966  0.3974
    2MOL   O457  959   1.830   1.687   7.341  0.1245  0.1568 -0.1324
    2MOL   C458  960   1.696   1.680   7.294 -0.3976 -0.2529  0.0864
    2MOL   C459  961   1.675   1.768   7.167 -0.0385 -0.0420 -0.5861
    2MOL   C460  962   1.652   1.708   7.043 -0.3032  0.3930  0.0269
    2MOL   C461  963   1.627   1.785   6.920  0.4939 -0.1038  0.1318
    2MOL   C462  964   1.637   1.925   6.929  0.5086  0.4276 -0.4420
    2MOL   C463  965   1.665   1.986   7.052 -0.9418 -0.8853 -1.0084
    2MOL   C464  966   1.685   1.905   7.167 -0.0565 -0.2881 -0.7171
    2MOL   H465  967   2.055   1.500   7.343 -2.4443  1.1410  0.1366
    2MOL   H466  968   2.090   1.646   7.286 -0.7478 -1.0303 -0.5257
    2MOL   H467  969   1.992   1.596   7.728  0.2754  0.9832  0.4607
    2MOL   H468  970   2.154   1.587   7.667  0.0356 -0.5760  0.3177
    2MOL   H469  971   2.041   1.460   7.644  1.3258 -0.0422  1.3833
    2MOL   H470  972   1.655   1.579   7.293 -0.2346 -0.3221  0.3506
    2MOL   H471  973   1.645   1.729   7.377  1.3736 -2.5972  2.6421
    2MOL   H472  974   1.653   1.600   7.041  0.8232  0.3503  2.0919
    2MOL   H473  975   1.593   1.732   6.832  0.2576  0.4845 -0.1293
    2MOL   H474  976   1.618   1.972   6.834  1.4526  1.0913 -0.3024
    2MOL   H475  977   1.679   2.092   7.064  0.0106 -1.3174  2.1856
    2MOL   H476  978   1.715   1.954   7.258  0.5473  0.0291 -1.0879
    2MOL   C477  979   2.026   1.797   7.514  0.4802 -0.0536  0.0071
    2MOL   C478  980   1.935   1.873   7.614  0.5382 -0.0630  0.5477
    2MOL   C479  981   1.890   2.011   7.565 -0.6342 -0.8333 -0.0022
    2MOL   C480  982   2.003   1.886   7.752 -0.9746 -0.4031  0.0926
    2MOL   O481  983   2.083   1.983   7.768 -0.1283 -0.3241  0.2551
    2MOL   O482  984   1.958   1.809   7.849 -0.5244 -0.3047  0.1874
    2MOL   C483  985   1.992   1.844   7.986  0.3467  0.1560 -0.2341
    2MOL   C484  986   1.985   1.734   0.090 -0.4142  0.8708 -0.7015
    2MOL   C485  987   1.968   1.601   0.053  0.2498  0.2633  0.0152
    2MOL   C486  988   1.963   1.506   0.155  0.1468  0.2881  0.1183
    2MOL   C487  989   1.976   1.540   0.290  0.1305  0.1553 -0.2474
    2MOL   C488  990   1.988   1.675   0.325 -0.1511 -0.5188  0.4832
    2MOL   C489  991   2.005   1.769   0.223 -0.2867 -0.4336  0.2836
    2MOL   H490  992   2.025   1.842   7.415  0.9234  0.1288  0.0808
    2MOL   H491  993   2.125   1.813   7.558  0.0083 -1.3707  1.6240
    2MOL   H492  994   1.854   2.071   7.649  3.1045 -0.6607  1.5764
    2MOL   H493  995   1.806   2.003   7.496  0.2824 -2.2532 -0.9863
    2MOL   H494  996   1.966   2.064   7.508  0.2469 -1.1136  0.9129
    2MOL   H495  997   2.080   1.908   7.988  0.9510 -0.5119 -3.7732
    2MOL   H496  998   1.908   1.904   0.013  0.9560  0.9323 -0.0762
    2MOL   H497  999   1.948   1.573   7.958  0.9660  0.8125 -0.2802
    2MOL   H498 1000   1.941   1.405   0.124  0.2591  0.1242  0.5763
    2MOL   H499 1001   1.970   1.466   0.369  0.0400 -1.0949 -1.4013
    2MOL   H500 1002   2.006   1.703   0.428 -0.5967  0.7633  0.2137
    2MOL   H501 1003   2.025   1.871   0.250 -0.6654 -0.5511  1.0221
    2MOL   H502 1004   1.842   1.818   7.629 -0.3179  1.2802  0.2559
    3MOL     C1 1005   4.769   0.997   3.640 -0.9710  0.2260 -0.9419
    3MOL     C2 1006   4.690   0.954   3.521  0.3676 -0.6069  0.0790
    3MOL     C3 1007   4.636   0.811   3.544  0.5123  0.3612 -0.1458
    3MOL     C4 1008   4.795   0.949   3.398  0.2082 -0.1498  0.0258
    3MOL     O5 1009   4.799   0.855   3.317 -0.0812 -0.2626 -0.2783
    3MOL     O6 1010   4.862   1.062   3.383  0.3982 -0.6263 -0.4156
    3MOL     C7 1011   4.954   1.074   3.278 -0.4644  0.2646  0.2098
    3MOL     C8 1012   5.095   1.079   3.328 -0.3167  0.1518 -0.0404
    3MOL     C9 1013   5.127   1.122   3.458 -0.4349  0.3671 -0.9305
    3MOL    C10 1014   5.260   1.131   3.498 -0.3373  0.5304 -0.3380
    3MOL    C11 1015   5.362   1.098   3.399  0.5463  0.0676 -0.8134
    3MOL    C12 1016   5.333   1.064   3.269  0.5365  0.6422 -0.7091
    3MOL    C13 1017   5.203   1.052   3.233  0.6911 -0.9999  0.4197
    3MOL    H14 1018   4.810   1.097   3.630 -0.5878  0.2797  0.9077
    3MOL    H15 1019   4.700   1.000   3.725 -0.5806 -2.0206 -0.5117
    3MOL    H16 1020   4.564   0.809   3.625  1.3034 -0.3974  0.5479
    3MOL    H17 1021   4.721   0.749   3.571 -0.4723 -1.6581 -1.6280
    3MOL    H18 1022   4.601   0.761   3.454  1.1516 -2.6375  1.2037
    3MOL    H19 1023   4.946   0.994   3.205 -0.2153 -0.3011  0.7909
    3MOL    H20 1024   4.932   1.169   3.231 -0.7438 -0.0517 -0.3079
    3MOL    H21 1025   5.047   1.136   3.529  0.9556  2.6073  0.2718
    3MOL    H22 1026   5.292   1.162   3.597 -2.1731 -0.7868  0.7195
    3MOL    H23 1027   5.463   1.126   3.426 -0.0434  3.3732 -1.7179
    3MOL    H24 1028   5.408   1.050   3.192  0.9126  0.4909 -0.3135
    3MOL    H25 1029   5.186   1.010   3.135 -1.5935 -1.8911  1.1430
    3MOL    H26 1030   4.852   0.929   3.655 -0.2403  1.3245  0.1384
    3MOL    C27 1031   4.585   1.070   3.503  1.0386  0.4951 -0.3743
    3MOL    C28 1032   4.459   1.063   3.406  0.1421 -0.8909 -0.4120
    3MOL    C29 1033   4.367   1.177   3.445  0.8185  0.1676 -0.5319
    3MOL    C30 1034   4.383   0.934   3.432 -0.0028  0.4350  0.0042
    3MOL    O31 1035   4.366   0.846   3.346 -0.2058 -0.0217  0.0338
    3MOL    O32 1036   4.346   0.920   3.555 -0.6997  0.0398  0.5305
    3MOL    C33 1037   4.266   0.814   3.603  0.8346  1.0932 -0.6758
    3MOL    C34 1038   4.286   0.788   3.750 -1.1734 -0.5996 -0.2413
    3MOL    C35 1039   4.242   0.663   3.805 -0.2511  0.4052  0.2647
    3MOL    C36 1040   4.258   0.635   3.946 -0.0842 -0.4660 -0.2912
    3MOL    C37 1041   4.312   0.734   4.028  0.5915 -0.3173  0.2850
    3MOL    C38 1042   4.347   0.858   3.976 -0.4798  0.7255  0.1299
    3MOL    C39 1043   4.337   0.882   3.840 -0.1206  0.2995 -0.2661
    3MOL    H40 1044   4.647   1.158   3.484  2.4256 -0.2636  0.5495
    3MOL    H41 1045   4.536   1.085   3.599  1.1915 -0.7432 -0.0951
    3MOL    H42 1046   4.323   1.156   3.542 -0.4848  1.5297 -0.8091
    3MOL    H43 1047   4.282   1.188   3.378 -0.3461 -1.2379  0.6975
    3MOL    H44 1048   4.419   1.271   3.460  1.1596  0.1042 -1.2423
    3MOL    H45 1049   4.161   0.838   3.590  0.4265 -0.4866 -0.3698
    3MOL    H46 1050   4.302   0.728   3.546 -1.0447  0.2770 -0.6544
    3MOL    H47 1051   4.198   0.595   3.733 -0.1769  0.5960  0.0353
    3MOL    H48 1052   4.223   0.541   3.988  2.7809 -0.7073  1.6393
    3MOL    H49 1053   4.317   0.717   4.134 -0.1673 -2.9599 -0.0557
    3MOL    H50 1054   4.372   0.930   4.053 -2.0615  0.7623  0.6237
    3MOL    H51 1055   4.348   0.982   3.801 -2.3063  0.5338 -0.3301
    3MOL    C52 1056   4.512   1.079   3.254 -0.1675  0.0522 -0.6549
    3MOL    C53 1057   4.417   1.125   3.140  0.2224  0.1369  0.0839
    3MOL    C54 1058   4.274   1.075   3.144 -0.1570  0.9042 -0.4424
    3MOL    C55 1059   4.480   1.083   3.009  0.5166  0.9033 -0.0012
    3MOL    O56 1060   4.414   1.064   2.903 -0.4753 -0.1574 -0.2292
    3MOL    O57 1061   4.616   1.080   3.015  0.2874  0.1519  0.6360
    3MOL    C58 1062   4.684   1.019   2.904 -0.0601 -0.0298 -0.7450
    3MOL    C59 1063   4.832   1.028   2.913 -0.0265 -0.5510 -0.6253
    3MOL    C60 1064   4.916   0.919   2.875 -0.2697 -0.0675  0.3818
    3MOL    C61 1065   5.059   0.923   2.883 -0.2946  0.2123 -0.5155
    3MOL    C62 1066   5.112   1.054   2.901 -0.3279 -0.4480 -0.0501
    3MOL    C63 1067   5.030   1.166   2.938 -0.6279 -0.3544 -0.3750
    3MOL    C64 1068   4.890   1.149   2.947  0.2304  0.8626 -1.1676
    3MOL    H65 1069   4.561   0.985   3.230  0.4707  0.3177 -0.3863
    3MOL    H66 1070   4.588   1.156   3.262  1.0349 -0.8540 -2.8438
    3MOL    H67 1071   4.201   1.109   3.218 -0.5806 -1.2651  0.1500
    3MOL    H68 1072   4.291   0.969   3.158  1.1920  0.8365 -2.3903
    3MOL    H69 1073   4.220   1.087   3.051  0.2446 -1.2233 -0.9707
    3MOL    H70 1074   4.652   0.915   2.904 -0.8635  0.2137 -1.8286
    3MOL    H71 1075   4.642   1.063   2.814 -1.6474 -0.1616 -0.0843
    3MOL    H72 1076   4.859   0.832   2.845 -1.6800  0.6119  1.0347
    3MOL    H73 1077   5.113   0.838   2.845 -0.2079  0.7147 -1.5372
    3MOL    H74 1078   5.218   1.071   2.900 -0.4872  0.5978  0.2876
    3MOL    H75 1079   5.064   1.265   2.962 -1.0138  0.5585 -3.3357
    3MOL    H76 1080   4.835   1.238   2.972  1.2437  1.1094  0.2725
    3MOL    C77 1081   4.431   1.283   3.140  0.6033 -0.5372  0.9448
    3MOL    C78 1082   4.350   1.399   3.056 -0.2077 -0.7916  0.4500
    3MOL    C79 1083   4.403   1.536   3.116  0.1804  0.0656 -0.0347
    3MOL    C80 1084   4.198   1.378   3.106 -0.1863  0.1122 -0.5479
    3MOL    O81 1085   4.161   1.390   3.218 -0.1404 -0.1307  0.3541
    3MOL    O82 1086   4.108   1.346   3.008 -0.5654 -0.1886  0.6161
    3MOL    C83 1087   3.972   1.328   3.031 -0.4669  0.7840  0.0278
    3MOL    C84 1088   3.937   1.193   3.094  0.0569  0.4886 -0.0920
    3MOL    C85 1089   3.910   1.090   3.004  0.4325  0.8021 -0.3692
    3MOL    C86 1090   3.860   0.967   3.057  0.4225  0.0525  0.0321
    3MOL    C87 1091   3.833   0.949   3.193 -0.7010 -0.3586 -0.1995
    3MOL    C88 1092   3.876   1.051   3.279  0.4918 -0.5410 -0.0051
    3MOL    C89 1093   3.926   1.175   3.232 -1.4325  0.1160  0.6372
    3MOL    H90 1094   4.535   1.312   3.124  0.5232 -0.5596  0.3812
    3MOL    H91 1095   4.419   1.318   3.243  0.7731 -0.6713  1.0101
    3MOL    H92 1096   4.408   1.526   3.224  0.8719  0.4455 -0.0239
    3MOL    H93 1097   4.336   1.620   3.097  0.0264 -0.4378 -1.8514
    3MOL    H94 1098   4.501   1.570   3.082 -0.5610  1.0095 -1.2783
    3MOL    H95 1099   3.933   1.409   3.092 -1.1858  1.2477 -1.0366
    3MOL    H96 1100   3.928   1.337   2.931 -2.2437 -0.3505  0.6862
    3MOL    H97 1101   3.921   1.093   2.897 -0.5380  0.0858 -0.4970
    3MOL    H98 1102   3.835   0.889   2.986  1.2428  0.4446 -0.7017
    3MOL    H99 1103   3.778   0.863   3.227 -1.3913  0.6130  1.2299
    3MOL   H100 1104   3.855   1.042   3.384  3.1811  1.1881  0.7272
    3MOL   H101 1105   3.955   1.257   3.296 -0.1057 -0.5341  0.8991
    3MOL   C102 1106   4.364   1.394   2.898 -0.8546  0.1644  1.1020
    3MOL   C103 1107   4.349   1.517   2.792  0.2593  0.1472  0.5251
    3MOL   C104 1108   4.446   1.635   2.836 -0.1215 -0.2198 -0.3759
    3MOL   C105 1109   4.200   1.566   2.808  0.4377  0.6591 -0.1554
    3MOL   O106 1110   4.102   1.516   2.745 -0.0809 -0.7209  0.4012
    3MOL   O107 1111   4.179   1.654   2.901  0.0389  0.3353 -0.2530
    3MOL   C108 1112   4.044   1.687   2.934 -0.2448 -0.6436 -0.7391
    3MOL   C109 1113   4.040   1.787   3.047  0.1712 -0.4387 -0.1869
    3MOL   C110 1114   4.134   1.889   3.060  0.0838  0.3099 -0.4190
    3MOL   C111 1115   4.113   1.979   3.171 -0.2582 -0.2956  0.9535
    3MOL   C112 1116   4.007   1.966   3.259 -0.3948  0.4272 -0.0684
    3MOL   C113 1117   3.916   1.866   3.238  0.4656  0.4220 -0.5515
    3MOL   C114 1118   3.927   1.777   3.132  0.3236 -0.7183 -0.6308
    3MOL   H115 1119   4.300   1.313   2.864  0.9784 -0.4463 -1.0228
    3MOL   H116 1120   4.464   1.353   2.889 -1.5477 -1.3365  0.0614
    3MOL   H117 1121   4.538   1.589   2.871 -0.6482 -0.3620  0.8171
    3MOL   H118 1122   4.406   1.715   2.898 -0.4945  0.2772 -1.2393
    3MOL   H119 1123   4.481   1.685   2.746  1.0570 -1.7302 -0.7836
    3MOL   H120 1124   4.007   1.742   2.847  0.3158  2.3544  0.8760
    3MOL   H121 1125   3.988   1.594   2.948 -0.5237 -0.5666 -1.3166
    3MOL   H122 1126   4.216   1.889   2.989  0.8951 -3.0244  0.4137
    3MOL   H123 1127   4.182   2.060   3.186  1.7309 -2.2805  2.8340
    3MOL   H124 1128   4.000   2.027   3.348 -3.0308  0.4821 -0.2665
    3MOL   H125 1129   3.836   1.861   3.310  0.5348 -0.4351 -0.5309
    3MOL   H126 1130   3.844   1.710   3.114  1.1228 -1.2865 -2.3055
    3MOL   C127 1131   4.374   1.473   2.643 -0.3236  0.5321 -0.0832
    3MOL   C128 1132   4.505   1.401   2.599  0.3311 -0.6362 -0.6603
    3MOL   C129 1133   4.491   1.250   2.610 -0.2106 -0.5548  0.5778
    3MOL   C130 1134   4.630   1.437   2.687  0.7873  0.0610  0.2628
    3MOL   O131 1135   4.678   1.357   2.768 -0.0990  0.0244 -0.1564
    3MOL   O132 1136   4.691   1.554   2.658 -0.1571  0.2980 -0.9462
    3MOL   C133 1137   4.792   1.607   2.741 -0.4730 -0.8627 -0.4097
    3MOL   C134 1138   4.816   1.755   2.710 -0.9083 -0.2591  0.2922
    3MOL   C135 1139   4.793   1.860   2.803 -0.5083 -1.0345  0.5876
    3MOL   C136 1140   4.828   1.993   2.771  0.8038 -0.3749 -0.0080
    3MOL   C137 1141   4.880   2.017   2.642 -0.2735  0.0649 -0.4359
    3MOL   C138 1142   4.900   1.918   2.548 -0.5860 -0.1938 -0.7485
    3MOL   C139 1143   4.867   1.785   2.576 -0.1689 -0.0700 -0.0312
    3MOL   H140 1144   4.358   1.566   2.588 -1.5127  2.1798  2.8946
    3MOL   H141 1145   4.292   1.403   2.626 -0.1630 -0.1597  1.8672
    3MOL   H142 1146   4.403   1.219   2.553 -1.3413 -3.4903  3.7604
    3MOL   H143 1147   4.468   1.223   2.713 -1.0002 -0.3192  0.4690
    3MOL   H144 1148   4.575   1.185   2.585  0.0589 -0.0030  0.0361
    3MOL   H145 1149   4.769   1.594   2.847 -0.8199  2.0363 -0.0587
    3MOL   H146 1150   4.887   1.556   2.730  1.2762  1.9119  1.0919
    3MOL   H147 1151   4.762   1.847   2.905  0.2933  2.1548  1.2672
    3MOL   H148 1152   4.816   2.074   2.841  0.2992 -1.4277  1.1393
    3MOL   H149 1153   4.908   2.118   2.616 -1.0587  1.2712  3.0340
    3MOL   H150 1154   4.934   1.939   2.447  1.2579 -1.0868 -0.3498
    3MOL   H151 1155   4.887   1.705   2.507 -0.9857 -0.9734  0.7537
    3MOL   C152 1156   4.544   1.429   2.449  0.0839  0.3079 -0.0784
    3MOL   C153 1157   4.463   1.398   2.319 -0.2156  0.6772 -0.2030
    3MOL   C154 1158   4.316   1.431   2.334  0.2188  0.7703 -0.4169
    3MOL   C155 1159   4.468   1.245   2.284  0.2509  0.3443  0.5577
    3MOL   O156 1160   4.369   1.189   2.247  0.0960 -0.3457  0.4866
    3MOL   O157 1161   4.588   1.194   2.301  0.3320  0.1853  0.5029
    3MOL   C158 1162   4.604   1.053   2.283 -0.1703 -0.3629  0.1531
    3MOL   C159 1163   4.753   1.017   2.269 -0.4017 -0.0140 -0.7820
    3MOL   C160 1164   4.797   0.915   2.181 -0.0735 -0.0394  0.9345
    3MOL   C161 1165   4.934   0.876   2.188 -0.1534 -0.3913 -0.1488
    3MOL   C162 1166   5.019   0.922   2.291  0.3376  0.1399  0.4959
    3MOL   C163 1167   4.982   1.030   2.363  0.3085  1.1158  0.0396
    3MOL   C164 1168   4.851   1.078   2.356 -0.2602  0.0969  0.2486
    3MOL   H165 1169   4.643   1.385   2.440 -0.5181 -1.1701  0.3242
    3MOL   H166 1170   4.553   1.537   2.449 -0.0130  0.3222  0.5270
    3MOL   H167 1171   4.273   1.376   2.418  0.4996  0.1639 -0.6694
    3MOL   H168 1172   4.250   1.417   2.249  0.6213  2.6175 -1.0672
    3MOL   H169 1173   4.310   1.535   2.367  0.7856  1.1656 -1.5247
    3MOL   H170 1174   4.561   1.006   2.372 -1.4738  1.4606  0.5200
    3MOL   H171 1175   4.553   1.027   2.191  0.5825 -1.3230  0.0025
    3MOL   H172 1176   4.734   0.871   2.104 -0.4221  0.2670  1.0428
    3MOL   H173 1177   4.954   0.800   2.114 -0.1879 -1.0024  0.4613
    3MOL   H174 1178   5.117   0.878   2.303  0.7411  0.6901 -0.7719
    3MOL   H175 1179   5.058   1.069   2.428 -0.1008 -0.1928  1.3218
    3MOL   H176 1180   4.823   1.154   2.428  2.1763 -0.6286  2.0279
    3MOL   C177 1181   4.513   1.468   2.187 -0.3027  0.3553  0.8094
    3MOL   C178 1182   4.511   1.621   2.141 -0.3849  0.0808 -0.1133
    3MOL   C179 1183   4.597   1.636   2.015 -0.2979  1.0190 -0.6544
    3MOL   C180 1184   4.574   1.709   2.256 -0.8935  0.0425  0.3658
    3MOL   O181 1185   4.687   1.750   2.249  0.0188 -0.0924  0.4245
    3MOL   O182 1186   4.488   1.738   2.348 -0.6096  0.1137 -0.3918
    3MOL   C183 1187   4.531   1.831   2.448 -0.1214  0.6637  0.3336
    3MOL   C184 1188   4.423   1.879   2.535  0.4306 -0.3535 -0.6195
    3MOL   C185 1189   4.288   1.839   2.523 -0.0555  0.4584  0.0409
    3MOL   C186 1190   4.187   1.897   2.599 -0.2208  0.3177  0.6764
    3MOL   C187 1191   4.227   1.986   2.700  0.0327  0.0603  0.3306
    3MOL   C188 1192   4.354   2.027   2.718 -0.1814  0.2963  0.2875
    3MOL   C189 1193   4.453   1.969   2.636 -0.7487 -0.1210  0.1440
    3MOL   H190 1194   4.501   1.399   2.104 -0.3813  1.0490  0.2416
    3MOL   H191 1195   4.621   1.455   2.197 -0.0695  1.5208 -0.0945
    3MOL   H192 1196   4.577   1.572   1.929  2.1392 -0.2567 -0.2955
    3MOL   H193 1197   4.701   1.616   2.038 -1.2851 -2.3296  1.2693
    3MOL   H194 1198   4.603   1.740   1.983  1.7541  1.1622  0.1453
    3MOL   H195 1199   4.621   1.795   2.498 -1.0695 -0.4161  1.2972
    3MOL   H196 1200   4.574   1.917   2.397  1.1219  1.4296  2.6149
    3MOL   H197 1201   4.262   1.770   2.444  1.4500  1.0521 -0.9966
    3MOL   H198 1202   4.083   1.869   2.590 -0.1726 -0.2489  1.7881
    3MOL   H199 1203   4.147   2.013   2.768  0.8194 -0.2784  1.4017
    3MOL   H200 1204   4.374   2.105   2.790  1.1429 -1.1350  1.5149
    3MOL   H201 1205   4.554   2.003   2.652 -0.5543 -0.1932 -0.8986
    3MOL   C202 1206   4.365   1.654   2.103 -0.4655 -0.0394 -0.5028
    3MOL   C203 1207   4.322   1.791   2.048 -0.1635 -0.7631  0.6230
    3MOL   C204 1208   4.397   1.908   2.121 -0.1407 -0.0998 -0.5261
    3MOL   C205 1209   4.169   1.805   2.085  0.6647  0.3560  0.0127
    3MOL   O206 1210   4.128   1.901   2.154 -0.3641  0.4088  0.9473
    3MOL   O207 1211   4.093   1.698   2.044  0.3867 -0.2762  0.5323
    3MOL   C208 1212   3.958   1.680   2.084  0.5929  0.4253 -0.5112
    3MOL   C209 1213   3.948   1.571   2.196 -0.1423 -0.7921 -0.4483
    3MOL   C210 1214   3.862   1.456   2.184  0.5493 -0.0942 -1.4019
    3MOL   C211 1215   3.844   1.366   2.288  0.3825  0.6764  0.0632
    3MOL   C212 1216   3.903   1.391   2.414  0.7409  0.2291 -0.4691
    3MOL   C213 1217   3.989   1.500   2.427  0.6258 -0.0463  0.0212
    3MOL   C214 1218   4.007   1.591   2.319  0.7692 -0.0275 -0.0670
    3MOL   H215 1219   4.306   1.625   2.190  1.2354  0.8903  0.9741
    3MOL   H216 1220   4.328   1.575   2.037  0.7752  0.5590 -1.9405
    3MOL   H217 1221   4.365   2.009   2.097  2.6762  1.0450  0.3289
    3MOL   H218 1222   4.499   1.918   2.082 -0.9317 -0.7475 -2.8754
    3MOL   H219 1223   4.393   1.898   2.229  2.3798  3.0165 -0.0919
    3MOL   H220 1224   3.911   1.767   2.130  1.0668  0.2653  0.2829
    3MOL   H221 1225   3.900   1.640   2.000  0.1812  0.6646 -0.3443
    3MOL   H222 1226   3.808   1.435   2.093 -3.0700 -3.5186  1.3216
    3MOL   H223 1227   3.777   1.281   2.277  1.3439 -0.1459  0.5408
    3MOL   H224 1228   3.880   1.323   2.495 -3.6989  2.0706 -0.0319
    3MOL   H225 1229   4.050   1.511   2.515  2.7450  0.6072 -1.4860
    3MOL   H226 1230   4.068   1.677   2.341  0.7458  0.1105 -0.5390
    3MOL   C227 1231   4.345   1.797   1.889  0.1929  0.1036  0.2165
    3MOL   C228 1232   4.267   1.880   1.783  0.8254  0.1579 -0.0063
    3MOL   C229 1233   4.354   1.881   1.652  0.6501  0.1462 -0.3797
    3MOL   C230 1234   4.264   2.033   1.828 -0.8147 -0.3181 -1.1918
    3MOL   O231 1235   4.167   2.098   1.872  0.2691 -0.1867  0.0309
    3MOL   O232 1236   4.378   2.098   1.819  0.0418  0.0899 -0.0850
    3MOL   C233 1237   4.400   2.232   1.874  0.8559 -0.4017  0.5937
    3MOL   C234 1238   4.380   2.342   1.779  0.1285 -0.1142  0.7819
    3MOL   C235 1239   4.472   2.372   1.675 -0.1637 -0.0033 -0.5370
    3MOL   C236 1240   4.457   2.483   1.591  0.8291 -0.0352 -0.0051
    3MOL   C237 1241   4.350   2.566   1.607  0.0722 -0.1692  0.1951
    3MOL   C238 1242   4.256   2.541   1.709 -0.4203  0.3487  0.0271
    3MOL   C239 1243   4.267   2.430   1.786 -0.2764 -0.2794  0.2728
    3MOL   H240 1244   4.346   1.698   1.845  1.4745 -0.5027  1.5651
    3MOL   H241 1245   4.448   1.832   1.888 -0.3919  1.9041 -0.7175
    3MOL   H242 1246   4.354   1.782   1.607 -1.5203  0.2872 -0.7650
    3MOL   H243 1247   4.457   1.910   1.671 -0.0699  1.6118  1.4600
    3MOL   H244 1248   4.308   1.946   1.578 -1.5190  2.3284  2.7168
    3MOL   H245 1249   4.328   2.235   1.956 -0.3847 -1.8900 -0.4080
    3MOL   H246 1250   4.504   2.235   1.907  0.4093 -1.1437  2.1374
    3MOL   H247 1251   4.562   2.312   1.668 -0.0135  0.3098 -1.3914
    3MOL   H248 1252   4.528   2.501   1.512  0.8045 -1.6495 -0.4104
    3MOL   H249 1253   4.331   2.661   1.560 -0.1942 -0.5396 -0.4653
    3MOL   H250 1254   4.175   2.613   1.716  1.1289  2.2469 -0.9230
    3MOL   H251 1255   4.198   2.415   1.867 -0.2325  0.1846  0.3964
    3MOL   C252 1256   4.124   1.823   1.755  0.3714 -0.0933 -0.3866
    3MOL   C253 1257   4.035   1.832   1.621 -0.3368  0.2865  0.0445
    3MOL   C254 1258   4.095   1.753   1.502 -0.3738  0.0368 -0.3154
    3MOL   C255 1259   4.026   1.976   1.577 -0.0473  1.0814  0.8857
    3MOL   O256 1260   4.067   2.002   1.461  0.0807  0.0863  0.0074
    3MOL   O257 1261   3.992   2.069   1.659  0.5913  0.0568 -0.3693
    3MOL   C258 1262   3.978   2.206   1.613  0.1990 -0.0683 -0.1158
    3MOL   C259 1263   3.901   2.292   1.712 -0.2729 -0.4506 -0.0978
    3MOL   C260 1264   3.865   2.423   1.671  0.5208 -0.0080 -0.1241
    3MOL   C261 1265   3.818   2.514   1.760 -0.0203 -0.1330  0.0784
    3MOL   C262 1266   3.795   2.487   1.896  0.2999  0.1351  0.1513
    3MOL   C263 1267   3.823   2.355   1.939 -0.0372 -0.0912 -0.1853
    3MOL   C264 1268   3.879   2.259   1.847  0.6736  0.0639 -0.3385
    3MOL   H265 1269   4.061   1.857   1.837  0.0848  0.0635 -0.6743
    3MOL   H266 1270   4.137   1.716   1.772 -0.5199 -0.0976  0.2790
    3MOL   H267 1271   4.032   1.750   1.414 -0.6576  1.9266 -0.1847
    3MOL   H268 1272   4.117   1.650   1.533 -3.6579  0.2039  2.9116
    3MOL   H269 1273   4.193   1.790   1.473 -0.6484 -0.9007 -2.5548
    3MOL   H270 1274   4.076   2.247   1.589  0.7753 -1.9568 -1.1331
    3MOL   H271 1275   3.927   2.200   1.517  1.2113  0.8417 -0.7175
    3MOL   H272 1276   3.888   2.442   1.567  0.5139  1.1176  0.0764
    3MOL   H273 1277   3.800   2.613   1.719  2.7061  0.4952  0.3145
    3MOL   H274 1278   3.747   2.557   1.962 -0.3113 -1.4415  1.4053
    3MOL   H275 1279   3.799   2.313   2.035 -0.4791  2.6888  0.9842
    3MOL   H276 1280   3.909   2.161   1.881 -1.3268  0.2084  1.9233
    3MOL   C277 1281   3.897   1.753   1.644 -0.7710  0.1478  0.2474
    3MOL   C278 1282   3.749   1.821   1.642  0.0649  0.2702 -0.0569
    3MOL   C279 1283   3.731   1.907   1.515 -0.7197 -0.3827  0.4180
    3MOL   C280 1284   3.735   1.925   1.753  0.2253 -0.0343  0.2049
    3MOL   O281 1285   3.816   1.940   1.841 -0.1153 -0.2217 -0.2765
    3MOL   O282 1286   3.625   1.993   1.746 -0.0857 -0.3812  0.0947
    3MOL   C283 1287   3.572   2.049   1.864  0.6552 -0.0068  0.5068
    3MOL   C284 1288   3.480   2.169   1.830  0.2077  0.3710  0.6269
    3MOL   C285 1289   3.480   2.283   1.920  0.0055  0.0630  0.3146
    3MOL   C286 1290   3.395   2.394   1.892  0.5483  0.7900 -0.7390
    3MOL   C287 1291   3.318   2.393   1.781  0.2650  0.1163  0.5108
    3MOL   C288 1292   3.328   2.294   1.687  0.6477  0.4658 -0.3621
    3MOL   C289 1293   3.393   2.172   1.719 -0.0110 -0.7863 -0.0547
    3MOL   H290 1294   3.905   1.698   1.738  1.6705 -0.8385 -0.5053
    3MOL   H291 1295   3.887   1.676   1.569 -1.6509  0.6175 -0.1206
    3MOL   H292 1296   3.633   1.932   1.476 -0.4752  1.5594  1.0233
    3MOL   H293 1297   3.775   1.851   1.432 -0.6893  1.3939 -0.7729
    3MOL   H294 1298   3.782   2.003   1.526 -0.4230 -0.3646 -1.0488
    3MOL   H295 1299   3.513   1.969   1.910 -0.1828  0.2956 -0.0156
    3MOL   H296 1300   3.651   2.080   1.931  0.0249  0.4402  1.0564
    3MOL   H297 1301   3.539   2.267   2.009 -0.7328  0.3799  0.8620
    3MOL   H298 1302   3.387   2.480   1.956  0.2516  0.3968 -0.2399
    3MOL   H299 1303   3.260   2.480   1.752  0.4653 -0.2438 -1.0261
    3MOL   H300 1304   3.261   2.303   1.603  0.7794 -2.4531 -0.8329
    3MOL   H301 1305   3.383   2.086   1.655  0.8408 -0.1636 -1.0320
    3MOL   C302 1306   3.627   1.717   1.638 -0.3713 -0.4073  0.3721
    3MOL   C303 1307   3.595   1.612   1.745 -1.2551 -0.3929 -0.6438
    3MOL   C304 1308   3.576   1.687   1.884  0.4271  0.4309  0.0260
    3MOL   C305 1309   3.705   1.497   1.752  0.5191  0.0228  0.0570
    3MOL   O306 1310   3.750   1.459   1.857 -0.2679 -0.0728 -0.3362
    3MOL   O307 1311   3.730   1.436   1.634  0.2758 -0.0573 -0.1562
    3MOL   C308 1312   3.813   1.327   1.628  0.9415 -0.2378  0.6571
    3MOL   C309 1313   3.964   1.361   1.611 -0.3544 -0.3072 -0.7478
    3MOL   C310 1314   4.031   1.340   1.494  0.4696  0.1644  0.3800
    3MOL   C311 1315   4.165   1.359   1.476 -0.1773 -0.3989  0.3851
    3MOL   C312 1316   4.245   1.411   1.583  0.2450  0.4320 -0.3350
    3MOL   C313 1317   4.184   1.426   1.708 -0.4146  0.3079 -0.0543
    3MOL   C314 1318   4.049   1.403   1.722  0.3064 -0.1832 -0.3973
    3MOL   H315 1319   3.646   1.654   1.551 -0.0716 -1.2021  1.0095
    3MOL   H316 1320   3.542   1.765   1.590  0.7901  0.8427 -0.5008
    3MOL   H317 1321   3.672   1.732   1.910  0.3612  0.0313  0.9891
    3MOL   H318 1322   3.547   1.620   1.965  1.7372 -0.6636 -0.3821
    3MOL   H319 1323   3.500   1.765   1.886 -1.1728 -1.1025  2.2405
    3MOL   H320 1324   3.818   1.267   1.719 -2.3216 -0.1626  0.9454
    3MOL   H321 1325   3.790   1.264   1.542  0.9325 -1.0145  1.2175
    3MOL   H322 1326   3.973   1.298   1.413  0.1036 -0.6043  1.0339
    3MOL   H323 1327   4.212   1.331   1.383  0.8830  2.4110  0.0381
    3MOL   H324 1328   4.349   1.425   1.559  0.6356 -0.1786  0.9807
    3MOL   H325 1329   4.238   1.472   1.789  1.6094 -2.0631 -0.0202
    3MOL   H326 1330   3.991   1.431   1.808 -0.3029 -0.3341 -0.7512
    3MOL   C327 1331   3.458   1.547   1.702 -0.6333 -0.4223 -0.3220
    3MOL   C328 1332   3.365   1.455   1.808 -0.3384  0.2988  0.0517
    3MOL   C329 1333   3.249   1.392   1.721 -0.0842  0.8488  0.2539
    3MOL   C330 1334   3.296   1.542   1.910 -0.1198 -0.7418  0.7134
    3MOL   O331 1335   3.212   1.622   1.868  0.1731 -0.4181 -0.2850
    3MOL   O332 1336   3.343   1.545   2.035  0.4728 -0.2100  0.1064
    3MOL   C333 1337   3.296   1.639   2.131  0.2948  0.8499  0.1143
    3MOL   C334 1338   3.400   1.733   2.186 -0.1209  0.0771  0.2521
    3MOL   C335 1339   3.512   1.678   2.249  0.4018 -0.3647 -0.2077
    3MOL   C336 1340   3.614   1.766   2.292  0.1264  0.5945 -1.3008
    3MOL   C337 1341   3.598   1.904   2.275 -0.1696 -0.0663 -0.2773
    3MOL   C338 1342   3.473   1.961   2.234 -0.2034 -0.5639 -0.6491
    3MOL   C339 1343   3.373   1.872   2.186  0.4748 -0.2062 -0.6307
    3MOL   H340 1344   3.484   1.501   1.607 -0.4756  0.9704 -0.9700
    3MOL   H341 1345   3.404   1.632   1.661  0.3555 -0.8759 -2.6209
    3MOL   H342 1346   3.280   1.332   1.635 -0.0018 -0.9192  1.4869
    3MOL   H343 1347   3.190   1.475   1.682 -1.5482 -0.0048  0.5917
    3MOL   H344 1348   3.179   1.336   1.782  0.3460 -0.6287 -0.5775
    3MOL   H345 1349   3.205   1.689   2.098 -1.8259 -1.6615  1.9228
    3MOL   H346 1350   3.271   1.572   2.214  0.1748  0.9184  0.1342
    3MOL   H347 1351   3.530   1.572   2.255 -0.2910 -0.5083 -0.6475
    3MOL   H348 1352   3.697   1.720   2.344 -0.4422 -1.7548 -2.3931
    3MOL   H349 1353   3.675   1.972   2.306 -0.8866  1.1341 -1.1120
    3MOL   H350 1354   3.450   2.066   2.220 -1.3405 -0.7126  0.0298
    3MOL   H351 1355   3.283   1.917   2.146  0.5114 -0.4583 -1.0049
    3MOL   C352 1356   3.455   1.344   1.868  0.1811 -0.6269 -0.5472
    3MOL   C353 1357   3.404   1.218   1.950 -0.1503  0.0116 -0.4644
    3MOL   C354 1358   3.537   1.143   1.979  0.0455 -0.1087  0.3461
    3MOL   C355 1359   3.320   1.123   1.864 -0.4837  0.4543 -0.0650
    3MOL   O356 1360   3.213   1.082   1.890  0.5263  0.0349 -0.1423
    3MOL   O357 1361   3.386   1.095   1.749 -0.1374 -0.2486 -0.0721
    3MOL   C358 1362   3.322   1.021   1.647  0.5418 -0.1695 -0.2240
    3MOL   C359 1363   3.410   1.011   1.522 -0.6008 -0.1899 -0.6932
    3MOL   C360 1364   3.377   0.930   1.405  0.0808 -0.1229 -0.2860
    3MOL   C361 1365   3.460   0.934   1.299 -0.5566  0.1604  0.0616
    3MOL   C362 1366   3.582   1.012   1.296 -0.0392  0.0089 -0.1645
    3MOL   C363 1367   3.611   1.088   1.409  0.5019 -0.2627 -0.2063
    3MOL   C364 1368   3.528   1.087   1.518  0.2647  0.0104  0.3749
    3MOL   H365 1369   3.521   1.395   1.937  2.3807 -3.7832 -0.2193
    3MOL   H366 1370   3.519   1.301   1.791  0.3727  2.3186 -2.0990
    3MOL   H367 1371   3.583   1.184   2.069 -0.8110 -0.9329  1.1757
    3MOL   H368 1372   3.611   1.154   1.900  0.7211 -0.3100  0.9429
    3MOL   H369 1373   3.522   1.035   1.986 -0.7207  0.0222  0.8065
    3MOL   H370 1374   3.277   0.927   1.678  0.1147 -0.1581 -0.8056
    3MOL   H371 1375   3.232   1.077   1.625  0.9458  0.5663 -0.0298
    3MOL   H372 1376   3.303   0.851   1.395 -0.9801  1.0624 -2.0381
    3MOL   H373 1377   3.434   0.867   1.219  0.2828 -0.6934  0.4883
    3MOL   H374 1378   3.639   1.011   1.204  1.8657 -0.7959  1.0093
    3MOL   H375 1379   3.700   1.149   1.401  1.1342 -1.0094  0.9441
    3MOL   H376 1380   3.563   1.149   1.599  0.2137  1.3636 -0.6204
    3MOL   C377 1381   3.347   1.262   2.089 -0.0239  1.4416  0.2898
    3MOL   C378 1382   3.304   1.162   2.206  0.9850 -0.0356 -0.0184
    3MOL   C379 1383   3.348   1.017   2.191 -0.7895  0.8661  0.6257
    3MOL   C380 1384   3.146   1.176   2.220 -0.5993  0.6022 -0.5252
    3MOL   O381 1385   3.068   1.081   2.190  0.1558 -0.3185 -0.3658
    3MOL   O382 1386   3.110   1.297   2.262  0.2593 -0.2492  0.2842
    3MOL   C383 1387   2.976   1.319   2.308 -0.0311  0.5006 -0.0762
    3MOL   C384 1388   2.905   1.417   2.215  0.0444  0.2644 -0.7837
    3MOL   C385 1389   2.798   1.495   2.266  0.4377 -0.7060  0.6497
    3MOL   C386 1390   2.734   1.590   2.181  0.2001  0.8681  0.2282
    3MOL   C387 1391   2.787   1.613   2.052 -0.3413  0.6766 -0.0081
    3MOL   C388 1392   2.898   1.546   2.003 -0.5553  0.2919  0.3298
    3MOL   C389 1393   2.954   1.441   2.084 -0.3195  0.4547 -0.4309
    3MOL   H390 1394   3.262   1.322   2.056  0.5133  2.0953  0.0860
    3MOL   H391 1395   3.414   1.337   2.130  1.7488  0.4040 -0.6554
    3MOL   H392 1396   3.297   0.949   2.259  2.0185 -2.2559 -0.3213
    3MOL   H393 1397   3.454   1.004   2.208 -0.7594 -1.0064 -0.8548
    3MOL   H394 1398   3.316   0.983   2.092 -0.8180  0.8816  0.6294
    3MOL   H395 1399   2.920   1.225   2.305  1.6155 -0.6787  3.2664
    3MOL   H396 1400   2.981   1.357   2.411  0.6050 -1.6668  0.7181
    3MOL   H397 1401   2.770   1.478   2.369 -1.1602  1.7272  0.6578
    3MOL   H398 1402   2.654   1.649   2.222 -0.5984  0.1947 -0.3536
    3MOL   H399 1403   2.741   1.686   1.987  2.0055  0.2571 -2.2476
    3MOL   H400 1404   2.947   1.560   1.908 -1.7645 -2.3368 -0.7478
    3MOL   H401 1405   3.035   1.378   2.052  2.3197  2.3150  2.2881
    3MOL   C402 1406   3.362   1.223   2.341 -0.0013  0.6918 -0.3249
    3MOL   C403 1407   3.351   1.164   2.490 -0.6865  0.4485 -0.1534
    3MOL   C404 1408   3.466   1.060   2.512  0.0407  0.4003  0.0220
    3MOL   C405 1409   3.216   1.088   2.516  0.3339 -0.4711  0.3072
    3MOL   O406 1410   3.115   1.137   2.564  0.4179 -0.0594  0.3329
    3MOL   O407 1411   3.224   0.961   2.476 -0.3356  0.6401 -0.5180
    3MOL   C408 1412   3.115   0.874   2.484  0.8740  0.2540  0.3164
    3MOL   C409 1413   3.155   0.728   2.456  0.0826  0.8779  0.2718
    3MOL   C410 1414   3.149   0.671   2.323  0.7751  0.1473 -0.3289
    3MOL   C411 1415   3.211   0.545   2.304  0.4388  0.7304  0.1464
    3MOL   C412 1416   3.254   0.472   2.422 -0.3229 -0.0589  0.8225
    3MOL   C413 1417   3.238   0.523   2.555 -0.1737  0.6640 -0.0723
    3MOL   C414 1418   3.189   0.652   2.569  0.4443  0.0399 -0.0178
    3MOL   H415 1419   3.332   1.327   2.346 -0.2841  0.8377 -3.5752
    3MOL   H416 1420   3.469   1.221   2.320 -0.1852 -0.3508 -1.2326
    3MOL   H417 1421   3.564   1.106   2.510 -0.0561  0.7305  1.9723
    3MOL   H418 1422   3.483   0.983   2.437  4.3886 -1.5557  2.8438
    3MOL   H419 1423   3.479   1.020   2.612  3.0799  0.8277 -0.1656
    3MOL   H420 1424   3.074   0.879   2.585  1.5899  1.5762  0.5366
    3MOL   H421 1425   3.037   0.909   2.417  2.3970  1.4558 -0.8538
    3MOL   H422 1426   3.105   0.726   2.241  0.7805 -1.1362 -1.2150
    3MOL   H423 1427   3.226   0.501   2.207 -0.2936  1.1393 -0.1556
    3MOL   H424 1428   3.281   0.369   2.408 -2.3917 -0.3540 -1.1572
    3MOL   H425 1429   3.270   0.477   2.647  2.0844 -0.8666 -1.5578
    3MOL   H426 1430   3.189   0.705   2.663  0.1052  0.5674 -0.3133
    3MOL   C427 1431   3.366   1.280   2.600 -0.5885  0.7366 -0.3220
    3MOL   C428 1432   3.510   1.345   2.645  0.6808  0.5565  0.4649
    3MOL   C429 1433   3.598   1.378   2.524 -0.1476  0.1107  0.3572
    3MOL   C430 1434   3.579   1.247   2.739 -0.2514 -0.1650  0.6092
    3MOL   O431 1435   3.701   1.225   2.724  0.6311 -0.2788  0.0993
    3MOL   O432 1436   3.497   1.206   2.838  0.4928  0.0219  0.2297
    3MOL   C433 1437   3.558   1.121   2.938  0.8332 -0.7336 -0.5976
    3MOL   C434 1438   3.535   0.972   2.901  0.0510 -0.0006 -0.0047
    3MOL   C435 1439   3.432   0.899   2.969 -0.4462  0.2532 -0.2069
    3MOL   C436 1440   3.404   0.765   2.937  0.5871  0.1465  0.5257
    3MOL   C437 1441   3.476   0.702   2.835 -0.0979 -0.0942 -0.1189
    3MOL   C438 1442   3.591   0.767   2.780 -0.1288  0.7339  1.0044
    3MOL   C439 1443   3.618   0.902   2.806  0.8527 -0.0117  0.3678
    3MOL   H440 1444   3.323   1.246   2.694  1.4927  3.6819  1.8106
    3MOL   H441 1445   3.305   1.365   2.571 -3.5946 -0.4939  2.1581
    3MOL   H442 1446   3.556   1.439   2.444 -2.3719 -2.0053 -0.1784
    3MOL   H443 1447   3.629   1.290   2.467 -0.7411  0.1676 -0.0555
    3MOL   H444 1448   3.694   1.425   2.544 -1.4209  2.4754  1.0277
    3MOL   H445 1449   3.665   1.133   2.955  0.6040  0.9663 -0.2341
    3MOL   H446 1450   3.503   1.134   3.032 -1.0029 -0.4479 -1.7001
    3MOL   H447 1451   3.367   0.948   3.040 -1.0219 -0.1045 -0.4839
    3MOL   H448 1452   3.326   0.707   2.984  0.8992 -0.4864  0.2730
    3MOL   H449 1453   3.448   0.600   2.815  0.9200 -0.7740  1.8541
    3MOL   H450 1454   3.650   0.712   2.709 -0.6263  0.1518  1.0383
    3MOL   H451 1455   3.706   0.946   2.760  1.4990 -1.1992  0.4370
    3MOL   C452 1456   3.473   1.483   2.711 -0.4211 -0.1394 -0.2105
    3MOL   C453 1457   3.563   1.586   2.798  0.0325  0.4554  0.2655
    3MOL   C454 1458   3.694   1.619   2.733 -0.1896 -0.5335  0.1303
    3MOL   C455 1459   3.587   1.523   2.930  0.5192  0.1417  0.4002
    3MOL   O456 1460   3.694   1.472   2.962 -0.1601 -0.1333  0.5279
    3MOL   O457 1461   3.482   1.510   3.007  0.0336 -0.2101 -0.6775
    3MOL   C458 1462   3.488   1.445   3.132  0.3672  0.1942  0.3714
    3MOL   C459 1463   3.552   1.526   3.245  0.2429  0.3531 -0.4919
    3MOL   C460 1464   3.531   1.668   3.252  0.6601  0.6507 -0.5014
    3MOL   C461 1465   3.580   1.734   3.366  0.4862  1.0449  0.5243
    3MOL   C462 1466   3.665   1.668   3.456 -1.0102  0.3318  0.3357
    3MOL   C463 1467   3.684   1.531   3.436 -0.0872  0.4184 -0.1330
    3MOL   C464 1468   3.623   1.458   3.340 -0.1084 -0.5088  0.1487
    3MOL   H465 1469   3.378   1.473   2.762 -0.3790  2.5288  0.4483
    3MOL   H466 1470   3.445   1.540   2.622  0.9305 -2.5699 -2.2795
    3MOL   H467 1471   3.680   1.681   2.645 -0.1229 -1.3537 -0.4608
    3MOL   H468 1472   3.752   1.532   2.703 -0.3032 -0.7318  0.4871
    3MOL   H469 1473   3.763   1.670   2.801 -0.1012  0.9107 -1.0199
    3MOL   H470 1474   3.386   1.430   3.167  0.8560  1.3472  2.3465
    3MOL   H471 1475   3.545   1.354   3.115  0.5115 -0.0103  1.8380
    3MOL   H472 1476   3.473   1.712   3.172  0.1565 -0.2484 -0.6294
    3MOL   H473 1477   3.544   1.835   3.381 -2.6063 -0.2745  2.6177
    3MOL   H474 1478   3.712   1.732   3.529 -0.0951  0.8515 -0.7001
    3MOL   H475 1479   3.747   1.474   3.503  0.5063  0.3113 -0.7719
    3MOL   H476 1480   3.639   1.352   3.335 -0.1238 -0.4721 -0.7597
    3MOL   C477 1481   3.475   1.720   2.810 -0.4321  0.5715 -0.0368
    3MOL   C478 1482   3.530   1.845   2.886 -0.1365  0.4876 -0.4011
    3MOL   C479 1483   3.411   1.935   2.927  0.2545 -1.2514 -0.3087
    3MOL   C480 1484   3.627   1.935   2.811 -0.0502  0.1972  0.3828
    3MOL   O481 1485   3.739   1.966   2.855  0.0555 -0.0948 -0.0008
    3MOL   O482 1486   3.576   1.982   2.696 -1.1384 -0.7755 -0.2499
    3MOL   C483 1487   3.663   2.082   2.630 -0.8471 -0.5314  0.1214
    3MOL   C484 1488   3.589   2.168   2.524 -0.5599  0.4214  0.5722
    3MOL   C485 1489   3.447   2.162   2.522  0.2598 -0.4532 -0.2249
    3MOL   C486 1490   3.371   2.238   2.434 -0.1222 -0.3829  0.5762
    3MOL   C487 1491   3.447   2.321   2.346 -0.4403 -0.3605 -0.3940
    3MOL   C488 1492   3.588   2.330   2.345 -0.3314  0.3619 -0.9723
    3MOL   C489 1493   3.661   2.250   2.438 -0.5697  0.0222  0.8267
    3MOL   H490 1494   3.375   1.692   2.842 -0.7894  1.4425 -0.4069
    3MOL   H491 1495   3.456   1.750   2.707  0.9182 -1.1264 -0.8142
    3MOL   H492 1496   3.346   1.974   2.849 -1.5517 -1.4221  1.0934
    3MOL   H493 1497   3.446   2.024   2.980  1.4383 -1.3373 -0.9113
    3MOL   H494 1498   3.350   1.889   3.005 -1.7671 -1.2264 -1.8443
    3MOL   H495 1499   3.695   2.162   2.698 -0.6257  0.6772 -1.3798
    3MOL   H496 1500   3.752   2.033   2.589 -1.7565 -0.9044 -1.4491
    3MOL   H497 1501   3.390   2.105   2.593  2.0967 -1.6969  0.2914
    3MOL   H498 1502   3.265   2.251   2.449  0.0099  2.8217 -0.8575
    3MOL   H499 1503   3.396   2.383   2.274  0.3773  0.7357 -0.0373
    3MOL   H500 1504   3.629   2.401   2.274  0.6290 -1.1985 -2.0249
    3MOL   H501 1505   3.769   2.246   2.440 -0.4745  1.0523 -0.9002
    3MOL   H502 1506   3.571   1.812   2.982  0.2332  0.5241 -0.5451
    4MOL     C1 1507   3.369   6.469   5.697  0.0317  0.6276  0.3248
    4MOL     C2 1508   3.210   6.462   5.705 -0.7527 -0.5780 -0.4583
    4MOL     C3 1509   3.153   6.553   5.598  1.0307  0.4732  0.4791
    4MOL     C4 1510   3.162   6.510   5.847 -0.1901 -0.5140  0.3223
    4MOL     O5 1511   3.238   6.528   5.941  0.4981 -0.6396 -0.0684
    4MOL     O6 1512   3.030   6.519   5.855  0.5145 -0.3265  0.2554
    4MOL     C7 1513   2.958   6.541   5.980 -0.3945 -0.0374 -0.3788
    4MOL     C8 1514   2.899   6.423   6.045 -0.4381  0.1860  0.1201
    4MOL     C9 1515   2.861   6.421   6.179 -0.1579  0.3754  0.1348
    4MOL    C10 1516   2.809   6.304   6.237 -0.0066  0.5531 -0.9258
    4MOL    C11 1517   2.772   6.196   6.156 -0.2398 -0.0812  0.2463
    4MOL    C12 1518   2.821   6.190   6.027 -0.2654  0.3511  0.6707
    4MOL    C13 1519   2.882   6.304   5.970  0.8407 -0.4146  0.6887
    4MOL    H14 1520   3.396   6.427   5.600 -0.3564 -0.3993  0.6493
    4MOL    H15 1521   3.399   6.572   5.715  1.6802  0.4967 -1.4554
    4MOL    H16 1522   3.226   6.559   5.517 -2.1402  0.8008 -2.4628
    4MOL    H17 1523   3.126   6.647   5.646 -1.1626 -0.2859  0.7869
    4MOL    H18 1524   3.065   6.512   5.548  1.2514 -0.4428  0.8467
    4MOL    H19 1525   3.013   6.602   6.053  1.9369 -0.9407 -1.3198
    4MOL    H20 1526   2.871   6.600   5.950 -1.0101 -1.0740 -0.6255
    4MOL    H21 1527   2.886   6.502   6.245 -0.5401 -1.2113  2.2834
    4MOL    H22 1528   2.771   6.297   6.338 -1.0675 -1.1257 -1.4251
    4MOL    H23 1529   2.724   6.107   6.193  0.4464 -1.6244 -2.3830
    4MOL    H24 1530   2.810   6.102   5.965  1.8522  1.6329 -1.6003
    4MOL    H25 1531   2.912   6.307   5.867 -0.1548  2.6546  0.4395
    4MOL    H26 1532   3.406   6.417   5.785  4.1469  1.2942 -0.8863
    4MOL    C27 1533   3.167   6.311   5.678 -0.0894 -0.2481 -0.0363
    4MOL    C28 1534   3.236   6.188   5.758 -0.1876  0.0261  0.1313
    4MOL    C29 1535   3.238   6.209   5.914  1.0327  0.0388 -0.6626
    4MOL    C30 1536   3.376   6.145   5.709 -0.1050  0.0480  0.1449
    4MOL    O31 1537   3.475   6.143   5.786 -0.1339 -0.0958  0.3445
    4MOL    O32 1538   3.385   6.125   5.574  0.4635 -0.3427 -1.2219
    4MOL    C33 1539   3.514   6.097   5.527  0.8905  0.8480  0.3358
    4MOL    C34 1540   3.537   6.078   5.379 -0.4651 -0.9394 -0.0625
    4MOL    C35 1541   3.475   6.169   5.292  0.0274 -0.7641 -0.3288
    4MOL    C36 1542   3.495   6.164   5.158 -0.3246  0.4489  0.4242
    4MOL    C37 1543   3.583   6.062   5.101  0.5829  0.2477 -0.4142
    4MOL    C38 1544   3.636   5.965   5.191  0.1132 -0.7041 -0.6736
    4MOL    C39 1545   3.613   5.972   5.330 -0.9060 -0.1108  0.0783
    4MOL    H40 1546   3.169   6.292   5.571  0.2951 -0.7954  0.0691
    4MOL    H41 1547   3.059   6.307   5.696  0.1798 -1.3099  1.3960
    4MOL    H42 1548   3.278   6.124   5.969  0.0183 -0.6220 -0.9144
    4MOL    H43 1549   3.130   6.209   5.930  0.9875  0.3802 -0.9550
    4MOL    H44 1550   3.300   6.294   5.938 -0.4651  0.9469  0.0896
    4MOL    H45 1551   3.595   6.161   5.560  2.0049 -0.5768  0.4358
    4MOL    H46 1552   3.535   5.997   5.565 -1.5959  0.0761 -0.2197
    4MOL    H47 1553   3.403   6.238   5.333  0.3664 -0.7833  0.3168
    4MOL    H48 1554   3.441   6.237   5.099 -3.0951 -1.0028  1.0731
    4MOL    H49 1555   3.586   6.058   4.993  1.9663 -2.7904 -0.3247
    4MOL    H50 1556   3.691   5.880   5.152 -0.6111 -2.5407  2.1443
    4MOL    H51 1557   3.651   5.900   5.400  2.0116  2.1248  0.8635
    4MOL    C52 1558   3.138   6.075   5.718 -0.1893 -0.1042  0.1835
    4MOL    C53 1559   3.150   5.916   5.742  0.4318 -0.7498 -0.2344
    4MOL    C54 1560   3.013   5.855   5.757 -0.1647  0.2527  0.8672
    4MOL    C55 1561   3.226   5.887   5.874  0.4088 -0.6099  1.1787
    4MOL    O56 1562   3.164   5.884   5.980 -0.2679 -0.4369 -0.5545
    4MOL    O57 1563   3.364   5.873   5.858 -0.1958  0.3180  0.3584
    4MOL    C58 1564   3.446   5.843   5.969 -0.7120 -0.1710 -0.0826
    4MOL    C59 1565   3.583   5.788   5.919  0.6004 -0.6537 -0.0486
    4MOL    C60 1566   3.666   5.867   5.842  0.7856 -0.1457 -0.2165
    4MOL    C61 1567   3.790   5.820   5.800 -0.4550 -0.4437  0.5786
    4MOL    C62 1568   3.832   5.692   5.823 -0.2100  0.3358 -1.2944
    4MOL    C63 1569   3.751   5.609   5.895  0.7002 -0.0594 -0.0877
    4MOL    C64 1570   3.629   5.661   5.939 -0.2018  0.4084  0.0796
    4MOL    H65 1571   3.101   6.080   5.615  0.8131  0.6520 -0.1432
    4MOL    H66 1572   3.039   6.100   5.755 -1.2563 -0.5153 -2.2527
    4MOL    H67 1573   3.020   5.750   5.784 -0.9252 -0.2380 -0.7722
    4MOL    H68 1574   2.953   5.865   5.666  0.0408  1.3451  0.8383
    4MOL    H69 1575   2.956   5.913   5.830 -2.4367  0.1381 -0.7337
    4MOL    H70 1576   3.473   5.931   6.028  0.0242  0.7101 -1.6947
    4MOL    H71 1577   3.408   5.760   6.028  0.9806 -2.4703 -2.1504
    4MOL    H72 1578   3.650   5.974   5.838  1.4160  0.0046  1.1783
    4MOL    H73 1579   3.856   5.878   5.736 -0.9422  0.1066  0.5733
    4MOL    H74 1580   3.931   5.658   5.794  0.0061 -0.2613  0.0943
    4MOL    H75 1581   3.782   5.510   5.923 -0.5404 -0.7792 -1.2386
    4MOL    H76 1582   3.567   5.599   6.001  1.0563  1.1348  2.1010
    4MOL    C77 1583   3.225   5.861   5.615 -0.2299  0.3876 -0.1107
    4MOL    C78 1584   3.244   5.710   5.580 -0.2685 -0.2186 -0.2114
    4MOL    C79 1585   3.310   5.638   5.697  0.5981  0.8015 -0.1108
    4MOL    C80 1586   3.345   5.710   5.459 -0.0748 -0.6726 -0.3026
    4MOL    O81 1587   3.338   5.800   5.374 -0.2871 -0.6723 -0.3198
    4MOL    O82 1588   3.433   5.610   5.459 -0.4207 -0.1685 -0.2676
    4MOL    C83 1589   3.504   5.578   5.341  0.1857  0.2668 -0.1831
    4MOL    C84 1590   3.654   5.576   5.345 -0.1207  0.0901  0.4913
    4MOL    C85 1591   3.727   5.595   5.470  0.6415  0.2314  0.1296
    4MOL    C86 1592   3.871   5.593   5.476 -0.7190  0.2825  0.1526
    4MOL    C87 1593   3.940   5.567   5.358  0.2608  0.0296 -1.3993
    4MOL    C88 1594   3.877   5.551   5.235  1.2488 -0.1789  0.1079
    4MOL    C89 1595   3.734   5.556   5.227  0.8359 -0.0313 -0.7366
    4MOL    H90 1596   3.323   5.909   5.612  1.5459 -3.0140  0.8158
    4MOL    H91 1597   3.171   5.907   5.533  0.6326  0.3049 -0.7435
    4MOL    H92 1598   3.334   5.535   5.669  0.2075  0.6416  0.1384
    4MOL    H93 1599   3.260   5.639   5.794  0.7870  0.0908  0.0017
    4MOL    H94 1600   3.409   5.673   5.723 -0.2918  0.8870  3.3571
    4MOL    H95 1601   3.479   5.474   5.319  0.8156  0.1645 -0.4222
    4MOL    H96 1602   3.479   5.635   5.251 -1.5066 -3.6851 -2.3735
    4MOL    H97 1603   3.681   5.630   5.560 -2.8394 -0.8626 -1.1579
    4MOL    H98 1604   3.922   5.595   5.571 -1.3560 -0.2568  0.5060
    4MOL    H99 1605   4.046   5.554   5.372 -0.1799 -1.9606  0.3394
    4MOL   H100 1606   3.935   5.534   5.146 -0.2200 -1.3553 -0.6590
    4MOL   H101 1607   3.672   5.533   5.141 -1.3466  1.0824  0.5020
    4MOL   C102 1608   3.106   5.637   5.548 -0.3452  0.0478  0.2341
    4MOL   C103 1609   3.084   5.523   5.439  0.5059  0.6838 -0.1080
    4MOL   C104 1610   3.173   5.401   5.467 -0.3143 -0.0621 -0.3971
    4MOL   C105 1611   3.111   5.592   5.301  0.6981 -0.1610 -0.3346
    4MOL   O106 1612   3.193   5.547   5.230 -0.2671 -0.5722  0.3709
    4MOL   O107 1613   3.040   5.701   5.292  0.2889 -0.5372 -0.3763
    4MOL   C108 1614   3.079   5.807   5.210  0.1138  0.3348 -0.2745
    4MOL   C109 1615   3.035   5.938   5.266 -0.1537  0.4469 -0.5589
    4MOL   C110 1616   2.892   5.961   5.276 -0.1997 -0.1117  0.2557
    4MOL   C111 1617   2.859   6.096   5.295 -0.2923  0.1316 -0.1403
    4MOL   C112 1618   2.951   6.199   5.313 -0.6179  0.2086  0.7311
    4MOL   C113 1619   3.087   6.167   5.325 -0.2208  0.2663 -0.2160
    4MOL   C114 1620   3.127   6.038   5.303  0.2760  0.5047 -1.4156
    4MOL   H115 1621   3.042   5.718   5.515 -1.7668 -0.5360  1.4478
    4MOL   H116 1622   3.064   5.604   5.644 -0.5211 -1.5648 -0.3804
    4MOL   H117 1623   3.146   5.323   5.396 -4.0062  1.9764 -1.2922
    4MOL   H118 1624   3.167   5.365   5.570 -0.6234 -0.2326 -0.4733
    4MOL   H119 1625   3.279   5.414   5.442 -0.2690 -0.2341 -0.3013
    4MOL   H120 1626   3.187   5.802   5.194  0.2165  0.2190  0.4161
    4MOL   H121 1627   3.039   5.791   5.110  0.3998  1.3300 -0.5468
    4MOL   H122 1628   2.815   5.887   5.258  0.6884 -1.1365  0.6045
    4MOL   H123 1629   2.754   6.119   5.288 -0.4316 -0.4808 -0.1154
    4MOL   H124 1630   2.921   6.297   5.348  0.2733 -0.1614  2.6051
    4MOL   H125 1631   3.161   6.236   5.361  1.1668 -0.8264 -0.8936
    4MOL   H126 1632   3.230   6.005   5.307 -0.1503 -0.7861 -0.3347
    4MOL   C127 1633   2.935   5.479   5.452  0.4324  0.0672 -0.6866
    4MOL   C128 1634   2.862   5.357   5.366 -0.6294 -0.2928 -0.3843
    4MOL   C129 1635   2.939   5.345   5.233 -0.6579 -0.4173  0.1770
    4MOL   C130 1636   2.726   5.416   5.331 -0.3082  0.2815 -0.3874
    4MOL   O131 1637   2.688   5.422   5.214 -0.3005  0.1496 -0.3704
    4MOL   O132 1638   2.645   5.446   5.433 -0.3493  0.6969  0.4821
    4MOL   C133 1639   2.510   5.506   5.413  0.0866 -0.4028 -0.2398
    4MOL   C134 1640   2.517   5.658   5.428 -0.7062  0.4668  0.1382
    4MOL   C135 1641   2.425   5.732   5.361 -0.0892 -0.1386 -0.0689
    4MOL   C136 1642   2.429   5.874   5.362  0.7018 -0.6353  0.3394
    4MOL   C137 1643   2.535   5.941   5.429 -0.3380 -0.0542 -0.1089
    4MOL   C138 1644   2.625   5.866   5.507  0.2925  0.3207  0.1010
    4MOL   C139 1645   2.614   5.729   5.505 -0.8314  0.8753 -0.4813
    4MOL   H140 1646   2.888   5.576   5.440  2.5041  0.8191 -3.1000
    4MOL   H141 1647   2.924   5.461   5.559 -3.3905 -1.1330 -1.1953
    4MOL   H142 1648   2.942   5.437   5.175 -0.0847 -1.7729 -2.0077
    4MOL   H143 1649   2.902   5.268   5.165  0.8386 -0.5354 -0.5163
    4MOL   H144 1650   3.043   5.313   5.244 -1.1041 -1.6320  1.0133
    4MOL   H145 1651   2.482   5.481   5.311 -0.5393  0.6939 -0.3498
    4MOL   H146 1652   2.437   5.471   5.486  0.2397 -0.4789 -0.1229
    4MOL   H147 1653   2.345   5.682   5.309  0.0477  0.8831 -1.2947
    4MOL   H148 1654   2.351   5.927   5.308  0.1233 -0.7849  1.0214
    4MOL   H149 1655   2.537   6.049   5.427  2.0516 -0.0959 -4.0080
    4MOL   H150 1656   2.704   5.918   5.558  0.6414  0.6822 -0.7986
    4MOL   H151 1657   2.687   5.673   5.562 -2.0233 -0.4622 -0.2153
    4MOL   C152 1658   2.859   5.233   5.452 -0.0937 -0.2320  0.0138
    4MOL   C153 1659   2.821   5.095   5.390  0.0761  0.0837 -1.1106
    4MOL   C154 1660   2.952   5.035   5.324  0.3057 -0.1384  0.0071
    4MOL   C155 1661   2.709   5.096   5.286 -0.0825  0.5466  0.2350
    4MOL   O156 1662   2.736   5.093   5.163 -0.1310  0.2164  0.3163
    4MOL   O157 1663   2.593   5.136   5.338  0.6556 -0.1268  0.6473
    4MOL   C158 1664   2.474   5.151   5.254 -1.0764 -0.3034  0.5475
    4MOL   C159 1665   2.357   5.108   5.342  0.3710  0.1023 -0.6921
    4MOL   C160 1666   2.360   4.988   5.420  0.0081  0.1870 -0.5393
    4MOL   C161 1667   2.246   4.956   5.489  0.7303  0.6133 -0.3031
    4MOL   C162 1668   2.128   5.034   5.483  0.1881  0.0849 -1.3262
    4MOL   C163 1669   2.124   5.156   5.407 -0.0069  0.1502  0.0368
    4MOL   C164 1670   2.242   5.196   5.344  0.9882 -0.5368 -0.8282
    4MOL   H165 1671   2.799   5.256   5.540 -0.1240 -0.6669  0.1083
    4MOL   H166 1672   2.958   5.230   5.498  0.6482 -2.1421 -1.6180
    4MOL   H167 1673   3.050   5.059   5.365  0.5836 -2.4159  0.7179
    4MOL   H168 1674   2.961   5.060   5.218  1.4117 -2.0346 -0.3660
    4MOL   H169 1675   2.957   4.927   5.317  2.1774  0.0498 -2.0639
    4MOL   H170 1676   2.464   5.257   5.228 -0.6338 -0.1152  1.1317
    4MOL   H171 1677   2.482   5.085   5.168 -0.0431  2.4638 -1.5334
    4MOL   H172 1678   2.444   4.920   5.429  0.2159  0.5794  0.5954
    4MOL   H173 1679   2.231   4.868   5.549 -0.6715  1.7679  1.0711
    4MOL   H174 1680   2.042   5.007   5.543  1.4813 -1.3472 -0.0562
    4MOL   H175 1681   2.036   5.212   5.377  0.5087  1.2290  0.5231
    4MOL   H176 1682   2.244   5.286   5.284  1.2545  1.1027  1.5832
    4MOL   C177 1683   2.780   5.004   5.514  0.3941 -0.0883 -0.0983
    4MOL   C178 1684   2.779   4.847   5.530  0.6115  0.3711 -0.0389
    4MOL   C179 1685   2.927   4.801   5.577  0.2560 -0.1038 -0.5118
    4MOL   C180 1686   2.745   4.773   5.395 -0.0069  0.1726  0.5495
    4MOL   O181 1687   2.819   4.694   5.340 -0.2789  0.4393 -0.0833
    4MOL   O182 1688   2.617   4.790   5.355 -0.1189  0.5064  0.6615
    4MOL   C183 1689   2.575   4.737   5.227  0.3509 -0.2281 -0.5346
    4MOL   C184 1690   2.500   4.604   5.238  0.0860  0.5723 -0.9639
    4MOL   C185 1691   2.512   4.508   5.136 -0.3079 -0.3194  0.5118
    4MOL   C186 1692   2.442   4.389   5.133 -0.2190 -0.0445  0.3183
    4MOL   C187 1693   2.357   4.362   5.243 -0.1829  0.0883  0.4546
    4MOL   C188 1694   2.339   4.454   5.343  0.1040  0.2830 -0.6077
    4MOL   C189 1695   2.413   4.572   5.347 -0.3498  0.4144  0.3449
    4MOL   H190 1696   2.678   5.034   5.539  1.2109  2.3402  0.3616
    4MOL   H191 1697   2.840   5.040   5.596 -0.2235  1.0473 -0.1394
    4MOL   H192 1698   2.980   4.767   5.488  1.0398 -2.2195  0.7308
    4MOL   H193 1699   2.932   4.713   5.641  1.8049  0.2747 -0.0803
    4MOL   H194 1700   2.980   4.889   5.614 -1.6561  1.1981 -0.7984
    4MOL   H195 1701   2.501   4.808   5.189  0.8480 -0.4421 -1.9102
    4MOL   H196 1702   2.645   4.756   5.146  1.5517 -0.8157  0.3614
    4MOL   H197 1703   2.580   4.536   5.058 -2.5542  0.5062 -1.1877
    4MOL   H198 1704   2.464   4.324   5.050  2.3527  0.8065  0.2650
    4MOL   H199 1705   2.308   4.265   5.244 -0.6370  0.2190 -2.4821
    4MOL   H200 1706   2.267   4.422   5.417  3.1913  0.0800  2.4544
    4MOL   H201 1707   2.398   4.638   5.431  0.6523  0.9802  0.0859
    4MOL   C202 1708   2.680   4.799   5.636  0.2320 -0.4463 -0.3623
    4MOL   C203 1709   2.667   4.847   5.789  0.8760  0.3776  0.7221
    4MOL   C204 1710   2.550   4.753   5.841  0.6067 -0.8267  0.8911
    4MOL   C205 1711   2.630   4.995   5.808  0.1627 -0.8826  0.5356
    4MOL   O206 1712   2.712   5.086   5.832 -0.2648 -0.0865 -0.1642
    4MOL   O207 1713   2.503   5.017   5.778  0.3732  0.3416  0.1303
    4MOL   C208 1714   2.443   5.142   5.814  0.0305  0.2753  0.6606
    4MOL   C209 1715   2.298   5.122   5.857 -0.6213  0.3960  0.0006
    4MOL   C210 1716   2.264   5.041   5.969  0.5788 -0.4762  0.5996
    4MOL   C211 1717   2.131   5.020   6.013  0.1244  0.4689  0.1215
    4MOL   C212 1718   2.025   5.073   5.928 -0.1913 -0.1075 -0.0149
    4MOL   C213 1719   2.056   5.146   5.810 -0.2390  0.7093  0.3817
    4MOL   C214 1720   2.192   5.167   5.779 -0.1373  0.8675  0.5625
    4MOL   H215 1721   2.695   4.692   5.628  0.3360 -0.5511  1.1541
    4MOL   H216 1722   2.581   4.813   5.593 -1.7482 -1.5354  3.6374
    4MOL   H217 1723   2.469   4.728   5.773  0.5353 -1.0233  1.0486
    4MOL   H218 1724   2.498   4.793   5.929  0.0369  0.3026  0.0578
    4MOL   H219 1725   2.587   4.654   5.866  1.2978 -0.0892  2.9600
    4MOL   H220 1726   2.489   5.189   5.901  0.2268  0.3098  0.5368
    4MOL   H221 1727   2.449   5.218   5.737  1.1275  0.1741  0.6404
    4MOL   H222 1728   2.344   4.993   6.023  4.2427  1.4262 -2.8112
    4MOL   H223 1729   2.106   4.962   6.100 -2.0751 -0.6188 -1.1842
    4MOL   H224 1730   1.920   5.056   5.949 -0.7105  0.7760 -1.7855
    4MOL   H225 1731   1.978   5.180   5.743 -0.2648  2.0791  1.0864
    4MOL   H226 1732   2.220   5.219   5.688 -0.6982  1.2121  0.5794
    4MOL   C227 1733   2.801   4.812   5.869  0.8012 -0.2511  0.5304
    4MOL   C228 1734   2.820   4.806   6.036 -0.4682  0.3666 -0.4231
    4MOL   C229 1735   2.707   4.727   6.120  0.4084  0.7774  0.1883
    4MOL   C230 1736   2.820   4.956   6.084  0.6977 -0.5080  0.4474
    4MOL   O231 1737   2.721   5.007   6.136  0.0824 -0.1012  0.3363
    4MOL   O232 1738   2.932   5.027   6.052  0.2257  0.0680 -0.1850
    4MOL   C233 1739   2.926   5.165   6.099 -0.4896 -0.4276  0.2223
    4MOL   C234 1740   3.043   5.251   6.065 -0.1350 -0.2989  1.0005
    4MOL   C235 1741   3.140   5.289   6.166  0.4275  1.0645  0.2216
    4MOL   C236 1742   3.249   5.367   6.125  0.1028  1.1863 -0.6122
    4MOL   C237 1743   3.266   5.403   5.997 -0.2901  0.2774 -0.7310
    4MOL   C238 1744   3.169   5.366   5.899  0.4870  0.2337 -0.6992
    4MOL   C239 1745   3.051   5.291   5.934  0.2356  0.0410  0.5768
    4MOL   H240 1746   2.887   4.873   5.840  2.1724 -2.8319 -1.0601
    4MOL   H241 1747   2.831   4.714   5.830  0.5858 -0.2125  0.2656
    4MOL   H242 1748   2.739   4.721   6.224  0.5301  0.8854  0.1567
    4MOL   H243 1749   2.691   4.628   6.077 -0.6776  1.7535 -1.7314
    4MOL   H244 1750   2.608   4.772   6.120 -0.7351 -1.6757  0.9354
    4MOL   H245 1751   2.833   5.203   6.057  0.0655 -1.2997 -1.8665
    4MOL   H246 1752   2.918   5.164   6.208 -0.0634  0.8365  0.2765
    4MOL   H247 1753   3.144   5.260   6.270 -1.3194  2.5107  0.7133
    4MOL   H248 1754   3.318   5.374   6.208  0.1839  0.5099 -0.6225
    4MOL   H249 1755   3.349   5.461   5.960  0.6274 -0.4449  0.1598
    4MOL   H250 1756   3.186   5.412   5.803 -1.4944 -2.0555 -2.2140
    4MOL   H251 1757   2.967   5.274   5.869  1.2270 -1.3700 -0.3788
    4MOL   C252 1758   2.971   4.754   6.072 -0.5006 -0.0349  0.6366
    4MOL   C253 1759   3.004   4.601   6.071  0.5681 -0.6049  0.2090
    4MOL   C254 1760   2.938   4.522   5.954 -0.3610 -0.0900  1.0188
    4MOL   C255 1761   2.974   4.531   6.202 -0.2121  0.6418 -0.3314
    4MOL   O256 1762   2.917   4.588   6.300 -0.2195 -0.0429 -0.0562
    4MOL   O257 1763   3.018   4.403   6.210  0.0512  0.8432 -0.3538
    4MOL   C258 1764   2.989   4.328   6.321  0.7281 -0.9465 -0.4092
    4MOL   C259 1765   3.092   4.219   6.349  0.3111  0.8232  0.5584
    4MOL   C260 1766   3.086   4.145   6.472 -0.4396 -0.5887 -0.3843
    4MOL   C261 1767   3.177   4.046   6.501 -0.5163 -0.4395 -0.2984
    4MOL   C262 1768   3.284   4.014   6.419  0.1235  0.1078 -0.1180
    4MOL   C263 1769   3.288   4.076   6.294  0.3344 -0.7702 -0.7026
    4MOL   C264 1770   3.194   4.176   6.260  0.2496 -0.0004  0.4464
    4MOL   H265 1771   2.999   4.782   6.173 -1.5894 -0.2102  0.9944
    4MOL   H266 1772   3.041   4.805   6.005 -1.1511  0.0194  0.0016
    4MOL   H267 1773   2.955   4.416   5.976 -2.0938 -0.6890 -0.3556
    4MOL   H268 1774   2.981   4.533   5.854 -1.6647 -0.2515  0.4218
    4MOL   H269 1775   2.831   4.541   5.941  0.3387  3.0956 -0.3512
    4MOL   H270 1776   2.993   4.378   6.418  0.1288  0.6762 -1.1983
    4MOL   H271 1777   2.885   4.297   6.324  0.0956  1.0570 -0.8414
    4MOL   H272 1778   3.006   4.166   6.542  1.7537 -0.0782  2.0679
    4MOL   H273 1779   3.158   3.988   6.591 -1.5756 -1.1284 -0.9547
    4MOL   H274 1780   3.354   3.936   6.445 -0.6415 -0.2935  0.7726
    4MOL   H275 1781   3.363   4.041   6.224  0.5747 -0.7193 -0.4700
    4MOL   H276 1782   3.210   4.230   6.167  0.8282  0.4124  0.7787
    4MOL   C277 1783   3.158   4.589   6.040 -0.8001 -0.4971 -0.6152
    4MOL   C278 1784   3.282   4.647   6.126 -0.6286 -0.0893 -0.4766
    4MOL   C279 1785   3.286   4.602   6.272 -0.0656 -0.4075 -0.1906
    4MOL   C280 1786   3.275   4.801   6.111  0.3395 -0.0182 -0.1299
    4MOL   O281 1787   3.225   4.865   6.205 -0.0884 -0.0094  0.2992
    4MOL   O282 1788   3.308   4.853   5.989 -0.0791 -0.7873  0.4193
    4MOL   C283 1789   3.285   4.989   5.967 -0.1773 -0.6737 -0.7905
    4MOL   C284 1790   3.331   5.032   5.830 -0.1200 -0.4975 -0.1767
    4MOL   C285 1791   3.240   5.033   5.720 -0.2900 -0.2853  0.1863
    4MOL   C286 1792   3.279   5.083   5.595 -0.9568 -0.3399  0.5421
    4MOL   C287 1793   3.414   5.125   5.575 -0.2617  0.1142 -0.4534
    4MOL   C288 1794   3.503   5.125   5.681  0.2427  0.4331 -0.0579
    4MOL   C289 1795   3.465   5.081   5.811  0.1274  0.4084  0.5854
    4MOL   H290 1796   3.176   4.622   5.938 -0.8385  0.1938 -0.3962
    4MOL   H291 1797   3.176   4.482   6.030 -0.0918 -0.3117 -1.4914
    4MOL   H292 1798   3.196   4.641   6.319 -1.3750  0.7581 -3.5389
    4MOL   H293 1799   3.365   4.661   6.320  0.3084 -1.4595  0.5030
    4MOL   H294 1800   3.304   4.497   6.295 -2.9529 -1.4198 -2.3039
    4MOL   H295 1801   3.176   4.988   5.970 -0.1668  0.5021  1.1228
    4MOL   H296 1802   3.320   5.055   6.046  0.6399  0.1058 -1.7790
    4MOL   H297 1803   3.140   4.995   5.735 -0.8470  0.4151 -1.6221
    4MOL   H298 1804   3.210   5.071   5.513 -1.2858 -1.5627  0.9861
    4MOL   H299 1805   3.441   5.165   5.479 -0.1427  3.2244  0.8128
    4MOL   H300 1806   3.606   5.157   5.674  0.2336  1.2055  2.6620
    4MOL   H301 1807   3.534   5.075   5.894  1.0088 -0.2527 -0.1803
    4MOL   C302 1808   3.410   4.596   6.052  0.2455 -0.4697  0.1441
    4MOL   C303 1809   3.558   4.606   6.108 -0.1022 -1.0979 -0.0492
    4MOL   C304 1810   3.635   4.545   5.985 -0.2348  0.4791  0.3458
    4MOL   C305 1811   3.581   4.506   6.228  0.2600 -0.3190 -0.7555
    4MOL   O306 1812   3.570   4.383   6.208  0.1644  0.1206  0.1902
    4MOL   O307 1813   3.614   4.563   6.347  0.0805  0.4970 -0.2578
    4MOL   C308 1814   3.671   4.492   6.453  0.0304  0.2968 -0.0387
    4MOL   C309 1815   3.681   4.554   6.589  0.0280  0.2097  0.9208
    4MOL   C310 1816   3.569   4.544   6.678 -0.1773 -0.2802  0.3385
    4MOL   C311 1817   3.572   4.613   6.799 -0.5340 -0.7911 -0.3335
    4MOL   C312 1818   3.688   4.694   6.827 -0.0215 -0.2087  0.0813
    4MOL   C313 1819   3.802   4.699   6.743  0.3039  0.8394 -0.2535
    4MOL   C314 1820   3.796   4.630   6.624  0.4412 -0.6862  0.3743
    4MOL   H315 1821   3.415   4.647   5.956 -1.6747  1.5304  1.0578
    4MOL   H316 1822   3.392   4.489   6.040  1.6179 -0.7207  0.2191
    4MOL   H317 1823   3.589   4.454   5.949 -1.1248  0.6803  0.9738
    4MOL   H318 1824   3.736   4.516   6.016  0.0451 -3.1316 -3.4945
    4MOL   H319 1825   3.654   4.602   5.894 -1.7657  1.4863  0.6384
    4MOL   H320 1826   3.621   4.395   6.461  0.3180  0.1273 -0.2791
    4MOL   H321 1827   3.772   4.468   6.421  0.5170 -0.7052  2.1337
    4MOL   H322 1828   3.489   4.475   6.657 -1.9301  1.7272  0.2710
    4MOL   H323 1829   3.488   4.607   6.867 -0.0056  0.5690  0.4617
    4MOL   H324 1830   3.685   4.760   6.912  0.4450  0.0552 -0.1051
    4MOL   H325 1831   3.890   4.754   6.772  0.7683 -0.2657  0.4539
    4MOL   H326 1832   3.881   4.643   6.559  0.9055 -1.4111  0.8286
    4MOL   C327 1833   3.611   4.755   6.136  0.2977  0.3584 -0.1940
    4MOL   C328 1834   3.754   4.819   6.119  0.4194 -0.6965  0.4556
    4MOL   C329 1835   3.781   4.834   5.962  0.6442  0.0037  0.2634
    4MOL   C330 1836   3.873   4.743   6.178  0.7747  0.3157 -0.1229
    4MOL   O331 1837   3.859   4.643   6.250 -0.6089 -0.3773 -0.4224
    4MOL   O332 1838   3.990   4.791   6.133  0.2325 -0.1168 -0.1973
    4MOL   C333 1839   4.106   4.720   6.163 -0.9394 -0.3062 -0.3832
    4MOL   C334 1840   4.218   4.818   6.173 -0.4287 -0.2235 -0.2480
    4MOL   C335 1841   4.348   4.791   6.124  0.0702 -0.5415 -0.5424
    4MOL   C336 1842   4.450   4.889   6.140  0.0678  0.0231 -0.4268
    4MOL   C337 1843   4.423   5.017   6.190 -0.1432 -0.2506 -0.4320
    4MOL   C338 1844   4.294   5.047   6.242 -0.4789  0.4632 -0.8679
    4MOL   C339 1845   4.196   4.945   6.239  0.1907  0.0183  0.5243
    4MOL   H340 1846   3.577   4.774   6.238 -0.8116 -1.9962 -0.0974
    4MOL   H341 1847   3.543   4.819   6.080  0.2957  0.0210 -0.5732
    4MOL   H342 1848   3.793   4.737   5.913  0.7573  0.8785 -1.4855
    4MOL   H343 1849   3.865   4.890   5.921  1.5386 -2.3752 -1.2336
    4MOL   H344 1850   3.695   4.880   5.913 -0.8752 -0.0229  2.8041
    4MOL   H345 1851   4.115   4.668   6.259  2.5264  1.4819  0.3263
    4MOL   H346 1852   4.133   4.651   6.083  1.5340 -1.2600  1.2090
    4MOL   H347 1853   4.358   4.696   6.075  0.4865 -0.5137 -0.5198
    4MOL   H348 1854   4.549   4.869   6.101 -0.3882 -1.1018 -1.0132
    4MOL   H349 1855   4.495   5.096   6.174 -0.2271 -0.3055 -1.1218
    4MOL   H350 1856   4.254   5.137   6.285 -4.6589 -0.6883 -2.1117
    4MOL   H351 1857   4.097   4.974   6.270  0.5713  0.5619  1.2657
    4MOL   C352 1858   3.763   4.974   6.172 -0.1873  0.5156 -0.0824
    4MOL   C353 1859   3.745   5.017   6.322  0.3294  0.3858 -0.5161
    4MOL   C354 1860   3.833   4.918   6.417 -0.0714  0.7605  0.4787
    4MOL   C355 1861   3.598   4.997   6.378  0.1403 -0.6465 -0.2424
    4MOL   O356 1862   3.496   5.001   6.305  0.1442 -0.3360 -0.7990
    4MOL   O357 1863   3.591   4.958   6.518 -1.0568 -0.2021 -0.4953
    4MOL   C358 1864   3.467   4.942   6.580 -0.0693  0.1154  0.0655
    4MOL   C359 1865   3.424   5.066   6.658  0.0228 -0.6773  0.2273
    4MOL   C360 1866   3.526   5.160   6.690 -0.3464  0.2403  0.8452
    4MOL   C361 1867   3.489   5.283   6.743  0.0268  0.1636  0.4244
    4MOL   C362 1868   3.355   5.311   6.763 -0.2561  0.2452 -0.5277
    4MOL   C363 1869   3.255   5.215   6.741  0.2297 -0.1060 -0.4598
    4MOL   C364 1870   3.292   5.089   6.687 -0.2149 -0.3401  0.2066
    4MOL   H365 1871   3.689   5.025   6.109 -0.6595  0.5338  0.4837
    4MOL   H366 1872   3.860   5.015   6.143  0.6914 -1.3272  0.1959
    4MOL   H367 1873   3.784   4.821   6.415 -0.6455  1.0067  1.6964
    4MOL   H368 1874   3.839   4.937   6.525 -0.6336  0.1743  0.6118
    4MOL   H369 1875   3.931   4.897   6.375  1.8917  1.9963  4.1494
    4MOL   H370 1876   3.391   4.922   6.504  1.3206 -1.7332 -0.8626
    4MOL   H371 1877   3.481   4.856   6.645  1.8187  0.2061 -0.2085
    4MOL   H372 1878   3.633   5.148   6.685 -0.3014 -0.2106  2.5680
    4MOL   H373 1879   3.557   5.363   6.768 -0.3693  1.3096 -2.0033
    4MOL   H374 1880   3.335   5.408   6.806  0.6370  0.2753 -0.1767
    4MOL   H375 1881   3.153   5.235   6.770  0.6406  0.1514  0.8340
    4MOL   H376 1882   3.220   5.012   6.663 -0.2426  0.5218 -2.7098
    4MOL   C377 1883   3.792   5.168   6.352  0.0616 -0.0829  0.4169
    4MOL   C378 1884   3.726   5.296   6.284 -0.2532  0.4017 -0.2489
    4MOL   C379 1885   3.575   5.317   6.322 -0.2201 -0.0426  0.2134
    4MOL   C380 1886   3.732   5.279   6.129  0.1077 -0.0613 -0.9759
    4MOL   O381 1887   3.629   5.285   6.061  0.1438 -0.4479  0.3070
    4MOL   O382 1888   3.854   5.267   6.083  0.3356  0.1559  0.2701
    4MOL   C383 1889   3.869   5.212   5.950 -0.7050 -0.5566  0.4421
    4MOL   C384 1890   4.010   5.231   5.895  0.4006 -0.2048 -0.4357
    4MOL   C385 1891   4.115   5.164   5.962  0.5149  0.7853  0.2106
    4MOL   C386 1892   4.246   5.189   5.925 -0.0152 -0.0121  0.3385
    4MOL   C387 1893   4.271   5.270   5.813 -0.2690  0.0180 -1.3918
    4MOL   C388 1894   4.163   5.331   5.743  0.3855  0.1725  0.0277
    4MOL   C389 1895   4.029   5.318   5.787  0.0742 -0.0451  0.1707
    4MOL   H390 1896   3.899   5.176   6.335  0.1245  1.6964  1.5547
    4MOL   H391 1897   3.790   5.184   6.459  1.1884 -0.4561  0.4901
    4MOL   H392 1898   3.558   5.336   6.428  1.8578 -0.1425  0.5832
    4MOL   H393 1899   3.510   5.233   6.297  0.0238 -0.5928  1.3579
    4MOL   H394 1900   3.540   5.405   6.268 -1.2277 -0.6924 -0.2067
    4MOL   H395 1901   3.841   5.108   5.937  1.2528 -1.1147  0.6710
    4MOL   H396 1902   3.800   5.258   5.879 -0.6649  0.6122  1.1291
    4MOL   H397 1903   4.102   5.090   6.039  2.6008  0.3732  0.2085
    4MOL   H398 1904   4.327   5.131   5.967 -1.4358 -1.2716  1.4182
    4MOL   H399 1905   4.372   5.272   5.774  0.8432  0.2093  1.3768
    4MOL   H400 1906   4.183   5.375   5.647 -1.3150  2.1095  0.5237
    4MOL   H401 1907   3.942   5.368   5.747 -0.6086 -1.9384 -0.7321
    4MOL   C402 1908   3.813   5.423   6.318 -0.0518 -0.4174  0.1917
    4MOL   C403 1909   3.784   5.528   6.431 -0.0837  0.4116  0.2634
    4MOL   C404 1910   3.786   5.459   6.560  0.1217  0.0676  0.4786
    4MOL   C405 1911   3.657   5.614   6.413  0.2055 -0.1971 -0.6789
    4MOL   O406 1912   3.632   5.652   6.298  0.0567  0.2629  0.1147
    4MOL   O407 1913   3.600   5.659   6.525  0.7366  0.0014 -0.4823
    4MOL   C408 1914   3.490   5.755   6.527  0.1327  0.0842 -0.5932
    4MOL   C409 1915   3.350   5.694   6.505  0.0257 -0.3448  0.0556
    4MOL   C410 1916   3.303   5.674   6.375 -0.2186  0.3289 -0.1364
    4MOL   C411 1917   3.176   5.619   6.345 -0.2361  0.0374 -0.6474
    4MOL   C412 1918   3.091   5.575   6.451  0.8028 -0.3058 -0.0074
    4MOL   C413 1919   3.135   5.600   6.585 -0.3018 -0.4914 -0.2240
    4MOL   C414 1920   3.263   5.646   6.616 -0.4996 -0.5361  0.5803
    4MOL   H415 1921   3.810   5.483   6.227  2.0073  0.6639  0.8069
    4MOL   H416 1922   3.917   5.390   6.314  0.3681  1.0248 -1.3225
    4MOL   H417 1923   3.880   5.405   6.565  0.2953  0.4902  1.9850
    4MOL   H418 1924   3.706   5.388   6.583 -1.8408  1.9595 -0.2758
    4MOL   H419 1925   3.790   5.532   6.641  1.3453 -0.4810  0.9141
    4MOL   H420 1926   3.499   5.795   6.628 -2.0444 -1.0107  0.0548
    4MOL   H421 1927   3.498   5.833   6.452  2.7565  0.2246 -0.2196
    4MOL   H422 1928   3.370   5.704   6.296  0.4279 -0.3837  0.1360
    4MOL   H423 1929   3.134   5.631   6.246  0.9054 -1.0900 -1.2829
    4MOL   H424 1930   2.997   5.528   6.428 -0.2514  3.2621 -3.3550
    4MOL   H425 1931   3.079   5.566   6.671 -0.6920  0.5054 -0.0871
    4MOL   H426 1932   3.304   5.653   6.716 -0.1309  0.1561  0.3865
    4MOL   C427 1933   3.911   5.638   6.431  0.6947 -0.1247 -0.1869
    4MOL   C428 1934   3.906   5.786   6.496  0.2359 -0.2740  0.1850
    4MOL   C429 1935   3.846   5.790   6.638 -0.1257 -0.2415  0.1315
    4MOL   C430 1936   3.829   5.884   6.406  0.8535 -0.5132  0.3881
    4MOL   O431 1937   3.729   5.940   6.452  0.2859  0.4411  0.0763
    4MOL   O432 1938   3.872   5.892   6.279 -0.3460  0.4143 -0.1072
    4MOL   C433 1939   3.802   5.970   6.188 -0.1427  0.1222 -0.2235
    4MOL   C434 1940   3.873   6.101   6.162 -0.2996 -0.6947  0.1181
    4MOL   C435 1941   3.834   6.222   6.223 -0.0128 -0.5991 -0.5852
    4MOL   C436 1942   3.894   6.348   6.186  0.0394  0.0433  0.4335
    4MOL   C437 1943   3.992   6.355   6.083 -0.1030  0.4288  0.2713
    4MOL   C438 1944   4.035   6.234   6.024 -0.0055 -0.4590 -0.3716
    4MOL   C439 1945   3.976   6.106   6.062  0.1697  0.0983 -0.1867
    4MOL   H440 1946   3.944   5.653   6.328 -1.2232 -2.4540 -1.1962
    4MOL   H441 1947   3.994   5.596   6.487  0.1283  1.2311  1.7190
    4MOL   H442 1948   3.739   5.773   6.645  0.0071 -1.6535 -1.0836
    4MOL   H443 1949   3.857   5.894   6.668 -0.6286 -0.2644  0.4021
    4MOL   H444 1950   3.895   5.720   6.705  1.1003  1.3842  0.9858
    4MOL   H445 1951   3.805   5.919   6.092 -1.6686 -1.9849  0.8147
    4MOL   H446 1952   3.699   5.975   6.222  0.2357  0.8823  0.8350
    4MOL   H447 1953   3.745   6.236   6.282 -0.5204 -0.3434 -1.3917
    4MOL   H448 1954   3.854   6.436   6.234 -1.6174 -0.2596 -0.3638
    4MOL   H449 1955   4.025   6.454   6.056 -1.0194  0.6464 -0.0709
    4MOL   H450 1956   4.119   6.219   5.958 -0.4148 -1.2270 -0.7362
    4MOL   H451 1957   3.999   6.011   6.017 -0.1792  0.5415 -1.3066
    4MOL   C452 1958   4.058   5.834   6.497 -0.0403  0.8141  0.0858
    4MOL   C453 1959   4.111   5.969   6.560 -0.3083 -0.1316  0.2623
    4MOL   C454 1960   4.022   6.086   6.526  0.6831 -0.8094  0.5381
    4MOL   C455 1961   4.248   5.994   6.487 -0.7517  0.1261  0.8757
    4MOL   O456 1962   4.273   6.082   6.408 -0.0731 -0.3511  0.4903
    4MOL   O457 1963   4.345   5.896   6.513 -0.7316  0.7685  0.5321
    4MOL   C458 1964   4.476   5.915   6.452 -0.5681 -0.1944 -0.3398
    4MOL   C459 1965   4.585   5.983   6.541  0.3058 -0.6770  0.1547
    4MOL   C460 1966   4.719   5.936   6.553 -0.5214  0.0344  0.2433
    4MOL   C461 1967   4.814   6.006   6.626  0.2864 -0.0755  0.4734
    4MOL   C462 1968   4.769   6.107   6.707 -0.6526 -0.7879 -0.1150
    4MOL   C463 1969   4.633   6.156   6.708 -0.5826 -0.0661  0.0900
    4MOL   C464 1970   4.549   6.094   6.611 -0.1101  0.6642  0.7889
    4MOL   H465 1971   4.101   5.803   6.402  2.2157 -0.5630  1.5160
    4MOL   H466 1972   4.091   5.756   6.566 -0.4135  0.3720 -0.2343
    4MOL   H467 1973   4.059   6.187   6.542 -0.2302 -0.6008  1.3520
    4MOL   H468 1974   3.931   6.093   6.585 -0.1276  1.4709 -0.9352
    4MOL   H469 1975   3.990   6.093   6.422 -0.0362  0.1768  0.8215
    4MOL   H470 1976   4.518   5.815   6.445  1.5318  0.8184 -3.2357
    4MOL   H471 1977   4.473   5.939   6.345  2.9554  0.8203 -0.2644
    4MOL   H472 1978   4.751   5.852   6.493  0.4867  1.3536 -1.0988
    4MOL   H473 1979   4.918   5.978   6.617  0.4627  0.5348  0.5594
    4MOL   H474 1980   4.846   6.164   6.756 -0.8366 -1.2325  0.6917
    4MOL   H475 1981   4.611   6.241   6.770  0.4019 -0.0645  0.4410
    4MOL   H476 1982   4.449   6.131   6.593  0.0360  1.3433  1.3451
    4MOL   C477 1983   4.132   5.959   6.716  0.5410 -0.4803  0.5013
    4MOL   C478 1984   4.185   6.088   6.788  0.2369  0.4900  0.1376
    4MOL   C479 1985   4.276   6.055   6.908 -0.3816 -0.4414  0.0408
    4MOL   C480 1986   4.071   6.172   6.837 -0.0860 -0.0574  0.0522
    4MOL   O481 1987   3.964   6.127   6.869  0.1441 -0.9804  0.4776
    4MOL   O482 1988   4.104   6.299   6.855  0.0691  0.0278  0.7047
    4MOL   C483 1989   4.014   6.382   6.921 -0.1600 -0.1760 -0.0225
    4MOL   C484 1990   3.926   6.463   6.836 -0.4410  0.5388  0.1862
    4MOL   C485 1991   3.853   6.563   6.906  0.1094 -0.5091  0.2054
    4MOL   C486 1992   3.767   6.649   6.836  0.4100 -0.4264  0.9961
    4MOL   C487 1993   3.743   6.628   6.697 -0.9933 -0.0154  0.5014
    4MOL   C488 1994   3.808   6.530   6.621 -0.1373  0.7474 -0.0576
    4MOL   C489 1995   3.894   6.445   6.694 -0.4119  0.1524 -0.4907
    4MOL   H490 1996   4.204   5.879   6.733  1.3876 -0.1428 -1.4398
    4MOL   H491 1997   4.041   5.921   6.763  0.0646 -1.1538 -0.9381
    4MOL   H492 1998   4.289   6.136   6.980  0.9431 -1.1726  0.6464
    4MOL   H493 1999   4.375   6.036   6.868 -0.0727  3.4622 -1.2541
    4MOL   H494 2000   4.230   5.975   6.967  0.0793  0.0906  1.1330
    4MOL   H495 2001   3.949   6.322   6.986 -2.9667  0.6633 -1.9815
    4MOL   H496 2002   4.075   6.443   6.988  0.7182 -0.5672 -0.4648
    4MOL   H497 2003   3.872   6.578   7.011  1.0448 -0.9774  0.1084
    4MOL   H498 2004   3.730   6.734   6.892  1.7398 -0.0936  1.4035
    4MOL   H499 2005   3.678   6.698   6.647  1.1193  2.0191  0.5199
    4MOL   H500 2006   3.789   6.516   6.515 -1.6759 -0.2089  0.3210
    4MOL   H501 2007   3.947   6.359   6.654  4.0681  2.6679 -0.3393
    4MOL   H502 2008   4.231   6.152   6.712 -0.6679  1.2780  0.2466
    5MOL     C1 2009   2.578   0.990   0.359  0.3529  0.4730  0.1049
    5MOL     C2 2010   2.715   0.988   0.290  0.2100 -0.1371  0.2484
    5MOL     C3 2011   2.701   1.046   0.147 -0.2575  0.1850  0.2924
    5MOL     C4 2012   2.755   0.840   0.273 -0.5756  0.0029  0.4479
    5MOL     O5 2013   2.678   0.743   0.265 -0.0452 -0.5005 -0.7860
    5MOL     O6 2014   2.883   0.818   0.253 -0.0059  0.5421  0.9530
    5MOL     C7 2015   2.941   0.690   0.255 -0.2259 -0.5582  0.0348
    5MOL     C8 2016   3.093   0.696   0.244  0.0500  0.2906  0.3484
    5MOL     C9 2017   3.170   0.794   0.179  0.4570  0.3730 -0.0902
    5MOL    C10 2018   3.311   0.781   0.186 -0.2054  0.1165 -0.0116
    5MOL    C11 2019   3.379   0.683   0.265  0.4478  0.0663 -0.3564
    5MOL    C12 2020   3.297   0.590   0.336  0.0574  0.0642 -0.2080
    5MOL    C13 2021   3.158   0.597   0.324  0.7097  0.0369  0.1404
    5MOL    H14 2022   2.553   1.096   0.371 -1.5631 -0.2158  2.7499
    5MOL    H15 2023   2.494   0.938   0.313  0.8641  0.1302 -0.4379
    5MOL    H16 2024   2.670   1.149   0.165  0.5609  0.2672  1.2881
    5MOL    H17 2025   2.625   1.000   0.084 -0.0280 -0.2288  0.3144
    5MOL    H18 2026   2.795   1.042   0.093  0.3884 -1.6821  1.4916
    5MOL    H19 2027   2.902   0.639   0.343 -1.4844  0.5495  0.1418
    5MOL    H20 2028   2.906   0.645   0.162 -0.3096 -2.1427  0.8153
    5MOL    H21 2029   3.127   0.877   0.125  2.0088  0.6127 -0.9594
    5MOL    H22 2030   3.358   0.860   0.130 -1.3355  0.7552 -0.0616
    5MOL    H23 2031   3.486   0.679   0.278  0.4013 -0.7792 -0.2236
    5MOL    H24 2032   3.343   0.508   0.390  0.4636  0.1040 -0.4932
    5MOL    H25 2033   3.107   0.533   0.394 -0.6741  0.0350 -0.8487
    5MOL    H26 2034   2.589   0.941   0.456  1.2263 -0.9601 -0.7038
    5MOL    C27 2035   2.825   1.074   0.360  0.2696  0.5063  0.4221
    5MOL    C28 2036   2.860   1.060   0.512  0.4107 -0.3255 -0.0330
    5MOL    C29 2037   2.860   0.920   0.563 -0.4475 -0.2898 -0.1716
    5MOL    C30 2038   2.748   1.144   0.596  0.2003  0.1513 -0.0344
    5MOL    O31 2039   2.687   1.090   0.687  0.4170 -0.2427  0.0344
    5MOL    O32 2040   2.734   1.267   0.558 -0.4899 -0.0274  0.0429
    5MOL    C33 2041   2.646   1.358   0.615  0.5459  0.4343  0.3253
    5MOL    C34 2042   2.515   1.360   0.534 -0.4456  0.1032  0.5470
    5MOL    C35 2043   2.410   1.294   0.587  0.0777 -0.5050 -0.0743
    5MOL    C36 2044   2.286   1.289   0.517  0.4063 -0.8274 -0.0615
    5MOL    C37 2045   2.272   1.354   0.393 -0.5090 -0.4349 -0.0936
    5MOL    C38 2046   2.385   1.414   0.339  0.1126 -0.1897 -0.7652
    5MOL    C39 2047   2.505   1.416   0.406 -0.1102 -0.8988 -0.6299
    5MOL    H40 2048   2.802   1.180   0.352  3.4846  1.3769  2.0956
    5MOL    H41 2049   2.918   1.062   0.304 -0.1603  0.8171 -0.3719
    5MOL    H42 2050   2.923   0.846   0.514 -0.4208 -0.7893  0.6115
    5MOL    H43 2051   2.767   0.864   0.546  0.1858 -0.7363 -2.3655
    5MOL    H44 2052   2.882   0.919   0.669 -0.7598  0.2506 -0.0987
    5MOL    H45 2053   2.632   1.330   0.719 -0.0096 -0.8872 -0.0973
    5MOL    H46 2054   2.689   1.458   0.609 -0.8704  0.9845 -1.0947
    5MOL    H47 2055   2.425   1.224   0.667  4.5125 -1.1301 -1.3408
    5MOL    H48 2056   2.206   1.225   0.550  1.7162 -0.8292  3.2278
    5MOL    H49 2057   2.178   1.353   0.340 -0.0403 -1.5041 -0.9139
    5MOL    H50 2058   2.377   1.449   0.237  1.2772 -0.6663 -1.0245
    5MOL    H51 2059   2.591   1.451   0.351 -1.2422 -0.4326 -2.1257
    5MOL    C52 2060   2.995   1.142   0.552 -0.6743 -0.0078 -0.1511
    5MOL    C53 2061   3.134   1.085   0.544  0.4650  0.3976  0.0744
    5MOL    C54 2062   3.171   1.041   0.398 -0.4322  0.3067 -0.1146
    5MOL    C55 2063   3.155   0.958   0.643  0.3837  0.2320 -0.0120
    5MOL    O56 2064   3.199   0.848   0.608 -0.3408  0.1020 -0.0489
    5MOL    O57 2065   3.109   0.988   0.764 -0.0184  0.2920 -0.3721
    5MOL    C58 2066   3.127   0.886   0.863 -0.1179 -0.5524 -0.0522
    5MOL    C59 2067   3.056   0.910   0.993 -0.0525  0.1560 -0.0999
    5MOL    C60 2068   3.131   0.960   1.098 -0.4536 -0.3284  0.2494
    5MOL    C61 2069   3.074   0.972   1.225 -0.3534  0.4792  0.0255
    5MOL    C62 2070   2.945   0.928   1.247  0.3736 -0.2502  0.3666
    5MOL    C63 2071   2.867   0.878   1.146 -0.3072  0.6258 -0.5429
    5MOL    C64 2072   2.925   0.859   1.014  1.0269 -0.2350  0.4363
    5MOL    H65 2073   2.975   1.174   0.655 -0.9295 -1.4028  0.2482
    5MOL    H66 2074   2.997   1.237   0.498  0.4509  0.1904  0.2263
    5MOL    H67 2075   3.110   0.955   0.369  1.5252 -0.1538 -3.1107
    5MOL    H68 2076   3.270   0.998   0.385 -0.2671  0.0474  1.8332
    5MOL    H69 2077   3.156   1.125   0.331 -0.4543  0.1486 -0.3094
    5MOL    H70 2078   3.083   0.798   0.816 -0.1188 -0.2636 -0.5935
    5MOL    H71 2079   3.232   0.868   0.888  0.8144 -0.2439 -3.4697
    5MOL    H72 2080   3.229   1.005   1.091 -0.9027  0.5879 -0.2325
    5MOL    H73 2081   3.127   1.011   1.310 -1.5571 -0.2309  1.1206
    5MOL    H74 2082   2.897   0.922   1.344 -0.4845 -2.8961 -0.1938
    5MOL    H75 2083   2.767   0.848   1.172 -0.1732  1.1889  0.6338
    5MOL    H76 2084   2.863   0.816   0.937  0.2974 -0.1718  0.9849
    5MOL    C77 2085   3.253   1.189   0.587 -0.2440 -0.5970  0.6518
    5MOL    C78 2086   3.242   1.320   0.679 -0.5311  0.1433 -0.5282
    5MOL    C79 2087   3.213   1.252   0.817 -0.3783 -0.0980 -0.1315
    5MOL    C80 2088   3.128   1.422   0.636  0.3361  0.3669  0.0184
    5MOL    O81 2089   3.031   1.445   0.702 -0.3573 -0.0096 -0.2142
    5MOL    O82 2090   3.150   1.459   0.505  0.1088 -0.1462 -0.5151
    5MOL    C83 2091   3.045   1.518   0.431  0.5362 -0.1637 -0.6678
    5MOL    C84 2092   3.047   1.461   0.296  0.4078 -0.0720  0.8497
    5MOL    C85 2093   3.173   1.460   0.221  0.2346 -0.0049 -0.3291
    5MOL    C86 2094   3.168   1.393   0.100  0.6533  0.0033  0.0737
    5MOL    C87 2095   3.049   1.335   0.053  0.5915  0.1558  0.2459
    5MOL    C88 2096   2.931   1.332   0.121 -0.5924 -0.7250 -0.5308
    5MOL    C89 2097   2.927   1.405   0.240  0.5611  0.3169  0.1523
    5MOL    H90 2098   3.295   1.222   0.492 -0.2938 -3.0336 -0.2541
    5MOL    H91 2099   3.338   1.130   0.619  0.0375 -1.9515 -2.4460
    5MOL    H92 2100   3.111   1.214   0.824  0.2517 -1.5855  1.0358
    5MOL    H93 2101   3.219   1.318   0.903  1.7063 -1.2435  0.6336
    5MOL    H94 2102   3.269   1.162   0.841 -1.1332 -0.0005  2.1149
    5MOL    H95 2103   2.946   1.507   0.476 -0.4240  0.0697 -2.6664
    5MOL    H96 2104   3.067   1.624   0.439  1.4401 -0.3729 -0.3249
    5MOL    H97 2105   3.270   1.493   0.257 -0.3607  0.7223  0.6735
    5MOL    H98 2106   3.251   1.376   0.033 -0.0141  0.3682 -0.8668
    5MOL    H99 2107   3.064   1.283   7.967  0.4512 -0.3491  0.5044
    5MOL   H100 2108   2.837   1.292   0.086 -1.0660 -0.0329 -0.0606
    5MOL   H101 2109   2.829   1.423   0.280  0.7797  2.3870 -0.1720
    5MOL   C102 2110   3.385   1.382   0.690  0.5515 -0.7298 -0.3678
    5MOL   C103 2111   3.426   1.525   0.753 -0.6248  0.4248 -0.2673
    5MOL   C104 2112   3.344   1.541   0.883 -0.3689 -0.0920 -0.2376
    5MOL   C105 2113   3.380   1.638   0.652 -0.3147 -0.1180  0.5139
    5MOL   O106 2114   3.373   1.620   0.533 -0.6543 -0.1069  0.2473
    5MOL   O107 2115   3.364   1.763   0.704 -0.4731 -0.2407 -0.1301
    5MOL   C108 2116   3.348   1.881   0.624  0.3622 -0.0795 -0.0638
    5MOL   C109 2117   3.313   2.013   0.695  0.3370 -0.1005 -0.1717
    5MOL   C110 2118   3.392   2.055   0.802 -0.6324  0.3049  0.2872
    5MOL   C111 2119   3.352   2.175   0.874 -0.2567 -0.2584 -0.2028
    5MOL   C112 2120   3.230   2.243   0.839  0.4053 -0.1400  0.3052
    5MOL   C113 2121   3.161   2.206   0.723 -0.6445 -0.7784 -0.1435
    5MOL   C114 2122   3.200   2.087   0.656  0.3224  0.3995  0.0911
    5MOL   H115 2123   3.424   1.376   0.588  1.2616  2.0692 -0.2835
    5MOL   H116 2124   3.450   1.310   0.740  0.3014 -1.3753 -0.9571
    5MOL   H117 2125   3.363   1.636   0.933  0.6081  0.8715 -2.3390
    5MOL   H118 2126   3.358   1.456   0.950  0.5760  0.3006  0.0612
    5MOL   H119 2127   3.235   1.541   0.873 -0.3340 -0.8855 -0.6953
    5MOL   H120 2128   3.445   1.905   0.579  1.0864 -3.7345 -0.6235
    5MOL   H121 2129   3.266   1.857   0.557  0.4937  0.7389 -0.5281
    5MOL   H122 2130   3.479   2.003   0.839 -1.7759 -2.1999 -0.4461
    5MOL   H123 2131   3.408   2.190   0.965 -0.4371  1.1924 -0.3141
    5MOL   H124 2132   3.194   2.332   0.888 -0.1121 -0.1817 -0.0030
    5MOL   H125 2133   3.075   2.261   0.686  0.7120  0.8501 -0.9430
    5MOL   H126 2134   3.146   2.058   0.567  1.0303  4.0775 -1.6610
    5MOL   C127 2135   3.579   1.520   0.781  0.3265 -0.1996 -0.1376
    5MOL   C128 2136   3.676   1.645   0.810 -0.0194  0.0878 -0.0463
    5MOL   C129 2137   3.618   1.718   0.931  0.3956 -0.2899  0.1029
    5MOL   C130 2138   3.692   1.742   0.692  0.7111 -0.1689 -0.5209
    5MOL   O131 2139   3.661   1.716   0.574 -0.1290 -0.1455  0.5192
    5MOL   O132 2140   3.751   1.860   0.739  0.3318  0.1697 -0.1651
    5MOL   C133 2141   3.765   1.971   0.653 -0.1315  0.6500  0.1027
    5MOL   C134 2142   3.797   2.101   0.723 -0.0148 -0.8554 -0.0517
    5MOL   C135 2143   3.847   2.208   0.646 -0.7943  0.2678 -0.3451
    5MOL   C136 2144   3.867   2.330   0.706  0.3687  0.0612  0.4406
    5MOL   C137 2145   3.827   2.355   0.840 -0.5400  0.0190 -0.8637
    5MOL   C138 2146   3.782   2.246   0.922  0.1022  0.1719 -0.2871
    5MOL   C139 2147   3.771   2.117   0.861 -0.8399  0.4201  0.2988
    5MOL   H140 2148   3.620   1.469   0.694  3.1290 -0.9122  1.5254
    5MOL   H141 2149   3.589   1.445   0.860 -0.9857  1.2045  1.3927
    5MOL   H142 2150   3.521   1.766   0.914  1.0680  0.4453 -1.8387
    5MOL   H143 2151   3.693   1.784   0.975  0.4996  1.4705 -2.5482
    5MOL   H144 2152   3.595   1.646   1.009 -0.6778 -0.3545 -0.2613
    5MOL   H145 2153   3.849   1.954   0.586  1.3964 -2.2755  2.6979
    5MOL   H146 2154   3.673   1.991   0.596  0.4714 -0.9112 -1.4647
    5MOL   H147 2155   3.870   2.184   0.543 -0.5037  0.7384 -0.3933
    5MOL   H148 2156   3.905   2.408   0.642 -1.4185 -0.9881 -1.9716
    5MOL   H149 2157   3.834   2.454   0.882  0.8769  0.9624 -3.2261
    5MOL   H150 2158   3.763   2.256   1.027 -0.7918 -1.6521 -0.2480
    5MOL   H151 2159   3.735   2.033   0.919  0.1494  1.2902  2.2196
    5MOL   C152 2160   3.813   1.592   0.856 -0.1746  0.1226 -0.2081
    5MOL   C153 2161   3.915   1.511   0.774 -0.9124 -0.4588  0.1148
    5MOL   C154 2162   3.960   1.585   0.638  0.2549 -0.5353 -0.6871
    5MOL   C155 2163   3.862   1.371   0.744  0.7636  1.1134  0.1395
    5MOL   O156 2164   3.785   1.311   0.820  0.3904 -0.2865  0.1592
    5MOL   O157 2165   3.911   1.322   0.626 -0.5558  0.4340 -0.0337
    5MOL   C158 2166   3.875   1.195   0.580  0.2799 -0.0771 -0.1152
    5MOL   C159 2167   3.751   1.184   0.479  0.1833  0.2076 -0.8311
    5MOL   C160 2168   3.706   1.059   0.427  0.0706  0.6092 -1.5502
    5MOL   C161 2169   3.591   1.057   0.342  1.0293  0.6331 -0.6743
    5MOL   C162 2170   3.524   1.182   0.307 -0.2789  0.0688  0.1817
    5MOL   C163 2171   3.576   1.304   0.357  0.1616 -0.1692  0.1653
    5MOL   C164 2172   3.690   1.306   0.434  0.9934  0.7689 -0.1150
    5MOL   H165 2173   3.787   1.521   0.935  1.6645 -1.3532 -0.8820
    5MOL   H166 2174   3.872   1.672   0.900  1.3035 -0.6341 -0.7545
    5MOL   H167 2175   3.995   1.688   0.648  0.9425 -0.9066  0.8009
    5MOL   H168 2176   3.888   1.584   0.556  0.2779  1.0140 -0.7432
    5MOL   H169 2177   4.032   1.533   0.574  1.2156  1.1584 -1.0139
    5MOL   H170 2178   3.969   1.155   0.542  0.4427 -0.1081  0.3109
    5MOL   H171 2179   3.858   1.142   0.674  2.1678  1.6489  1.2298
    5MOL   H172 2180   3.760   0.971   0.458 -2.7275 -0.5311  0.3060
    5MOL   H173 2181   3.550   0.961   0.318 -2.0011  2.1780 -1.9853
    5MOL   H174 2182   3.428   1.177   0.258 -1.3028  0.7204  2.0605
    5MOL   H175 2183   3.516   1.393   0.342 -1.5860 -1.5299 -1.0743
    5MOL   H176 2184   3.732   1.399   0.468  1.7501  0.4614 -0.1974
    5MOL   C177 2185   4.054   1.506   0.858  0.1328  0.6489  0.1783
    5MOL   C178 2186   4.146   1.381   0.894  0.1675 -0.6183  0.6884
    5MOL   C179 2187   4.202   1.324   0.760  0.2895  0.1161  0.1837
    5MOL   C180 2188   4.058   1.273   0.966 -0.1745 -0.4560  0.0985
    5MOL   O181 2189   4.048   1.160   0.920 -0.0428  0.1160  0.0992
    5MOL   O182 2190   4.005   1.318   1.080 -0.2994 -0.6195 -0.3494
    5MOL   C183 2191   3.895   1.241   1.138  0.2230  0.3292 -0.4668
    5MOL   C184 2192   3.777   1.328   1.172  0.0814  0.5118 -0.6557
    5MOL   C185 2193   3.651   1.305   1.114 -0.1006  0.8538 -0.4379
    5MOL   C186 2194   3.542   1.383   1.146 -0.2256  1.0446 -0.0531
    5MOL   C187 2195   3.552   1.487   1.239 -0.0755  0.5301 -0.0643
    5MOL   C188 2196   3.680   1.514   1.292 -0.3126 -0.1473 -0.0724
    5MOL   C189 2197   3.794   1.441   1.263 -0.0157  0.0989  0.0639
    5MOL   H190 2198   4.012   1.542   0.952  3.1771  0.4476  1.6950
    5MOL   H191 2199   4.119   1.587   0.824  2.1743 -0.9390  0.2032
    5MOL   H192 2200   4.127   1.273   0.700  0.5860 -0.9818  0.7340
    5MOL   H193 2201   4.269   1.242   0.785 -1.0559 -1.2037 -0.4583
    5MOL   H194 2202   4.248   1.401   0.699 -2.0734  1.1055 -0.4140
    5MOL   H195 2203   3.851   1.161   1.078  1.1548 -0.0611 -0.6256
    5MOL   H196 2204   3.934   1.186   1.223  1.2457  0.5745 -0.7793
    5MOL   H197 2205   3.634   1.229   1.040 -0.7830 -1.5823  2.1554
    5MOL   H198 2206   3.450   1.353   1.098 -0.6843 -2.9431  3.0449
    5MOL   H199 2207   3.475   1.561   1.254 -0.9484 -0.0215 -1.7991
    5MOL   H200 2208   3.710   1.602   1.348  1.2502 -1.4660  1.2017
    5MOL   H201 2209   3.889   1.476   1.301  1.8130 -2.2179 -2.0796
    5MOL   C202 2210   4.250   1.435   0.999 -0.7744 -0.2837  0.8296
    5MOL   C203 2211   4.402   1.379   0.991  0.1131 -0.1677 -0.4419
    5MOL   C204 2212   4.473   1.411   0.862 -0.2540 -0.1114 -0.0835
    5MOL   C205 2213   4.389   1.223   1.014 -0.0719  0.4526  0.9086
    5MOL   O206 2214   4.449   1.146   0.942  0.0701 -0.1158  0.3139
    5MOL   O207 2215   4.304   1.184   1.106 -0.3095  0.0366  0.2477
    5MOL   C208 2216   4.288   1.044   1.125  0.1656  0.1453 -0.2651
    5MOL   C209 2217   4.164   1.011   1.206 -0.2043  0.2517  0.2857
    5MOL   C210 2218   4.165   1.041   1.342  0.1914  0.0005  0.0583
    5MOL   C211 2219   4.053   1.006   1.422 -0.7186 -0.5498  0.7177
    5MOL   C212 2220   3.936   0.947   1.358 -0.7957 -0.4889  0.5025
    5MOL   C213 2221   3.936   0.924   1.216 -0.8098  0.0703 -0.4797
    5MOL   C214 2222   4.053   0.950   1.143 -0.1417  0.2576 -0.0648
    5MOL   H215 2223   4.206   1.428   1.098  0.1867 -0.3698  1.2603
    5MOL   H216 2224   4.253   1.544   0.993 -3.2025 -0.1250  2.0739
    5MOL   H217 2225   4.582   1.418   0.866 -0.1151  0.0388 -2.7917
    5MOL   H218 2226   4.448   1.514   0.835 -0.6320  0.3416  1.9179
    5MOL   H219 2227   4.457   1.358   0.768  2.7508  1.3782 -1.5118
    5MOL   H220 2228   4.266   1.004   1.026 -2.0367 -0.3238  0.4011
    5MOL   H221 2229   4.378   0.997   1.166  0.1241  0.3344  0.0485
    5MOL   H222 2230   4.244   1.092   1.395  0.6641 -1.7543  1.0806
    5MOL   H223 2231   4.040   1.035   1.525 -3.0629  0.4568  0.1650
    5MOL   H224 2232   3.847   0.925   1.416  0.3085 -2.4836  1.5067
    5MOL   H225 2233   3.855   0.878   1.162 -0.7700  0.5445 -0.9409
    5MOL   H226 2234   4.052   0.938   1.036 -1.7396  0.3636 -0.0760
    5MOL   C227 2235   4.485   1.461   1.103  0.6810 -0.1162  0.2008
    5MOL   C228 2236   4.614   1.415   1.185 -0.3749  0.4393 -0.1421
    5MOL   C229 2237   4.706   1.338   1.096  0.2620 -1.0737  0.2352
    5MOL   C230 2238   4.575   1.324   1.304  0.6606 -0.5422  0.7002
    5MOL   O231 2239   4.457   1.330   1.341 -0.7108  0.1395  0.1987
    5MOL   O232 2240   4.675   1.251   1.358  0.2866  0.3683  0.1541
    5MOL   C233 2241   4.649   1.157   1.454  0.5977 -0.0308  0.8071
    5MOL   C234 2242   4.684   1.214   1.589 -0.1140  0.3925 -0.4491
    5MOL   C235 2243   4.625   1.161   1.707  0.5605  0.5818  0.9794
    5MOL   C236 2244   4.647   1.217   1.832  0.0051 -0.4319 -0.0779
    5MOL   C237 2245   4.730   1.326   1.842  0.0996  0.2879 -0.2190
    5MOL   C238 2246   4.803   1.372   1.734 -0.7409  0.4039 -0.1763
    5MOL   C239 2247   4.782   1.316   1.602  0.7982  0.1552 -0.3290
    5MOL   H240 2248   4.414   1.493   1.179  1.6139  1.0082  0.6127
    5MOL   H241 2249   4.515   1.554   1.054 -0.1960  2.0636  3.6058
    5MOL   H242 2250   4.798   1.310   1.148 -0.7859 -2.3453  1.4315
    5MOL   H243 2251   4.734   1.393   1.006  0.2958  2.1432  2.1293
    5MOL   H244 2252   4.654   1.247   1.068 -2.7360 -0.0559  2.3215
    5MOL   H245 2253   4.541   1.141   1.463  0.2197  2.8085  1.8265
    5MOL   H246 2254   4.700   1.066   1.426 -1.9907 -1.6056  1.0159
    5MOL   H247 2255   4.561   1.074   1.706  1.1548  0.1292  1.7407
    5MOL   H248 2256   4.595   1.192   1.923  1.7684 -1.6678  0.6308
    5MOL   H249 2257   4.747   1.371   1.939  0.4034 -1.0882  0.3673
    5MOL   H250 2258   4.879   1.447   1.749  1.9213 -2.3513  0.5883
    5MOL   H251 2259   4.837   1.355   1.518 -2.0208  0.1519 -2.2352
    5MOL   C252 2260   4.708   1.531   1.238 -0.5129  0.4133 -0.3294
    5MOL   C253 2261   4.659   1.651   1.327 -0.3418 -0.6488 -1.1240
    5MOL   C254 2262   4.573   1.599   1.443  0.0026 -0.0529  0.2286
    5MOL   C255 2263   4.574   1.760   1.248 -0.1031  0.0376  0.1113
    5MOL   O256 2264   4.602   1.794   1.130 -0.0559  0.5796 -0.6960
    5MOL   O257 2265   4.465   1.810   1.322 -0.2107  0.3138  0.0308
    5MOL   C258 2266   4.402   1.921   1.271  0.3368 -0.2502 -0.4808
    5MOL   C259 2267   4.279   1.901   1.188  0.2252  0.7505  0.1799
    5MOL   C260 2268   4.229   2.007   1.118 -0.3226 -0.2379 -0.9448
    5MOL   C261 2269   4.107   1.992   1.051 -0.3509 -0.2304  0.2997
    5MOL   C262 2270   4.040   1.873   1.055 -0.7486 -0.5555  0.3869
    5MOL   C263 2271   4.091   1.765   1.126 -0.4743  0.0381  0.0619
    5MOL   C264 2272   4.214   1.772   1.191 -1.0006  0.2445 -0.5107
    5MOL   H265 2273   4.744   1.572   1.144  1.6382 -2.5363 -0.8894
    5MOL   H266 2274   4.790   1.480   1.290 -2.8798 -1.5969  1.5816
    5MOL   H267 2275   4.619   1.513   1.493  1.9609  1.1749  0.5911
    5MOL   H268 2276   4.478   1.564   1.403 -0.8359  2.0158  0.3926
    5MOL   H269 2277   4.545   1.673   1.517  0.3771 -0.0458  0.3653
    5MOL   H270 2278   4.353   1.963   1.359  1.7453  2.4375 -0.9144
    5MOL   H271 2279   4.468   2.003   1.239  0.8284 -0.8709 -1.0674
    5MOL   H272 2280   4.284   2.100   1.112 -0.2394 -0.2396 -0.3109
    5MOL   H273 2281   4.070   2.059   0.974 -2.4767 -1.4855  0.1951
    5MOL   H274 2282   3.950   1.856   0.998 -1.2687 -0.3052  1.1189
    5MOL   H275 2283   4.033   1.674   1.134 -0.4904 -0.1495 -1.9215
    5MOL   H276 2284   4.251   1.693   1.255  0.1390  1.1631 -0.0365
    5MOL   C277 2285   4.788   1.701   1.386 -0.2568 -0.5115  0.0173
    5MOL   C278 2286   4.798   1.852   1.448  0.0301  0.3284  0.3772
    5MOL   C279 2287   4.689   1.887   1.553  1.0103  0.2818 -0.4254
    5MOL   C280 2288   4.805   1.969   1.341  0.1371 -0.2805 -0.2129
    5MOL   O281 2289   4.841   1.954   1.221 -0.0247 -0.6224  0.8024
    5MOL   O282 2290   4.772   2.088   1.405 -0.5766 -0.1077  0.2424
    5MOL   C283 2291   4.792   2.205   1.335  0.4039 -0.6805 -0.5910
    5MOL   C284 2292   4.891   2.293   1.412  0.4944 -0.7269 -0.8506
    5MOL   C285 2293   4.988   2.367   1.350 -0.4753  0.2629 -0.5305
    5MOL   C286 2294   5.087   2.437   1.417 -0.3233  0.7089 -0.3369
    5MOL   C287 2295   5.076   2.450   1.556 -0.1645 -0.4662  0.7790
    5MOL   C288 2296   4.974   2.389   1.628 -0.0563  0.8636 -0.5365
    5MOL   C289 2297   4.883   2.310   1.555  0.0045  0.0166 -0.7183
    5MOL   H290 2298   4.881   1.680   1.334  0.8422  0.1158  1.7054
    5MOL   H291 2299   4.790   1.642   1.478 -1.3894  0.9595  1.0188
    5MOL   H292 2300   4.716   1.976   1.611 -1.4041  0.1731  0.9313
    5MOL   H293 2301   4.668   1.802   1.618 -2.7507  0.4539 -1.2789
    5MOL   H294 2302   4.606   1.911   1.486  1.4726  0.8090 -0.8186
    5MOL   H295 2303   4.845   2.190   1.241  1.4460 -1.6033  0.1344
    5MOL   H296 2304   4.700   2.258   1.311  0.4140  0.8023  2.4983
    5MOL   H297 2305   4.985   2.371   1.242  0.7838 -2.2230 -0.6766
    5MOL   H298 2306   5.169   2.483   1.364  1.9422 -0.4436  2.0035
    5MOL   H299 2307   5.143   2.515   1.611 -1.8477 -0.1587  2.5014
    5MOL   H300 2308   4.973   2.391   1.736  2.0793 -0.6594 -0.4532
    5MOL   H301 2309   4.813   2.247   1.608 -1.2098  2.8492  1.1499
    5MOL   C302 2310   4.925   1.863   1.540 -0.5864  0.3193 -0.5321
    5MOL   C303 2311   5.071   1.867   1.492 -0.6397 -0.3864 -0.2834
    5MOL   C304 2312   5.105   2.015   1.437 -0.0325 -0.1300 -0.8265
    5MOL   C305 2313   5.112   1.762   1.386 -1.0327 -0.4675 -0.2682
    5MOL   O306 2314   5.153   1.796   1.276  0.0289 -0.3708  0.0772
    5MOL   O307 2315   5.087   1.636   1.423 -0.1284 -0.4359 -0.4095
    5MOL   C308 2316   5.125   1.531   1.343  0.4419 -0.7980  0.0100
    5MOL   C309 2317   5.150   1.402   1.406 -0.0020  1.3680 -0.4066
    5MOL   C310 2318   5.068   1.291   1.373  0.5288 -0.5959 -0.3338
    5MOL   C311 2319   5.106   1.166   1.422  0.4803  0.2628  0.9005
    5MOL   C312 2320   5.210   1.155   1.523  0.3412  0.4006 -0.1408
    5MOL   C313 2321   5.278   1.270   1.571 -0.9202 -0.5659  0.2514
    5MOL   C314 2322   5.246   1.393   1.503 -0.7807 -0.5598 -0.1940
    5MOL   H315 2323   4.919   1.786   1.618  0.2509 -0.3781 -1.1558
    5MOL   H316 2324   4.931   1.959   1.591  2.0606 -0.5433  0.9229
    5MOL   H317 2325   5.210   2.043   1.442  0.6429 -2.5156 -0.6928
    5MOL   H318 2326   5.041   2.090   1.483  0.2027 -0.4385  0.0343
    5MOL   H319 2327   5.083   2.029   1.332  0.3201  0.3004 -0.8454
    5MOL   H320 2328   5.056   1.522   1.259  0.2845  1.5319 -0.1407
    5MOL   H321 2329   5.214   1.558   1.285  0.4185 -1.2241 -0.2255
    5MOL   H322 2330   4.989   1.313   1.302  1.6532 -1.9358 -2.0264
    5MOL   H323 2331   5.052   1.076   1.397 -0.4218  0.8662  0.6262
    5MOL   H324 2332   5.217   1.062   1.576  0.2596 -0.4957 -1.6699
    5MOL   H325 2333   5.350   1.268   1.651 -0.0386  2.6083 -0.3727
    5MOL   H326 2334   5.297   1.486   1.526  0.9749 -1.2031 -1.4080
    5MOL   C327 2335   5.162   1.834   1.617  0.1616  0.1109 -1.1881
    5MOL   C328 2336   5.318   1.865   1.643 -0.4605  0.2675  0.0036
    5MOL   C329 2337   5.329   1.998   1.722  0.2222 -0.2948 -0.1536
    5MOL   C330 2338   5.404   1.883   1.505 -0.0364 -0.1876  0.0649
    5MOL   O331 2339   5.473   1.983   1.488 -0.3109  0.1187 -0.1596
    5MOL   O332 2340   5.412   1.769   1.425 -0.5404  0.4274  0.7093
    5MOL   C333 2341   5.501   1.767   1.313  0.5543 -0.7268  0.2873
    5MOL   C334 2342   5.618   1.683   1.348 -0.1559 -0.4782  0.3041
    5MOL   C335 2343   5.617   1.548   1.320 -0.2260  0.1554  0.5518
    5MOL   C336 2344   5.726   1.460   1.344 -0.8364 -0.3439  0.3919
    5MOL   C337 2345   5.841   1.518   1.395 -0.2741  0.1476 -0.0829
    5MOL   C338 2346   5.851   1.661   1.412  0.4106  0.1396 -0.9558
    5MOL   C339 2347   5.737   1.741   1.389 -0.8161 -0.0132 -0.2951
    5MOL   H340 2348   5.133   1.732   1.642 -0.5003  0.5976  0.0791
    5MOL   H341 2349   5.111   1.884   1.699  0.4212  0.4960 -1.2594
    5MOL   H342 2350   5.432   2.024   1.748  0.7050 -0.9687 -1.3459
    5MOL   H343 2351   5.264   1.999   1.810  1.5679 -1.7515  0.8944
    5MOL   H344 2352   5.296   2.078   1.656  2.9553 -0.5835 -1.9762
    5MOL   H345 2353   5.440   1.737   1.228 -1.1938  1.3126  0.7750
    5MOL   H346 2354   5.533   1.870   1.297  2.7576 -1.0418  2.3123
    5MOL   H347 2355   5.527   1.501   1.283  0.5742 -1.1318  0.2248
    5MOL   H348 2356   5.734   1.355   1.321  0.4986  0.0798 -1.1212
    5MOL   H349 2357   5.927   1.455   1.412  0.9796  1.8905  0.1920
    5MOL   H350 2358   5.943   1.706   1.446  0.2145 -0.0455 -0.1749
    5MOL   H351 2359   5.739   1.849   1.389 -2.0648  0.0665  2.5531
    5MOL   C352 2360   5.377   1.740   1.716 -0.2273  0.1799  0.1098
    5MOL   C353 2361   5.517   1.735   1.802  0.2938 -0.0822 -0.4293
    5MOL   C354 2362   5.629   1.811   1.725  0.7399  0.4459 -0.6100
    5MOL   C355 2363   5.567   1.583   1.805  0.3232 -0.3722  0.6608
    5MOL   O356 2364   5.487   1.494   1.805  0.8945  0.1252 -0.1308
    5MOL   O357 2365   5.694   1.573   1.810 -0.1015  0.2224  0.3150
    5MOL   C358 2366   5.753   1.446   1.834 -0.1459 -0.4260  0.0067
    5MOL   C359 2367   5.901   1.438   1.803  0.1491 -0.1104  0.3434
    5MOL   C360 2368   5.973   1.320   1.839 -0.1494 -0.1514 -0.3087
    5MOL   C361 2369   6.113   1.305   1.817 -0.0710 -0.1114 -1.0601
    5MOL   C362 2370   6.176   1.407   1.748  0.1764 -0.0670 -0.0301
    5MOL   C363 2371   6.103   1.521   1.706 -0.0004 -0.1745  0.1111
    5MOL   C364 2372   5.968   1.540   1.732 -0.5509  0.0009 -0.1032
    5MOL   H365 2373   5.376   1.655   1.648 -3.9670  1.1577 -1.1836
    5MOL   H366 2374   5.310   1.712   1.797 -1.4280  0.2854 -0.8300
    5MOL   H367 2375   5.725   1.807   1.778  0.9735  1.1356 -0.9735
    5MOL   H368 2376   5.599   1.915   1.712 -0.6795  0.2012  0.6423
    5MOL   H369 2377   5.649   1.766   1.628 -0.4988  1.4542 -1.3416
    5MOL   H370 2378   5.747   1.426   1.941  1.1342  0.7712  0.3171
    5MOL   H371 2379   5.707   1.369   1.773 -0.7800  0.4090 -0.5739
    5MOL   H372 2380   5.920   1.244   1.894 -1.1116  0.1566 -0.7996
    5MOL   H373 2381   6.157   1.213   1.852 -2.6799 -1.4922 -1.3621
    5MOL   H374 2382   6.279   1.400   1.717  1.6930 -0.4020  4.6821
    5MOL   H375 2383   6.154   1.599   1.650  1.1086  0.2375  1.6715
    5MOL   H376 2384   5.920   1.627   1.690  2.3812  2.0915  0.7047
    5MOL   C377 2385   5.483   1.787   1.951  0.5992 -0.2476  1.1265
    5MOL   C378 2386   5.582   1.836   2.062  0.0786 -0.0063 -0.0751
    5MOL   C379 2387   5.660   1.961   2.001 -0.9901  0.1249 -0.0115
    5MOL   C380 2388   5.688   1.733   2.100 -0.0722 -0.8561 -0.3500
    5MOL   O381 2389   5.659   1.609   2.101 -0.0059  0.0807 -0.5325
    5MOL   O382 2390   5.805   1.785   2.138 -0.2603 -0.9782  0.1277
    5MOL   C383 2391   5.918   1.699   2.157  0.3483  0.7512  0.4302
    5MOL   C384 2392   6.049   1.767   2.118  0.1599  0.1973 -0.4491
    5MOL   C385 2393   6.142   1.715   2.025 -0.6775  0.3531  0.4721
    5MOL   C386 2394   6.256   1.789   1.994  0.1678  0.7173  0.1909
    5MOL   C387 2395   6.288   1.915   2.059 -0.4615 -0.1652  0.0264
    5MOL   C388 2396   6.194   1.954   2.161  0.0004 -0.1363  0.1642
    5MOL   C389 2397   6.075   1.889   2.182 -0.1617  0.1931  0.2078
    5MOL   H390 2398   5.413   1.718   1.998  0.1436 -2.8403 -3.0643
    5MOL   H391 2399   5.422   1.874   1.929 -2.9998 -2.0278  3.6344
    5MOL   H392 2400   5.596   2.029   1.944 -2.0396 -1.0487 -0.2468
    5MOL   H393 2401   5.753   1.949   1.946 -0.5386  0.8798  0.5769
    5MOL   H394 2402   5.707   2.016   2.083 -1.3329  1.9086 -0.9821
    5MOL   H395 2403   5.930   1.666   2.260  0.0719 -0.0716  0.2070
    5MOL   H396 2404   5.916   1.608   2.096  1.9663  1.2624 -0.4073
    5MOL   H397 2405   6.129   1.618   1.980 -0.4799  0.4085  0.2982
    5MOL   H398 2406   6.320   1.755   1.914 -1.2534 -1.6477 -0.0016
    5MOL   H399 2407   6.387   1.957   2.045 -1.7028  2.5033 -0.8924
    5MOL   H400 2408   6.209   2.047   2.215  0.3068 -1.7810  3.0259
    5MOL   H401 2409   5.997   1.931   2.242  1.0728  1.2294  1.1188
    5MOL   C402 2410   5.513   1.893   2.193  0.2723  0.7298  0.5040
    5MOL   C403 2411   5.388   1.830   2.256  0.4247  0.1872 -0.0281
    5MOL   C404 2412   5.427   1.683   2.290 -0.2215  0.4034 -0.1567
    5MOL   C405 2413   5.249   1.825   2.177  0.1655  0.5458 -0.1134
    5MOL   O406 2414   5.228   1.883   2.068  0.2829 -0.4097  0.2460
    5MOL   O407 2415   5.155   1.758   2.245 -0.4494  0.2920 -0.0858
    5MOL   C408 2416   5.029   1.745   2.184 -0.3059 -0.4729  0.2276
    5MOL   C409 2417   5.009   1.610   2.126 -0.7727 -0.0073 -0.2352
    5MOL   C410 2418   5.094   1.571   2.022  0.5099  0.8395  0.5391
    5MOL   C411 2419   5.093   1.440   1.972 -0.7265  0.5875 -0.2213
    5MOL   C412 2420   5.012   1.341   2.031  0.5097  0.2319 -0.1410
    5MOL   C413 2421   4.933   1.381   2.140  0.0811 -0.9348 -0.2980
    5MOL   C414 2422   4.939   1.508   2.200  0.0733  0.3218  0.5914
    5MOL   H415 2423   5.478   1.989   2.155 -1.8170  0.4191  1.5821
    5MOL   H416 2424   5.590   1.894   2.270  0.2268  0.0207  0.5556
    5MOL   H417 2425   5.347   1.638   2.349 -1.2588  1.1066 -1.0017
    5MOL   H418 2426   5.520   1.685   2.346  0.9079  1.1239 -2.0427
    5MOL   H419 2427   5.440   1.619   2.203 -2.1080  0.2564 -0.3708
    5MOL   H420 2428   4.964   1.772   2.267 -2.1352  0.2482 -1.3830
    5MOL   H421 2429   4.995   1.818   2.110 -0.5614  1.1365  1.9096
    5MOL   H422 2430   5.160   1.647   1.981  2.1609 -0.7585  0.1495
    5MOL   H423 2431   5.154   1.421   1.885  1.9418  1.9948  1.2860
    5MOL   H424 2432   5.023   1.238   2.001  1.1112 -0.0865  1.1094
    5MOL   H425 2433   4.881   1.307   2.200  0.0202  0.0062  0.8324
    5MOL   H426 2434   4.902   1.519   2.301 -2.0322 -0.9649 -0.0197
    5MOL   C427 2435   5.362   1.913   2.391  0.3315 -0.3708  0.1255
    5MOL   C428 2436   5.327   2.063   2.399  0.0844 -1.2317  0.0563
    5MOL   C429 2437   5.228   2.106   2.295  0.0605 -0.5511 -0.0065
    5MOL   C430 2438   5.456   2.154   2.383  0.4415 -0.4429 -0.2233
    5MOL   O431 2439   5.570   2.119   2.416 -0.5794 -0.2479  0.3750
    5MOL   O432 2440   5.421   2.281   2.348  0.4102 -0.1879 -0.2601
    5MOL   C433 2441   5.519   2.381   2.317 -0.3044  0.0950 -0.1378
    5MOL   C434 2442   5.574   2.362   2.177 -0.4862  0.2235  0.2889
    5MOL   C435 2443   5.713   2.399   2.159 -0.2769  0.2131  0.7254
    5MOL   C436 2444   5.764   2.417   2.030 -0.1909 -0.0141  0.5733
    5MOL   C437 2445   5.681   2.386   1.919  0.0071  0.6208 -0.2303
    5MOL   C438 2446   5.551   2.334   1.933  0.2127  0.2487 -0.1121
    5MOL   C439 2447   5.495   2.331   2.066 -0.4454  0.4079 -0.2050
    5MOL   H440 2448   5.453   1.897   2.449  0.8828  1.5133 -0.2036
    5MOL   H441 2449   5.278   1.863   2.441  0.4555  0.2148  0.9380
    5MOL   H442 2450   5.185   2.205   2.311  0.7151  0.2310 -2.7929
    5MOL   H443 2451   5.140   2.042   2.288 -0.6609  0.2377  1.6359
    5MOL   H444 2452   5.267   2.107   2.194  0.1744  0.9413  0.0379
    5MOL   H445 2453   5.476   2.482   2.322 -0.0783  0.1866 -0.0525
    5MOL   H446 2454   5.601   2.387   2.388  0.7057 -1.4005 -1.1573
    5MOL   H447 2455   5.771   2.431   2.244 -0.4248  1.4558  0.3563
    5MOL   H448 2456   5.867   2.445   2.015 -0.3045  0.6112  0.9360
    5MOL   H449 2457   5.722   2.386   1.818 -1.4259 -0.5018 -0.8367
    5MOL   H450 2458   5.499   2.293   1.848 -0.7505 -0.7929  0.9630
    5MOL   H451 2459   5.399   2.288   2.091 -0.0321 -0.2646  0.2382
    5MOL   C452 2460   5.255   2.098   2.532  0.3970  0.2055 -0.3050
    5MOL   C453 2461   5.326   2.087   2.674 -0.4280 -0.2364 -0.7170
    5MOL   C454 2462   5.413   2.207   2.705  0.2049  0.2258  0.1942
    5MOL   C455 2463   5.409   1.955   2.688 -0.1275  0.1768 -0.2345
    5MOL   O456 2464   5.533   1.960   2.707 -0.1484 -0.2535 -0.1911
    5MOL   O457 2465   5.332   1.848   2.679  0.3170 -0.2408  0.6413
    5MOL   C458 2466   5.399   1.721   2.690  0.1919  0.0763  0.1027
    5MOL   C459 2467   5.318   1.596   2.698 -0.0252  0.3627  0.1074
    5MOL   C460 2468   5.357   1.500   2.793 -0.4926  0.0829  0.7600
    5MOL   C461 2469   5.288   1.375   2.791  0.6176 -0.1479  0.7036
    5MOL   C462 2470   5.184   1.353   2.692  0.8739 -0.5412 -0.3615
    5MOL   C463 2471   5.143   1.449   2.608 -0.4615 -0.2635  0.7755
    5MOL   C464 2472   5.213   1.569   2.609 -0.1527  0.0056 -0.6494
    5MOL   H465 2473   5.156   2.052   2.535 -1.4170  3.9041 -0.1570
    5MOL   H466 2474   5.234   2.205   2.528 -0.8020  0.0470  1.3785
    5MOL   H467 2475   5.513   2.191   2.666  0.0722 -0.9704  0.3269
    5MOL   H468 2476   5.431   2.227   2.811 -1.0240 -1.1007  0.6700
    5MOL   H469 2477   5.369   2.293   2.655 -0.0124 -1.4294 -2.5422
    5MOL   H470 2478   5.475   1.712   2.612 -0.7710  3.2211 -1.2757
    5MOL   H471 2479   5.469   1.735   2.772  1.0039  2.7630 -0.9821
    5MOL   H472 2480   5.435   1.523   2.864 -0.5883  1.2224  0.5159
    5MOL   H473 2481   5.320   1.299   2.861  1.5761  1.4187  2.0216
    5MOL   H474 2482   5.140   1.254   2.685  1.9852 -1.3265  2.9937
    5MOL   H475 2483   5.076   1.431   2.525 -0.1271  0.4008  0.3565
    5MOL   H476 2484   5.170   1.648   2.549 -0.7970  0.2632  0.1337
    5MOL   C477 2485   5.209   2.088   2.784  0.3234 -1.1725 -1.0523
    5MOL   C478 2486   5.247   2.050   2.928 -0.4850 -0.0607 -1.4425
    5MOL   C479 2487   5.186   1.919   2.967 -0.5083  0.1386  0.7616
    5MOL   C480 2488   5.197   2.162   3.019  0.9065 -0.3451 -0.2028
    5MOL   O481 2489   5.084   2.165   3.061  0.1221  0.3254  0.4761
    5MOL   O482 2490   5.294   2.245   3.058  0.0963 -0.4288 -0.1336
    5MOL   C483 2491   5.271   2.327   3.172  0.1649 -0.4008  0.5025
    5MOL   C484 2492   5.268   2.481   3.140  0.8584 -0.0569  0.0565
    5MOL   C485 2493   5.142   2.539   3.118  0.9730 -0.2828 -0.0374
    5MOL   C486 2494   5.132   2.675   3.079  0.3300  0.4133 -0.5442
    5MOL   C487 2495   5.247   2.756   3.076  0.2463  0.2602 -0.5582
    5MOL   C488 2496   5.374   2.708   3.110 -0.0813  0.2100  0.3663
    5MOL   C489 2497   5.386   2.567   3.138  0.4636 -0.2622  0.1432
    5MOL   H490 2498   5.126   2.029   2.748 -0.9132  0.8212 -1.5465
    5MOL   H491 2499   5.176   2.192   2.790  1.0216 -0.9617 -0.7703
    5MOL   H492 2500   5.212   1.905   3.072  2.1778  0.3140  0.1584
    5MOL   H493 2501   5.235   1.833   2.921 -1.9640 -0.5320  0.4412
    5MOL   H494 2502   5.079   1.927   2.947  0.2003  2.2957 -2.6018
    5MOL   H495 2503   5.186   2.292   3.231 -0.5189 -2.6977 -1.7066
    5MOL   H496 2504   5.358   2.317   3.238  1.0165 -1.2530 -0.7140
    5MOL   H497 2505   5.054   2.475   3.120 -0.3212  1.4833  2.7704
    5MOL   H498 2506   5.028   2.701   3.066 -0.7237 -1.7312  2.8008
    5MOL   H499 2507   5.232   2.862   3.058 -0.9911  0.3441  0.9018
    5MOL   H500 2508   5.460   2.773   3.103  0.2198 -0.0970  1.2474
    5MOL   H501 2509   5.481   2.519   3.155  0.4593 -0.8303 -1.3852
    5MOL   H502 2510   5.355   2.047   2.938 -0.6132 -1.5502 -0.2435
    6MOL     C1 2511   1.247   6.860   6.673 -0.5804 -0.5471 -0.4398
    6MOL     C2 2512   1.134   6.949   6.734  0.0086 -0.5727  0.4755
    6MOL     C3 2513   1.041   6.981   6.613 -0.1057  0.0277 -0.7061
    6MOL     C4 2514   1.211   7.076   6.784 -0.3012 -0.1690 -0.8970
    6MOL     O5 2515   1.332   7.084   6.796 -0.2904 -0.0888 -0.5615
    6MOL     O6 2516   1.120   7.176   6.807  0.0370 -0.2582 -0.1663
    6MOL     C7 2517   1.158   7.293   6.879  0.1742 -0.1359  0.6554
    6MOL     C8 2518   1.154   7.413   6.792 -0.1994 -0.3149 -0.0989
    6MOL     C9 2519   1.055   7.514   6.803  0.7749 -1.0461  0.0586
    6MOL    C10 2520   1.059   7.631   6.726 -0.4723 -0.8366  0.0485
    6MOL    C11 2521   1.167   7.648   6.631  0.3805 -0.0299  0.5022
    6MOL    C12 2522   1.267   7.544   6.619 -0.5267 -0.7116  0.3970
    6MOL    C13 2523   1.251   7.425   6.691  0.8376  0.0877 -1.3055
    6MOL    H14 2524   1.200   6.771   6.632  0.0012  0.4894 -3.4354
    6MOL    H15 2525   1.302   6.908   6.592  1.7729 -0.4591  1.1557
    6MOL    H16 2526   0.958   7.042   6.647 -1.3682 -1.6715 -0.6686
    6MOL    H17 2527   0.995   6.892   6.569 -1.4069  0.6125 -0.5401
    6MOL    H18 2528   1.099   7.026   6.532  0.4458  0.2098 -0.2146
    6MOL    H19 2529   1.077   7.310   6.950 -1.0454 -1.3338 -0.4298
    6MOL    H20 2530   1.254   7.277   6.928  0.3475  1.1541  0.7556
    6MOL    H21 2531   0.984   7.525   6.884  1.3681  2.8380  0.1461
    6MOL    H22 2532   0.983   7.707   6.735 -0.2632 -0.6653  0.3660
    6MOL    H23 2533   1.173   7.746   6.584 -1.0610  0.8099  2.0264
    6MOL    H24 2534   1.349   7.552   6.549 -0.2803 -0.9873  0.6580
    6MOL    H25 2535   1.323   7.344   6.681 -1.8637 -2.4969 -0.5995
    6MOL    H26 2536   1.322   6.844   6.751 -1.6864  3.2407  1.5503
    6MOL    C27 2537   1.037   6.875   6.833  0.1954  0.1353  0.3665
    6MOL    C28 2538   1.075   6.843   6.985 -0.4069 -0.0027  0.3317
    6MOL    C29 2539   1.055   6.974   7.066 -0.2384 -0.3192  0.3012
    6MOL    C30 2540   1.225   6.805   6.993  0.2352  0.1670 -0.1510
    6MOL    O31 2541   1.266   6.708   6.926  0.1426  0.5467  0.2556
    6MOL    O32 2542   1.302   6.877   7.089  1.0593 -0.0118  0.7881
    6MOL    C33 2543   1.447   6.853   7.093 -0.4041 -0.4830 -0.2241
    6MOL    C34 2544   1.474   6.747   7.196 -0.4850 -0.1685  0.1466
    6MOL    C35 2545   1.549   6.633   7.147 -0.6475  0.3054  0.1092
    6MOL    C36 2546   1.566   6.522   7.226  0.5482  0.2890  0.6845
    6MOL    C37 2547   1.514   6.517   7.357 -0.5033 -0.2920  0.2213
    6MOL    C38 2548   1.446   6.632   7.405  0.2308 -0.1151 -0.0760
    6MOL    C39 2549   1.419   6.747   7.325 -0.2219  0.5826 -0.3814
    6MOL    H40 2550   1.011   6.778   6.792  2.8021 -0.3133 -0.2892
    6MOL    H41 2551   0.939   6.923   6.821  0.2359  0.1461  0.0726
    6MOL    H42 2552   1.135   7.048   7.052 -0.5250 -0.0215  0.2404
    6MOL    H43 2553   1.057   6.950   7.172 -0.3695 -0.9985  0.1497
    6MOL    H44 2554   0.959   7.017   7.039  0.5221  0.2137 -1.6354
    6MOL    H45 2555   1.489   6.836   6.993  0.2647 -0.3187  0.0290
    6MOL    H46 2556   1.504   6.938   7.131 -0.0888 -0.9952  0.4627
    6MOL    H47 2557   1.592   6.635   7.048 -1.6699  2.2333 -0.3030
    6MOL    H48 2558   1.623   6.438   7.187  0.6885  0.7133 -0.0379
    6MOL    H49 2559   1.534   6.436   7.425 -0.7780  0.1124  0.7911
    6MOL    H50 2560   1.408   6.624   7.506 -0.6565  0.0389 -0.3952
    6MOL    H51 2561   1.374   6.834   7.369 -1.1209 -0.6768  1.2338
    6MOL    C52 2562   0.981   6.725   7.039 -0.1277 -0.2022  0.4522
    6MOL    C53 2563   0.958   6.675   7.189  0.5234 -0.2230 -0.2921
    6MOL    C54 2564   1.101   6.654   7.257  0.5903  0.5130  0.1821
    6MOL    C55 2565   0.899   6.534   7.184  0.6588  0.0211  0.0540
    6MOL    O56 2566   0.931   6.448   7.261 -0.1808 -0.1384 -0.0878
    6MOL    O57 2567   0.810   6.518   7.086  0.6714 -0.4901 -0.5682
    6MOL    C58 2568   0.739   6.400   7.074 -0.0156  1.6365  0.4305
    6MOL    C59 2569   0.810   6.298   6.982  0.4325  0.2978 -1.0000
    6MOL    C60 2570   0.806   6.310   6.842  0.6232 -0.7354 -0.5205
    6MOL    C61 2571   0.866   6.211   6.766 -0.1680 -0.0834 -0.5993
    6MOL    C62 2572   0.928   6.103   6.825  0.2514  0.1994  0.4170
    6MOL    C63 2573   0.925   6.086   6.962 -0.3836  0.1587 -0.3686
    6MOL    C64 2574   0.872   6.187   7.042 -0.2070  0.7149  0.5765
    6MOL    H65 2575   1.005   6.634   6.984  0.3607  0.1857  0.0146
    6MOL    H66 2576   0.879   6.750   7.011 -0.0645  0.5286  0.8795
    6MOL    H67 2577   1.176   6.591   7.210  0.8532 -0.1058  1.4167
    6MOL    H68 2578   1.097   6.623   7.362  1.8991  1.5320  0.5499
    6MOL    H69 2579   1.153   6.749   7.266  1.0348  0.3533 -0.7435
    6MOL    H70 2580   0.698   6.360   7.167 -2.7542  0.4976 -1.2091
    6MOL    H71 2581   0.647   6.427   7.023 -1.8105  0.4771  2.9551
    6MOL    H72 2582   0.746   6.387   6.796  1.3178  1.0331  1.4612
    6MOL    H73 2583   0.848   6.204   6.660  0.9213 -1.2029 -0.7237
    6MOL    H74 2584   0.984   6.034   6.763 -0.1764 -0.3531  0.6438
    6MOL    H75 2585   0.975   5.999   7.002  0.0803  1.4579  1.9366
    6MOL    H76 2586   0.883   6.177   7.149 -1.4217  1.5433  0.7986
    6MOL    C77 2587   0.854   6.766   7.270 -0.1468  0.5268 -0.2222
    6MOL    C78 2588   0.848   6.781   7.427  0.4347 -0.3335  0.0018
    6MOL    C79 2589   0.741   6.896   7.448  0.4571 -0.3838  0.6310
    6MOL    C80 2590   0.977   6.847   7.485 -0.8774 -0.3955 -0.0745
    6MOL    O81 2591   1.041   6.809   7.580  0.5808  0.4690  0.1485
    6MOL    O82 2592   1.009   6.960   7.418 -0.3500 -0.2904 -0.4793
    6MOL    C83 2593   1.129   7.034   7.451 -0.4910  1.0415  0.4895
    6MOL    C84 2594   1.140   7.156   7.362 -0.0958 -0.2101  0.2658
    6MOL    C85 2595   1.022   7.229   7.336 -0.2099  0.2153 -0.5266
    6MOL    C86 2596   1.026   7.346   7.256 -0.7031 -0.2860 -0.3710
    6MOL    C87 2597   1.147   7.382   7.199  0.4729  0.4085 -0.2551
    6MOL    C88 2598   1.263   7.305   7.219 -0.6900 -0.2861 -0.0111
    6MOL    C89 2599   1.257   7.195   7.297 -0.0588 -0.8083  0.0312
    6MOL    H90 2600   0.758   6.733   7.229 -0.0189  1.7351 -1.5298
    6MOL    H91 2601   0.861   6.866   7.226 -1.6510  0.4301 -0.7103
    6MOL    H92 2602   0.767   6.983   7.389 -1.0858 -0.8842 -0.7932
    6MOL    H93 2603   0.748   6.940   7.548  0.2788 -0.8113  0.8336
    6MOL    H94 2604   0.638   6.871   7.424  0.2661  2.5370 -1.7681
    6MOL    H95 2605   1.143   7.071   7.553 -0.9471  0.9411  0.5923
    6MOL    H96 2606   1.208   6.963   7.428 -0.5921  1.4069 -1.0473
    6MOL    H97 2607   0.930   7.186   7.373 -0.1739  0.1547 -0.5083
    6MOL    H98 2608   0.936   7.402   7.238 -1.4104 -0.1862  3.1149
    6MOL    H99 2609   1.155   7.467   7.132  0.7562  0.1240 -0.5841
    6MOL   H100 2610   1.357   7.330   7.173 -0.9190 -1.6959 -1.2981
    6MOL   H101 2611   1.349   7.139   7.302  1.8952  2.2800  0.0927
    6MOL   C102 2612   0.815   6.643   7.512  0.7307  0.4888  0.0771
    6MOL   C103 2613   0.675   6.588   7.542  0.2759 -0.3643 -0.4133
    6MOL   C104 2614   0.592   6.582   7.408  0.2929  0.1490  0.2786
    6MOL   C105 2615   0.591   6.673   7.637  0.0985 -0.4291  0.5492
    6MOL   O106 2616   0.640   6.776   7.678  0.1896  0.0030  0.0145
    6MOL   O107 2617   0.473   6.633   7.659 -0.0108  0.2383  0.3481
    6MOL   C108 2618   0.390   6.693   7.761  0.0721 -0.8934 -0.7351
    6MOL   C109 2619   0.335   6.833   7.721 -0.2845  0.4232 -0.2582
    6MOL   C110 2620   0.398   6.955   7.762  0.2748 -0.0837  0.2126
    6MOL   C111 2621   0.334   7.077   7.735 -0.6824  0.1073  0.5443
    6MOL   C112 2622   0.221   7.079   7.650  0.1301 -0.2279  0.5186
    6MOL   C113 2623   0.158   6.966   7.598 -0.2390  0.4629  0.0535
    6MOL   C114 2624   0.219   6.839   7.641  0.8229 -0.5996 -0.3482
    6MOL   H115 2625   0.858   6.666   7.610 -0.8726 -1.9413  1.4084
    6MOL   H116 2626   0.874   6.560   7.473 -0.7410  0.1946 -1.5405
    6MOL   H117 2627   0.554   6.676   7.369 -1.2648 -0.3435  0.5796
    6MOL   H118 2628   0.504   6.520   7.419  1.4584 -1.6679 -0.3524
    6MOL   H119 2629   0.651   6.539   7.327  1.6562  0.5387  1.0290
    6MOL   H120 2630   0.307   6.623   7.768 -0.0619 -0.5395  1.8442
    6MOL   H121 2631   0.438   6.701   7.859 -1.1611 -1.8669 -0.0306
    6MOL   H122 2632   0.490   6.961   7.818  0.6958  0.7522 -0.5520
    6MOL   H123 2633   0.380   7.168   7.770 -2.2212  0.9445  0.4324
    6MOL   H124 2634   0.175   7.174   7.631 -0.7443 -0.7594 -0.0412
    6MOL   H125 2635   0.071   6.967   7.536 -0.5950 -0.1869  0.5270
    6MOL   H126 2636   0.175   6.746   7.611 -1.0697  0.2924 -0.4289
    6MOL   C127 2637   0.676   6.441   7.595  0.0488 -0.1993 -0.1576
    6MOL   C128 2638   0.741   6.393   7.732 -0.4540 -0.5200 -0.1222
    6MOL   C129 2639   0.641   6.435   7.846 -0.4291  0.2963 -0.4161
    6MOL   C130 2640   0.884   6.449   7.749 -0.4291  0.7008  0.4766
    6MOL   O131 2641   0.908   6.525   7.840 -0.4260 -0.6141 -0.0291
    6MOL   O132 2642   0.985   6.396   7.667  0.4629 -0.0588 -0.3720
    6MOL   C133 2643   1.122   6.414   7.705  0.2544  0.0554 -0.7870
    6MOL   C134 2644   1.221   6.303   7.655 -0.8125 -0.8389  0.3823
    6MOL   C135 2645   1.226   6.180   7.720  0.6885  0.2991 -0.2914
    6MOL   C136 2646   1.304   6.082   7.663 -0.1212 -0.3897 -0.3628
    6MOL   C137 2647   1.367   6.097   7.538  0.2778 -0.1454 -0.2978
    6MOL   C138 2648   1.338   6.210   7.464 -0.1054 -0.0220 -0.3346
    6MOL   C139 2649   1.278   6.319   7.525 -0.6114  0.1988 -0.4313
    6MOL   H140 2650   0.729   6.394   7.512  1.4403  0.4357  0.3552
    6MOL   H141 2651   0.578   6.393   7.601  0.6900 -1.7386 -1.4939
    6MOL   H142 2652   0.692   6.400   7.936  0.0680  0.9291 -0.4494
    6MOL   H143 2653   0.539   6.396   7.846 -0.4920  0.3294  2.4105
    6MOL   H144 2654   0.642   6.543   7.862  2.0672 -0.0109  1.9381
    6MOL   H145 2655   1.168   6.511   7.684  1.2395 -0.4513 -0.9781
    6MOL   H146 2656   1.130   6.422   7.813  0.7863 -1.6998 -0.6868
    6MOL   H147 2657   1.178   6.165   7.816 -1.6082  0.5214 -1.3707
    6MOL   H148 2658   1.323   5.991   7.718 -0.6114 -0.9214 -1.0682
    6MOL   H149 2659   1.438   6.026   7.498 -0.0605 -1.4693  1.3892
    6MOL   H150 2660   1.378   6.233   7.367 -0.8625 -1.5092 -1.0044
    6MOL   H151 2661   1.246   6.408   7.472 -2.2125  0.7070  1.3293
    6MOL   C152 2662   0.752   6.236   7.715 -0.3518  0.1144 -0.5222
    6MOL   C153 2663   0.759   6.134   7.837 -0.0842  0.0706 -0.2499
    6MOL   C154 2664   0.618   6.101   7.895 -0.2324 -0.5455  0.4993
    6MOL   C155 2665   0.853   6.188   7.949 -0.5958  0.1241  0.5467
    6MOL   O156 2666   0.968   6.222   7.918 -0.3612 -0.1261 -0.9588
    6MOL   O157 2667   0.811   6.172   0.066 -0.0939  1.0949  0.3531
    6MOL   C158 2668   0.883   6.220   0.174  0.3011 -0.1997  0.0028
    6MOL   C159 2669   0.819   6.335   0.247 -0.3668 -0.1012 -0.2357
    6MOL   C160 2670   0.822   6.463   0.185  0.3940 -0.0005 -0.0402
    6MOL   C161 2671   0.770   6.573   0.253 -0.0284 -0.8086 -0.1490
    6MOL   C162 2672   0.704   6.564   0.378 -0.7555 -0.3615  0.4043
    6MOL   C163 2673   0.702   6.434   0.441 -0.3185  0.1271  0.1842
    6MOL   C164 2674   0.759   6.316   0.378  0.6101 -0.2068 -0.0854
    6MOL   H165 2675   0.838   6.218   7.650 -0.0350 -0.4087  0.0322
    6MOL   H166 2676   0.667   6.207   7.654 -0.4949  2.1624 -1.3140
    6MOL   H167 2677   0.559   6.049   7.819 -0.3468  1.6586 -0.9423
    6MOL   H168 2678   0.563   6.193   7.917  0.4807  0.6870 -2.7274
    6MOL   H169 2679   0.631   6.034   7.980  1.0084 -0.1934  0.5961
    6MOL   H170 2680   0.897   6.136   0.242  1.2922 -1.1951 -1.3763
    6MOL   H171 2681   0.985   6.241   0.141 -0.1776  2.2359  0.0089
    6MOL   H172 2682   0.867   6.474   0.088  0.9632  0.7227  0.2979
    6MOL   H173 2683   0.775   6.662   0.193  3.3127  0.0199  1.2433
    6MOL   H174 2684   0.667   6.658   0.417 -1.0267  0.4107 -1.6759
    6MOL   H175 2685   0.673   6.410   0.542  1.7488 -0.9757  0.5468
    6MOL   H176 2686   0.758   6.220   0.429 -2.4132 -0.7334 -1.0389
    6MOL   C177 2687   0.831   6.015   7.771 -0.1963 -0.3645 -0.3555
    6MOL   C178 2688   0.840   5.867   7.830  0.3501 -0.1759  0.4298
    6MOL   C179 2689   0.701   5.808   7.830  0.4021  0.0547 -0.0737
    6MOL   C180 2690   0.904   5.871   7.975 -0.3682  0.2926  0.3187
    6MOL   O181 2691   1.019   5.913   7.987  0.4428  0.0744  0.3383
    6MOL   O182 2692   0.827   5.831   0.069 -0.3170  0.0318  0.4977
    6MOL   C183 2693   0.878   5.822   0.197 -0.5252 -1.0399 -0.6336
    6MOL   C184 2694   0.767   5.815   0.298 -0.4828 -0.2765  0.2161
    6MOL   C185 2695   0.787   5.858   0.431  0.1220  0.5308  0.0327
    6MOL   C186 2696   0.682   5.861   0.522 -0.4270  0.8728  0.2523
    6MOL   C187 2697   0.552   5.826   0.482 -0.1221  0.0685  0.2800
    6MOL   C188 2698   0.529   5.776   0.352 -0.4005 -0.2264 -0.1506
    6MOL   C189 2699   0.638   5.766   0.259  0.0220 -0.2708 -1.0709
    6MOL   H190 2700   0.934   6.045   7.755 -0.3339  0.3232  0.0364
    6MOL   H191 2701   0.780   6.003   7.676 -2.5923 -1.4768  1.0048
    6MOL   H192 2702   0.636   5.859   7.901  2.3892 -0.3402  2.0923
    6MOL   H193 2703   0.704   5.705   7.865  0.3321  0.0650 -0.0367
    6MOL   H194 2704   0.660   5.826   7.730  0.2379  1.4528  0.2433
    6MOL   H195 2705   0.951   5.742   0.205 -1.3993 -1.8413 -0.4893
    6MOL   H196 2706   0.933   5.914   0.215 -0.6206 -1.4454  1.8728
    6MOL   H197 2707   0.878   5.889   0.479 -0.0746 -1.6746  1.9629
    6MOL   H198 2708   0.686   5.899   0.622  0.0506  1.0563  0.1654
    6MOL   H199 2709   0.479   5.829   0.561 -0.6112 -0.9013 -0.1341
    6MOL   H200 2710   0.428   5.751   0.322  0.1073 -2.8944  0.1976
    6MOL   H201 2711   0.622   5.733   0.157 -1.6418 -0.1265 -0.8667
    6MOL   C202 2712   0.934   5.797   7.729 -0.2691  0.3776  0.9188
    6MOL   C203 2713   0.945   5.638   7.718 -0.0745 -0.0872 -0.0006
    6MOL   C204 2714   0.830   5.587   7.623 -0.1450 -0.2577  0.3928
    6MOL   C205 2715   0.934   5.563   7.855 -0.1706 -0.4352  0.0730
    6MOL   O206 2716   1.010   5.592   7.949  0.2154  0.7803 -0.4265
    6MOL   O207 2717   0.848   5.463   7.849  0.0959 -0.4461  0.0080
    6MOL   C208 2718   0.851   5.372   7.954  0.3273  0.3240  0.5804
    6MOL   C209 2719   0.771   5.250   7.921 -0.6718 -0.2445  0.1881
    6MOL   C210 2720   0.639   5.269   7.887 -0.2508 -0.1209  0.0003
    6MOL   C211 2721   0.554   5.161   7.855  0.1841  0.1974 -1.1582
    6MOL   C212 2722   0.609   5.036   7.848  0.2810  0.0837  0.4535
    6MOL   C213 2723   0.743   5.012   7.881  0.2646 -0.7681  0.3383
    6MOL   C214 2724   0.823   5.119   7.926 -0.1973 -0.3121 -0.0239
    6MOL   H215 2725   1.033   5.839   7.747 -0.2491  0.8525 -0.2465
    6MOL   H216 2726   0.919   5.836   7.629 -0.1786  0.4683  0.9411
    6MOL   H217 2727   0.732   5.623   7.652 -0.8176 -2.5375  1.1130
    6MOL   H218 2728   0.821   5.478   7.619 -0.2643 -0.2702  0.9936
    6MOL   H219 2729   0.849   5.611   7.519  1.2151 -0.1845  0.6416
    6MOL   H220 2730   0.953   5.341   7.976  1.2287  1.8188 -1.3093
    6MOL   H221 2731   0.816   5.426   0.035 -1.8880  0.0293 -0.0819
    6MOL   H222 2732   0.600   5.369   7.891  2.7021  1.1006 -0.3736
    6MOL   H223 2733   0.447   5.170   7.841 -0.0534 -0.5267  0.0740
    6MOL   H224 2734   0.545   4.955   7.817  0.1644  1.4139 -2.9855
    6MOL   H225 2735   0.783   4.911   7.882 -0.7291 -1.2055 -1.7970
    6MOL   H226 2736   0.921   5.108   7.968 -0.2859  1.0717  0.5671
    6MOL   C227 2737   1.082   5.619   7.654 -0.3780 -0.0773 -0.0268
    6MOL   C228 2738   1.151   5.477   7.631 -0.7701  0.5827 -0.0984
    6MOL   C229 2739   1.055   5.369   7.578 -0.3214 -0.9259 -0.1633
    6MOL   C230 2740   1.222   5.434   7.768  0.2976  0.5522  0.2044
    6MOL   O231 2741   1.179   5.337   7.826 -0.0299 -0.0716  0.1221
    6MOL   O232 2742   1.322   5.508   7.809  0.0393  0.4763 -0.3688
    6MOL   C233 2743   1.385   5.476   7.936 -0.7992  0.0940 -0.2357
    6MOL   C234 2744   1.535   5.509   7.950  0.4329  0.2631  0.2284
    6MOL   C235 2745   1.590   5.529   0.072  0.4924  0.5248 -0.1332
    6MOL   C236 2746   1.734   5.532   0.096 -0.7887 -0.4069  0.2689
    6MOL   C237 2747   1.818   5.540   7.986  0.1916 -0.5669  0.3530
    6MOL   C238 2748   1.765   5.514   7.856  0.4186  0.0521  0.0551
    6MOL   C239 2749   1.623   5.493   7.841 -0.1999  0.7061  0.1923
    6MOL   H240 2750   1.151   5.667   7.724  1.9154 -2.6893 -0.4109
    6MOL   H241 2751   1.092   5.670   7.558  0.0277 -0.8018 -0.3765
    6MOL   H242 2752   0.976   5.358   7.652 -1.0966 -0.8285 -0.9814
    6MOL   H243 2753   1.124   5.285   7.567  1.0993  0.0731  0.8297
    6MOL   H244 2754   1.012   5.397   7.482 -0.7518  0.8947  0.5296
    6MOL   H245 2755   1.341   5.530   0.013 -1.7309 -0.0364 -0.6249
    6MOL   H246 2756   1.381   5.368   7.950  2.0460 -0.2864 -2.0616
    6MOL   H247 2757   1.527   5.529   0.159  2.0526 -1.8007  1.0315
    6MOL   H248 2758   1.778   5.553   0.192 -0.9485  1.6453 -0.0857
    6MOL   H249 2759   1.926   5.548   7.987  0.1488  1.0886 -2.4761
    6MOL   H250 2760   1.825   5.497   7.768 -0.0840  0.4245 -0.3656
    6MOL   H251 2761   1.575   5.457   7.752 -0.9543  1.1223  0.4290
    6MOL   C252 2762   1.264   5.507   7.528  0.2286 -0.7569 -0.1481
    6MOL   C253 2763   1.365   5.404   7.450  0.7012 -0.1340  0.9868
    6MOL   C254 2764   1.290   5.367   7.307  0.4067  0.0465 -0.3393
    6MOL   C255 2765   1.381   5.266   7.527  0.7103 -0.3666  0.3650
    6MOL   O256 2766   1.324   5.160   7.495 -0.0642 -0.3668  0.7187
    6MOL   O257 2767   1.447   5.279   7.636 -0.7463  0.0362 -0.2155
    6MOL   C258 2768   1.492   5.164   7.715 -0.1574 -0.2442  0.0338
    6MOL   C259 2769   1.627   5.103   7.667  0.3818  0.2592  0.1514
    6MOL   C260 2770   1.749   5.140   7.723 -0.7157  0.7323  0.2889
    6MOL   C261 2771   1.875   5.088   7.689  0.9027 -0.2874 -0.6938
    6MOL   C262 2772   1.884   4.987   7.590 -0.4858  0.6704 -0.4087
    6MOL   C263 2773   1.763   4.948   7.531 -0.9400  0.3650 -0.1949
    6MOL   C264 2774   1.642   5.008   7.561 -0.0492  0.1139 -0.3873
    6MOL   H265 2775   1.327   5.579   7.579 -2.0597  0.8572  0.4346
    6MOL   H266 2776   1.228   5.565   7.443 -0.6936 -0.8199  0.1969
    6MOL   H267 2777   1.363   5.309   7.249 -0.9583 -0.5000 -1.5352
    6MOL   H268 2778   1.249   5.449   7.248 -0.2969  0.9230  1.3379
    6MOL   H269 2779   1.203   5.304   7.327  0.3080 -0.2697 -1.6882
    6MOL   H270 2780   1.502   5.186   7.822 -1.8148  0.0497  0.1440
    6MOL   H271 2781   1.412   5.090   7.713 -0.2087 -0.1918  0.0973
    6MOL   H272 2782   1.752   5.213   7.803  0.1135  1.4147 -0.3528
    6MOL   H273 2783   1.958   5.120   7.749 -0.9423 -1.3697  2.5342
    6MOL   H274 2784   1.978   4.943   7.561 -1.2828 -0.0569 -1.9804
    6MOL   H275 2785   1.767   4.875   7.451 -0.5057  1.5661 -1.2912
    6MOL   H276 2786   1.549   4.972   7.521 -0.2647  0.1137  0.1088
    6MOL   C277 2787   1.511   5.462   7.440 -0.2516  0.8345  0.3858
    6MOL   C278 2788   1.542   5.561   7.327  0.3964  0.2548 -0.2109
    6MOL   C279 2789   1.443   5.675   7.324  0.2907 -0.0665 -0.3218
    6MOL   C280 2790   1.544   5.492   7.188  0.4708 -0.0779 -0.0855
    6MOL   O281 2791   1.486   5.549   7.094  0.9491 -0.2504 -0.1636
    6MOL   O282 2792   1.614   5.375   7.181 -0.0891 -0.0045 -0.0714
    6MOL   C283 2793   1.611   5.301   7.063  0.4758 -0.0591  0.1752
    6MOL   C284 2794   1.545   5.162   7.096  0.3785 -0.1635  0.1111
    6MOL   C285 2795   1.573   5.094   7.216  0.5171 -0.0421 -0.5776
    6MOL   C286 2796   1.515   4.968   7.245 -0.2915 -0.1945  0.0551
    6MOL   C287 2797   1.429   4.913   7.147 -0.0213  0.2493 -0.1799
    6MOL   C288 2798   1.406   4.973   7.027 -0.6953  0.8215 -0.2588
    6MOL   C289 2799   1.453   5.102   7.008 -0.5780  0.4428  0.2090
    6MOL   H290 2800   1.585   5.384   7.429  0.7814  1.6212  1.6153
    6MOL   H291 2801   1.534   5.513   7.534  1.2652  0.7296  0.0809
    6MOL   H292 2802   1.423   5.730   7.416  0.7513 -0.2115 -0.1315
    6MOL   H293 2803   1.344   5.633   7.308 -0.2039  0.0261  2.1760
    6MOL   H294 2804   1.461   5.739   7.238  0.6078 -0.6504 -0.6997
    6MOL   H295 2805   1.566   5.342   6.973 -0.8897  1.2000  1.4020
    6MOL   H296 2806   1.716   5.281   7.039  0.7201  0.5103  0.7179
    6MOL   H297 2807   1.646   5.133   7.285  0.4349  2.2893 -1.7618
    6MOL   H298 2808   1.534   4.903   7.329  0.5579 -0.3910 -0.2823
    6MOL   H299 2809   1.373   4.822   7.159  2.0075 -0.8450  1.5376
    6MOL   H300 2810   1.332   4.934   6.958  0.8915  0.6091 -1.8596
    6MOL   H301 2811   1.409   5.159   6.927 -2.4567 -1.1302  0.0750
    6MOL   C302 2812   1.688   5.608   7.368  0.0953  0.1884 -0.2445
    6MOL   C303 2813   1.768   5.724   7.298 -0.9293  0.3322  0.8171
    6MOL   C304 2814   1.758   5.707   7.140 -0.0308  0.0715  0.1353
    6MOL   C305 2815   1.916   5.706   7.345 -0.0723  0.0377  0.3685
    6MOL   O306 2816   2.010   5.674   7.269  0.1022  0.3432 -0.2727
    6MOL   O307 2817   1.925   5.721   7.484  0.7399 -0.6738 -0.7583
    6MOL   C308 2818   2.043   5.719   7.551 -0.0178 -0.1772 -1.2255
    6MOL   C309 2819   2.075   5.584   7.611  0.0433  0.4054 -0.4805
    6MOL   C310 2820   2.089   5.472   7.529 -0.7175 -0.0927 -0.4946
    6MOL   C311 2821   2.125   5.347   7.591 -0.1120  0.8919  0.1995
    6MOL   C312 2822   2.146   5.340   7.729 -0.2640 -0.1159 -0.1043
    6MOL   C313 2823   2.123   5.447   7.812  0.6564 -0.1552 -0.6161
    6MOL   C314 2824   2.098   5.571   7.749  0.2347 -0.3605  0.4448
    6MOL   H315 2825   1.748   5.518   7.356 -1.3192 -0.8484  0.2882
    6MOL   H316 2826   1.677   5.631   7.474  0.9830  1.7706 -0.4717
    6MOL   H317 2827   1.663   5.733   7.094  0.3946  0.5883 -0.4617
    6MOL   H318 2828   1.793   5.610   7.103 -1.6971 -0.1663 -0.8735
    6MOL   H319 2829   1.827   5.778   7.095  0.1253  0.0851  0.3992
    6MOL   H320 2830   2.128   5.745   7.489  0.4499  2.9047  0.6088
    6MOL   H321 2831   2.035   5.798   7.626  0.8457 -2.5704  1.4790
    6MOL   H322 2832   2.095   5.479   7.421 -0.2849  0.3866 -0.4443
    6MOL   H323 2833   2.139   5.258   7.532 -1.2313  0.9988 -0.2346
    6MOL   H324 2834   2.181   5.246   7.769 -2.8857 -1.8134 -1.5807
    6MOL   H325 2835   2.136   5.426   7.918  0.9125 -0.3767 -0.6909
    6MOL   H326 2836   2.073   5.655   7.812 -1.0883 -1.3560  1.2796
    6MOL   C327 2837   1.709   5.867   7.348  0.2155  0.4305 -0.1681
    6MOL   C328 2838   1.764   6.012   7.296 -0.4295 -0.5086 -0.1165
    6MOL   C329 2839   1.684   6.117   7.384  0.2777 -0.4666 -0.1728
    6MOL   C330 2840   1.727   6.044   7.148 -0.6812  1.1534  0.7589
    6MOL   O331 2841   1.813   6.085   7.069 -0.2185  0.1428 -0.4252
    6MOL   O332 2842   1.596   6.023   7.117 -0.7207  0.5257  0.1135
    6MOL   C333 2843   1.544   6.058   6.995  0.3423 -0.5855  0.1716
    6MOL   C334 2844   1.450   6.179   7.005  0.4313 -0.4103 -0.2937
    6MOL   C335 2845   1.471   6.278   6.909  0.6061  0.0852  0.5049
    6MOL   C336 2846   1.375   6.378   6.899  0.0254 -0.3066  0.1041
    6MOL   C337 2847   1.271   6.392   6.997 -0.3548  0.4889 -0.5840
    6MOL   C338 2848   1.254   6.288   7.091  0.5390 -0.3606 -0.5227
    6MOL   C339 2849   1.341   6.174   7.091  0.4342 -0.0452 -0.2853
    6MOL   H340 2850   1.729   5.863   7.455  1.8032  1.0841 -0.4212
    6MOL   H341 2851   1.604   5.867   7.321 -0.1818  1.3326  1.3194
    6MOL   H342 2852   1.712   6.220   7.361  1.4949 -1.0475 -1.4139
    6MOL   H343 2853   1.676   6.101   7.491  1.0637  2.1142  0.3081
    6MOL   H344 2854   1.578   6.113   7.360 -0.0934  0.2091  1.2847
    6MOL   H345 2855   1.616   6.069   6.913 -1.1089  1.5309 -0.8638
    6MOL   H346 2856   1.473   5.979   6.969  0.2293  0.2010 -2.0193
    6MOL   H347 2857   1.556   6.276   6.843 -0.2359 -3.4540 -0.5404
    6MOL   H348 2858   1.383   6.460   6.830 -1.7079  0.5846  0.9205
    6MOL   H349 2859   1.214   6.483   7.006  1.1958  1.2628  1.6964
    6MOL   H350 2860   1.170   6.285   7.158  0.4626 -0.9842 -0.6384
    6MOL   H351 2861   1.330   6.099   7.167  0.4720 -0.2484 -0.4798
    6MOL   C352 2862   1.915   6.012   7.322  0.3681  0.0451  0.3125
    6MOL   C353 2863   2.009   6.145   7.362  0.7022  0.3313  1.1531
    6MOL   C354 2864   2.156   6.093   7.353  0.0127  0.3475  0.0787
    6MOL   C355 2865   1.969   6.182   7.506  0.1584 -0.5983  0.5310
    6MOL   O356 2866   1.894   6.277   7.526  0.4093 -0.6332 -0.0222
    6MOL   O357 2867   2.021   6.108   7.615 -0.4762  0.1076 -0.1914
    6MOL   C358 2868   1.996   6.143   7.759 -0.2403 -0.2745 -0.3113
    6MOL   C359 2869   1.906   6.036   7.829  0.1483 -0.0256 -0.1812
    6MOL   C360 2870   1.804   5.972   7.761  0.3262  0.5229  0.1970
    6MOL   C361 2871   1.702   5.906   7.833 -0.2787  0.0585 -0.4878
    6MOL   C362 2872   1.724   5.885   7.969  0.3321 -0.4092  0.3191
    6MOL   C363 2873   1.829   5.944   0.040  0.7205  0.0801  0.4519
    6MOL   C364 2874   1.920   6.012   7.966 -0.1340 -0.6224 -0.3305
    6MOL   H365 2875   1.973   5.969   7.240  0.3431 -0.4811  0.5704
    6MOL   H366 2876   1.939   5.949   7.408 -0.2942  0.9175  1.1489
    6MOL   H367 2877   2.194   6.062   7.256  0.3515  0.2944  0.2277
    6MOL   H368 2878   2.179   6.010   7.419  0.1251  0.3340  0.0214
    6MOL   H369 2879   2.220   6.170   7.396 -0.2718  0.0389  1.0704
    6MOL   H370 2880   2.092   6.140   7.810  0.4194 -1.5672 -1.5785
    6MOL   H371 2881   1.946   6.239   7.772  0.8337  0.0870  1.3999
    6MOL   H372 2882   1.789   5.995   7.657 -2.4222  2.4537  0.9689
    6MOL   H373 2883   1.625   5.856   7.776  0.9533 -2.3847 -0.0704
    6MOL   H374 2884   1.659   5.815   0.011 -1.7804  0.1774 -1.5688
    6MOL   H375 2885   1.844   5.934   0.146 -1.2201  0.7285  0.8005
    6MOL   H376 2886   1.998   6.054   0.022 -1.9776  0.8727  1.0202
    6MOL   C377 2887   2.002   6.272   7.264  0.3338 -0.1168 -0.6197
    6MOL   C378 2888   2.094   6.401   7.254  0.6688  0.4656 -0.6336
    6MOL   C379 2889   2.238   6.364   7.199  0.0494  0.6910 -0.5936
    6MOL   C380 2890   2.125   6.461   7.397 -0.5090 -0.2757 -0.5748
    6MOL   O381 2891   2.232   6.442   7.457  0.4040 -1.0639  0.2530
    6MOL   O382 2892   2.017   6.535   7.440 -0.3811  0.3856  0.1517
    6MOL   C383 2893   2.026   6.593   7.574 -0.0014 -0.4444 -0.2599
    6MOL   C384 2894   1.957   6.722   7.574 -0.1754 -0.7966  0.2820
    6MOL   C385 2895   2.019   6.833   7.630 -0.3209  0.4288  0.4941
    6MOL   C386 2896   1.949   6.951   7.633  1.3044 -0.2645  0.0151
    6MOL   C387 2897   1.822   6.963   7.569  0.5738  0.6864  0.4650
    6MOL   C388 2898   1.759   6.850   7.513  0.0789 -0.4898  0.1392
    6MOL   C389 2899   1.829   6.729   7.512  1.0154  0.3133 -0.1833
    6MOL   H390 2900   1.895   6.294   7.261  0.7128  1.8543 -0.3575
    6MOL   H391 2901   2.035   6.223   7.172  2.1601  0.6347 -0.3959
    6MOL   H392 2902   2.309   6.446   7.190  1.2306 -0.4575 -2.0808
    6MOL   H393 2903   2.226   6.323   7.099 -3.1082  1.3419 -0.5377
    6MOL   H394 2904   2.290   6.295   7.266 -0.0105  0.1566 -1.0931
    6MOL   H395 2905   1.976   6.525   7.643  0.8997 -0.8298  0.0151
    6MOL   H396 2906   2.125   6.613   7.616 -0.0920 -1.3249  0.3801
    6MOL   H397 2907   2.119   6.833   7.673  0.2905 -1.0355 -0.8533
    6MOL   H398 2908   1.994   7.038   7.679  2.1786 -0.7342  0.0719
    6MOL   H399 2909   1.771   7.058   7.577  0.0551  0.5769 -1.1880
    6MOL   H400 2910   1.661   6.847   7.467  0.3186 -0.4282 -0.3896
    6MOL   H401 2911   1.781   6.637   7.480  1.4795 -0.0722  0.2227
    6MOL   C402 2912   2.012   6.501   7.161 -0.2762 -0.2952  0.6934
    6MOL   C403 2913   2.064   6.632   7.103  0.0202 -0.3987 -0.1846
    6MOL   C404 2914   2.164   6.605   6.992 -0.4509 -0.2108 -0.2291
    6MOL   C405 2915   2.126   6.730   7.215 -0.4954  0.3481  1.0465
    6MOL   O406 2916   2.066   6.813   7.281  0.0610  0.0260 -0.3269
    6MOL   O407 2917   2.256   6.711   7.226 -0.2257  0.1289 -0.0315
    6MOL   C408 2918   2.322   6.762   7.343 -0.0566  0.5335 -0.1112
    6MOL   C409 2919   2.473   6.755   7.332  0.0891  0.0374  0.0369
    6MOL   C410 2920   2.533   6.828   7.426 -0.5229 -0.0904 -0.1928
    6MOL   C411 2921   2.675   6.844   7.424  0.1757 -0.1353 -0.2217
    6MOL   C412 2922   2.746   6.764   7.332  0.4380 -0.4646 -0.1377
    6MOL   C413 2923   2.684   6.676   7.243 -0.7158  0.3521  0.0401
    6MOL   C414 2924   2.545   6.673   7.240 -0.3977  0.3441  0.1257
    6MOL   H415 2925   1.926   6.529   7.222 -0.2859 -1.2617  1.1484
    6MOL   H416 2926   1.966   6.440   7.083 -1.3240 -0.2143  1.2510
    6MOL   H417 2927   2.117   6.543   6.917  1.0447  0.0289 -1.3772
    6MOL   H418 2928   2.252   6.550   7.025 -1.0385 -1.3805 -0.6110
    6MOL   H419 2929   2.201   6.698   6.948 -1.7465  1.5396  2.1910
    6MOL   H420 2930   2.285   6.862   7.362  1.9591  0.9308  2.0604
    6MOL   H421 2931   2.301   6.701   7.431 -1.9624  0.6748 -0.4591
    6MOL   H422 2932   2.476   6.887   7.497 -1.3125 -1.1107  0.0229
    6MOL   H423 2933   2.729   6.911   7.489  0.3957  0.9371 -1.4849
    6MOL   H424 2934   2.854   6.761   7.327  0.4646  0.6399 -0.3464
    6MOL   H425 2935   2.741   6.609   7.180 -0.0234 -0.1968  1.2292
    6MOL   H426 2936   2.499   6.611   7.165 -0.7065  0.2541  0.3890
    6MOL   C427 2937   1.939   6.706   7.047 -0.2420  0.0875  0.7926
    6MOL   C428 2938   1.939   6.843   6.964 -0.4337 -0.4969  0.0748
    6MOL   C429 2939   1.811   6.918   6.994  0.3296 -0.3130 -0.2114
    6MOL   C430 2940   1.939   6.826   6.804  0.1399  0.1801  0.3330
    6MOL   O431 2941   1.894   6.908   6.731 -0.6942 -0.4022  0.3006
    6MOL   O432 2942   2.005   6.708   6.765 -0.4138 -0.8854  0.9471
    6MOL   C433 2943   2.038   6.690   6.627 -0.5432  0.4493  0.8002
    6MOL   C434 2944   2.137   6.577   6.612  0.2030  0.5732  0.3605
    6MOL   C435 2945   2.278   6.610   6.613  0.0740 -0.2898 -0.5544
    6MOL   C436 2946   2.367   6.508   6.577 -0.3229 -0.5094  0.5443
    6MOL   C437 2947   2.320   6.383   6.537  0.2661  0.2299  0.1047
    6MOL   C438 2948   2.180   6.356   6.529 -0.4818 -0.6938 -0.2211
    6MOL   C439 2949   2.090   6.453   6.559  0.9290 -0.4818 -0.6838
    6MOL   H440 2950   1.865   6.723   7.126 -1.0109  0.9762 -0.0982
    6MOL   H441 2951   1.890   6.633   6.983  2.9033  0.7951 -2.5698
    6MOL   H442 2952   1.794   7.011   6.939 -2.5263  0.0279  1.1701
    6MOL   H443 2953   1.793   6.940   7.099 -0.6189  0.1414 -0.4676
    6MOL   H444 2954   1.722   6.865   6.960 -0.1209 -1.5492  2.7392
    6MOL   H445 2955   1.940   6.668   6.585  0.1059 -0.9503 -0.0304
    6MOL   H446 2956   2.061   6.782   6.573 -0.0775  0.6987  1.4155
    6MOL   H447 2957   2.315   6.709   6.636  2.0618 -0.8887 -1.0580
    6MOL   H448 2958   2.474   6.521   6.577 -0.2771 -0.8791  0.6276
    6MOL   H449 2959   2.381   6.296   6.519 -0.4762 -0.5407  1.2209
    6MOL   H450 2960   2.143   6.258   6.502 -1.9973 -0.2605  0.2769
    6MOL   H451 2961   1.984   6.436   6.561  1.1663 -2.0795 -1.0258
    6MOL   C452 2962   2.054   6.947   7.007 -0.1608  0.1109 -1.0636
    6MOL   C453 2963   2.114   7.073   6.936  0.6327 -0.0103  0.6338
    6MOL   C454 2964   2.000   7.168   6.886  0.3912  0.4902 -1.1441
    6MOL   C455 2965   2.207   7.035   6.818 -0.0925  0.1491  0.2136
    6MOL   O456 2966   2.261   6.929   6.810  0.2715 -0.1018  0.3118
    6MOL   O457 2967   2.234   7.126   6.721  0.3062  0.8684 -0.3979
    6MOL   C458 2968   2.290   7.101   6.593  0.4701  0.3262  0.6347
    6MOL   C459 2969   2.175   7.099   6.489 -0.3370  0.3622 -0.5433
    6MOL   C460 2970   2.071   7.196   6.495  0.0531 -0.2798 -0.3674
    6MOL   C461 2971   1.970   7.199   6.395  0.5239 -0.0336  0.2237
    6MOL   C462 2972   1.976   7.109   6.288 -0.5848 -0.7514 -0.1908
    6MOL   C463 2973   2.088   7.022   6.273  0.2829 -0.1429 -0.6195
    6MOL   C464 2974   2.187   7.019   6.369  0.3399 -1.0186 -0.2170
    6MOL   H465 2975   2.145   6.901   7.046 -0.8790 -2.8092 -2.6588
    6MOL   H466 2976   2.005   6.988   7.096  2.0052 -0.7233  0.5672
    6MOL   H467 2977   2.050   7.250   6.836  1.5683  0.0994 -0.6412
    6MOL   H468 2978   1.946   7.211   6.970 -1.3560 -0.6208 -1.6737
    6MOL   H469 2979   1.924   7.130   6.818 -1.0426  1.0135  0.1350
    6MOL   H470 2980   2.365   7.175   6.567  0.4411  0.2177  0.2428
    6MOL   H471 2981   2.320   6.996   6.585  0.1835  0.1810  1.3693
    6MOL   H472 2982   2.059   7.263   6.579  0.3144  0.8996 -1.2616
    6MOL   H473 2983   1.889   7.270   6.404  0.1201 -0.5187  0.4614
    6MOL   H474 2984   1.900   7.106   6.212 -1.3407 -1.1363  0.5692
    6MOL   H475 2985   2.081   6.956   6.187  1.4125 -1.0933  0.0055
    6MOL   H476 2986   2.267   6.949   6.355  3.3620  2.4182 -0.6723
    6MOL   C477 2987   2.191   7.162   7.037 -0.1669  0.7908  0.0330
    6MOL   C478 2988   2.312   7.097   7.121  0.4030  0.0498 -0.6157
    6MOL   C479 2989   2.333   7.178   7.251 -0.2588  0.2111 -0.2127
    6MOL   C480 2990   2.446   7.099   7.039  0.5611  0.2494 -1.0529
    6MOL   O481 2991   2.460   7.172   6.938 -0.4701  0.1065 -0.7271
    6MOL   O482 2992   2.540   7.014   7.087 -0.0264  0.0724  0.2990
    6MOL   C483 2993   2.668   6.998   7.030  0.4754  0.1977 -0.0945
    6MOL   C484 2994   2.679   6.866   6.947  0.3597 -0.4619 -1.2179
    6MOL   C485 2995   2.561   6.786   6.920 -0.3768 -0.2714  0.0018
    6MOL   C486 2996   2.571   6.667   6.841 -0.4971 -0.5019 -0.2053
    6MOL   C487 2997   2.699   6.630   6.785 -0.3780 -0.0070 -0.4630
    6MOL   C488 2998   2.810   6.694   6.838  0.2302 -0.2696  0.3946
    6MOL   C489 2999   2.806   6.814   6.913  0.3842  0.0947 -0.3056
    6MOL   H490 3000   2.109   7.197   7.099  0.0061  2.3611 -0.5996
    6MOL   H491 3001   2.219   7.255   6.986  2.7567 -1.5695 -2.9168
    6MOL   H492 3002   2.418   7.129   7.298 -0.4449  0.5132  0.4434
    6MOL   H493 3003   2.246   7.176   7.318  0.4212 -1.7830  0.6521
    6MOL   H494 3004   2.360   7.279   7.221 -0.7992  0.8493  1.4202
    6MOL   H495 3005   2.698   7.088   6.977  1.6726  1.1459  2.1251
    6MOL   H496 3006   2.734   6.993   7.117 -0.1634 -2.3027  0.2915
    6MOL   H497 3007   2.465   6.822   6.955  0.4303  1.6228  0.3217
    6MOL   H498 3008   2.487   6.605   6.814  1.1849 -3.0703  0.2525
    6MOL   H499 3009   2.710   6.549   6.714 -0.5993  0.3966 -0.9634
    6MOL   H500 3010   2.900   6.650   6.800 -0.2801  0.0788 -1.2447
    6MOL   H501 3011   2.900   6.857   6.942  1.9929 -1.7972 -2.4951
    6MOL   H502 3012   2.285   6.998   7.158  2.0624 -0.1678  0.0836
    7MOL     C1 3013   3.831   0.569   0.461 -0.1626  0.1257 -0.5625
    7MOL     C2 3014   3.980   0.614   0.466  0.2830  0.3512  0.5538
    7MOL     C3 3015   3.993   0.702   0.589  0.1639  0.0981  0.1149
    7MOL     C4 3016   4.008   0.706   0.338 -0.2207  0.3864 -0.9027
    7MOL     O5 3017   4.121   0.708   0.290 -0.1076  0.6694  0.3641
    7MOL     O6 3018   3.907   0.778   0.297  0.2757 -0.2573 -0.0835
    7MOL     C7 3019   3.913   0.852   0.177 -0.2432  0.2877 -0.2400
    7MOL     C8 3020   3.840   0.786   0.058  0.5548 -0.4115  0.3649
    7MOL     C9 3021   3.914   0.707   7.980 -0.0854 -0.0060 -0.2391
    7MOL    C10 3022   3.841   0.642   7.881  0.0259 -0.0300 -0.4866
    7MOL    C11 3023   3.705   0.665   7.861  0.5926  0.0300 -0.9741
    7MOL    C12 3024   3.633   0.745   7.950  0.4202 -0.3018 -0.3236
    7MOL    C13 3025   3.701   0.810   0.046  0.1717  0.7441 -0.3142
    7MOL    H14 3026   3.800   0.512   0.549  2.5915 -1.0700 -0.3059
    7MOL    H15 3027   3.765   0.655   0.453 -0.1198  0.1884 -0.2500
    7MOL    H16 3028   4.097   0.735   0.600 -0.0066  0.7486 -0.1946
    7MOL    H17 3029   3.962   0.634   0.667 -0.1986  0.0871 -0.0405
    7MOL    H18 3030   3.918   0.780   0.585  0.2124  0.2226  1.5538
    7MOL    H19 3031   3.857   0.943   0.198  0.0702  0.1261  1.3582
    7MOL    H20 3032   4.016   0.870   0.145 -0.6222 -1.0050 -2.3157
    7MOL    H21 3033   4.019   0.692   7.997  0.4567  3.2950 -0.2109
    7MOL    H22 3034   3.896   0.580   7.811 -0.1789  0.1165 -0.7780
    7MOL    H23 3035   3.650   0.621   7.778 -0.2764  0.7002 -0.7656
    7MOL    H24 3036   3.526   0.756   7.935  0.5782  0.1275 -1.1946
    7MOL    H25 3037   3.641   0.873   0.109  0.1313  1.0592 -0.6697
    7MOL    H26 3038   3.807   0.499   0.380  2.4900 -0.6529 -0.7134
    7MOL    C27 3039   4.094   0.505   0.485  0.3537  0.5993  0.1782
    7MOL    C28 3040   4.105   0.378   0.390 -0.9230  0.0174  0.6900
    7MOL    C29 3041   4.098   0.412   0.241  0.2933  0.4876 -0.2663
    7MOL    C30 3042   3.995   0.268   0.432 -0.3435 -0.4128 -0.4343
    7MOL    O31 3043   3.919   0.275   0.533  0.0620  0.0710  0.1652
    7MOL    O32 3044   3.997   0.170   0.343 -0.0475 -0.2002 -0.3411
    7MOL    C33 3045   3.919   0.055   0.375 -0.0540  0.0667 -0.6104
    7MOL    C34 3046   4.003   7.936   0.366 -0.6242 -0.1189 -0.2980
    7MOL    C35 3047   4.144   7.944   0.348  0.5005  0.0384 -0.6150
    7MOL    C36 3048   4.218   7.825   0.370 -0.0869  0.0976  0.1178
    7MOL    C37 3049   4.152   7.697   0.392  0.2316 -0.2084  0.5342
    7MOL    C38 3050   4.013   7.694   0.404  0.1384 -0.6125  0.3068
    7MOL    C39 3051   3.937   7.814   0.394  0.2057  0.1716  0.4445
    7MOL    H40 3052   4.101   0.483   0.592  1.7467  2.1187  0.4181
    7MOL    H41 3053   4.184   0.564   0.473  1.6392 -1.0623  1.4580
    7MOL    H42 3054   4.000   0.448   0.209 -0.0520  0.9565  1.3193
    7MOL    H43 3055   4.112   0.327   0.174 -0.1581  0.6449 -0.5635
    7MOL    H44 3056   4.179   0.480   0.212 -0.9935  1.0923 -2.6227
    7MOL    H45 3057   3.871   0.047   0.473  0.9307  0.8114 -0.0598
    7MOL    H46 3058   3.841   0.059   0.299  0.3400  1.6766 -0.9448
    7MOL    H47 3059   4.199   0.029   0.335 -0.4085  0.8913  1.3672
    7MOL    H48 3060   4.326   7.820   0.371 -0.1101 -0.4515  1.0253
    7MOL    H49 3061   4.206   7.606   0.416 -2.3129 -2.0975 -0.6616
    7MOL    H50 3062   3.962   7.607   0.443 -0.0440 -0.4064  0.5352
    7MOL    H51 3063   3.830   7.808   0.407  0.0134 -0.5798 -1.3489
    7MOL    C52 3064   4.252   0.321   0.407 -0.2831 -0.0688  0.2754
    7MOL    C53 3065   4.328   0.289   0.549  0.2646  0.2615  0.2517
    7MOL    C54 3066   4.249   0.194   0.635  0.0524 -0.0507 -0.1613
    7MOL    C55 3067   4.363   0.423   0.632 -0.7901 -0.6342  0.5501
    7MOL    O56 3068   4.326   0.433   0.749  0.6928 -0.5494  0.4009
    7MOL    O57 3069   4.424   0.516   0.557 -0.3933 -0.1521 -0.1411
    7MOL    C58 3070   4.483   0.626   0.626  0.3967 -0.1358 -0.9163
    7MOL    C59 3071   4.388   0.753   0.639  0.6455 -1.4376 -0.0052
    7MOL    C60 3072   4.387   0.848   0.531 -0.6848 -0.2228 -0.5120
    7MOL    C61 3073   4.296   0.960   0.549 -0.0067  0.3858 -0.7119
    7MOL    C62 3074   4.220   0.977   0.667 -0.0501  0.5715 -0.8007
    7MOL    C63 3075   4.224   0.879   0.767  0.3377  0.3520  0.3844
    7MOL    C64 3076   4.312   0.772   0.754 -0.1653 -0.5132  0.0287
    7MOL    H65 3077   4.322   0.394   0.365 -0.8154  0.0004 -0.4994
    7MOL    H66 3078   4.258   0.234   0.340  0.4011 -0.9536  1.4559
    7MOL    H67 3079   4.230   0.093   0.600 -3.1663 -0.2223  1.8889
    7MOL    H68 3080   4.146   0.214   0.664 -0.1250  0.5282 -1.1989
    7MOL    H69 3081   4.310   0.179   0.724  0.0738 -0.1275 -0.1894
    7MOL    H70 3082   4.506   0.596   0.728 -2.1703  0.7531 -0.0206
    7MOL    H71 3083   4.579   0.645   0.578  0.7679  0.5462  0.0761
    7MOL    H72 3084   4.443   0.833   0.440  0.8664 -1.6880  0.6430
    7MOL    H73 3085   4.277   1.027   0.466 -1.8492 -0.2339 -0.8218
    7MOL    H74 3086   4.148   1.057   0.667 -2.0969 -1.1834  1.1464
    7MOL    H75 3087   4.164   0.889   0.857  0.9045 -1.3902  0.9734
    7MOL    H76 3088   4.322   0.694   0.828 -0.0547 -0.6197 -0.0989
    7MOL    C77 3089   4.465   0.224   0.495  0.3192 -0.0542  0.1492
    7MOL    C78 3090   4.577   0.156   0.577 -0.3891  0.0742  0.4059
    7MOL    C79 3091   4.541   0.002   0.600 -0.6312 -0.3172 -0.2455
    7MOL    C80 3092   4.594   0.226   0.710 -0.3472  0.4448  0.7005
    7MOL    O81 3093   4.644   0.337   0.722  0.0607 -0.5592  0.5920
    7MOL    O82 3094   4.540   0.149   0.814 -0.5018 -0.1954  0.7119
    7MOL    C83 3095   4.552   0.203   0.945 -0.3302 -0.6758  0.0432
    7MOL    C84 3096   4.506   0.099   1.046 -0.1479  0.7725  0.2745
    7MOL    C85 3097   4.365   0.071   1.057  0.2476  0.4245  0.2755
    7MOL    C86 3098   4.321   7.985   1.160  0.7010  0.3196  0.0063
    7MOL    C87 3099   4.417   7.928   1.242 -0.0425  0.3991  0.1831
    7MOL    C88 3100   4.558   7.953   1.227 -0.2115 -0.4335  0.1805
    7MOL    C89 3101   4.601   0.045   1.129 -0.7177 -0.2548 -0.3052
    7MOL    H90 3102   4.518   0.297   0.434 -0.1046 -0.0203 -0.1817
    7MOL    H91 3103   4.430   0.144   0.430 -0.5328 -0.2977  0.8905
    7MOL    H92 3104   4.566   7.943   0.517  1.4724  0.1207  0.0116
    7MOL    H93 3105   4.436   7.988   0.622 -1.0932  0.7428 -1.3389
    7MOL    H94 3106   4.595   7.971   0.686  3.9024 -1.7872 -3.5453
    7MOL    H95 3107   4.655   0.234   0.964 -0.3734 -0.1193 -0.6115
    7MOL    H96 3108   4.499   0.296   0.965  1.9777  0.3954  1.4175
    7MOL    H97 3109   4.290   0.098   0.984  0.1697 -0.6472 -0.0492
    7MOL    H98 3110   4.219   7.950   1.155  0.7387 -0.0082  1.3211
    7MOL    H99 3111   4.377   7.857   1.313 -0.6440  1.2499  0.7007
    7MOL   H100 3112   4.633   7.903   1.286  0.5565  1.1801  0.5938
    7MOL   H101 3113   4.700   0.085   1.111 -0.9713  0.6661  0.3193
    7MOL   C102 3114   4.714   0.165   0.496  0.6831  0.3875 -0.1313
    7MOL   C103 3115   4.751   0.082   0.368 -0.5521  0.2067  0.0106
    7MOL   C104 3116   4.644   0.087   0.258  0.0479  0.1091 -0.3373
    7MOL   C105 3117   4.793   7.943   0.396 -0.4995  0.3536  0.4640
    7MOL   O106 3118   4.727   7.854   0.349  0.3434  0.0622 -1.2041
    7MOL   O107 3119   4.904   7.926   0.459  0.3506  0.9341  0.6079
    7MOL   C108 3120   4.947   7.798   0.488 -1.1499  0.7537 -0.0079
    7MOL   C109 3121   5.092   7.771   0.438  0.0437 -0.0477  0.4692
    7MOL   C110 3122   5.120   7.704   0.314  0.2215 -0.3558  0.6870
    7MOL   C111 3123   5.255   7.699   0.265 -0.1753  0.9547 -0.1910
    7MOL   C112 3124   5.364   7.763   0.332  0.3127  1.0626 -0.4194
    7MOL   C113 3125   5.332   7.846   0.440  0.3547  0.8850 -0.8787
    7MOL   C114 3126   5.199   7.845   0.498  0.0707  0.9030  0.0685
    7MOL   H115 3127   4.792   0.143   0.569 -1.7744  0.2404  2.5660
    7MOL   H116 3128   4.730   0.272   0.481  1.8624  0.1819 -0.3959
    7MOL   H117 3129   4.670   0.065   0.155  0.4478  0.0154 -0.2201
    7MOL   H118 3130   4.607   0.189   0.251  1.1459  0.3864 -2.6615
    7MOL   H119 3131   4.561   0.025   0.291 -0.2158  0.4253 -0.3996
    7MOL   H120 3132   4.956   7.792   0.597 -0.3826 -2.0762 -0.2071
    7MOL   H121 3133   4.881   7.721   0.448 -2.3260  1.2456  0.9228
    7MOL   H122 3134   5.034   7.664   0.262 -1.3197 -0.9416  3.5513
    7MOL   H123 3135   5.276   7.655   0.168 -2.1063  0.0038 -0.2093
    7MOL   H124 3136   5.464   7.768   0.290  1.0468 -1.4035  0.9694
    7MOL   H125 3137   5.398   7.920   0.481  1.5619  1.0747 -3.0813
    7MOL   H126 3138   5.180   7.902   0.588 -0.7114  2.1321 -0.8541
    7MOL   C127 3139   4.881   0.156   0.317 -0.0604 -0.0678  0.3349
    7MOL   C128 3140   4.961   0.133   0.184 -0.8532  1.1862 -0.3634
    7MOL   C129 3141   5.105   0.165   0.233  0.7457  0.6309 -0.1069
    7MOL   C130 3142   4.927   0.253   0.090 -0.0026  0.1243 -0.3255
    7MOL   O131 3143   5.019   0.303   0.026 -0.4933  0.6234 -0.8677
    7MOL   O132 3144   4.800   0.287   0.083 -0.5234 -0.6537 -0.0228
    7MOL   C133 3145   4.773   0.402   8.002  0.2901 -0.5927 -0.9455
    7MOL   C134 3146   4.658   0.497   0.034  0.0381 -0.0487  0.3717
    7MOL   C135 3147   4.589   0.486   0.159  0.5337  0.1122  0.3251
    7MOL   C136 3148   4.485   0.576   0.200 -0.6275  0.4101 -0.4446
    7MOL   C137 3149   4.447   0.674   0.111  0.3615  0.4366 -0.4502
    7MOL   C138 3150   4.510   0.686   7.995 -0.0191 -0.5420 -0.2277
    7MOL   C139 3151   4.620   0.606   7.960 -0.3375 -0.2495  0.2708
    7MOL   H140 3152   4.954   0.145   0.397  1.3559  0.6532 -0.8401
    7MOL   H141 3153   4.868   0.264   0.326  0.5854 -0.0788  1.4643
    7MOL   H142 3154   5.109   0.264   0.279 -1.2897 -0.2632  2.0917
    7MOL   H143 3155   5.178   0.164   0.152  1.9851  1.4492  0.9937
    7MOL   H144 3156   5.140   0.097   0.310  0.0100 -1.0399 -1.2318
    7MOL   H145 3157   4.846   0.482   7.994 -2.8130  2.6919  1.7836
    7MOL   H146 3158   4.746   0.358   7.906 -2.3590 -0.8325 -0.1250
    7MOL   H147 3159   4.625   0.408   0.225  1.3293  0.3815  0.2027
    7MOL   H148 3160   4.444   0.574   0.300 -0.1655 -0.3603 -0.2689
    7MOL   H149 3161   4.374   0.747   0.143 -0.3975  0.2492 -1.7225
    7MOL   H150 3162   4.498   0.772   7.930  0.3856  0.8142  1.4551
    7MOL   H151 3163   4.666   0.628   7.865 -2.2187 -1.2202 -0.8919
    7MOL   C152 3164   4.946   7.998   0.116 -0.7585  0.4099  0.8965
    7MOL   C153 3165   4.995   7.956   7.977 -0.0861 -0.3903 -0.4868
    7MOL   C154 3166   5.138   0.001   7.960  0.3609  1.2406 -0.0840
    7MOL   C155 3167   4.903   0.002   7.859  0.5350  0.1083 -0.3528
    7MOL   O156 3168   4.788   0.036   7.882  0.5563 -0.5731  0.4952
    7MOL   O157 3169   4.958   7.999   7.734 -0.0860 -0.2553  0.0511
    7MOL   C158 3170   4.879   0.010   7.621  0.1463 -0.4006 -0.0984
    7MOL   C159 3171   4.862   0.154   7.580  0.4270  0.3461  0.3109
    7MOL   C160 3172   4.737   0.218   7.594 -0.7070 -0.3307 -0.5899
    7MOL   C161 3173   4.719   0.353   7.569 -0.6131  0.1136 -0.1075
    7MOL   C162 3174   4.823   0.429   7.525  0.2703  0.3702 -0.1642
    7MOL   C163 3175   4.944   0.363   7.496 -0.4472 -0.2684  0.0742
    7MOL   C164 3176   4.970   0.231   7.535 -0.3321  0.1905 -0.1211
    7MOL   H165 3177   4.837   7.990   0.122 -0.8661 -0.8424 -1.9088
    7MOL   H166 3178   4.984   7.921   0.183  0.1983  0.4171  0.3739
    7MOL   H167 3179   5.186   7.983   0.048  1.2916 -0.3998 -0.9583
    7MOL   H168 3180   5.138   0.108   7.942 -1.2888  0.7055 -3.4891
    7MOL   H169 3181   5.188   7.969   7.871  0.5575 -1.3352  1.1033
    7MOL   H170 3182   4.930   7.957   7.545  0.0255 -1.8257  0.9378
    7MOL   H171 3183   4.779   7.974   7.624 -0.5949  1.2976  0.0547
    7MOL   H172 3184   4.659   0.161   7.641  0.1909 -1.3999 -0.3778
    7MOL   H173 3185   4.621   0.398   7.580 -0.6042 -0.2366  1.5205
    7MOL   H174 3186   4.800   0.530   7.495  0.7377 -0.6417 -4.0912
    7MOL   H175 3187   5.021   0.424   7.450 -1.3822  1.2371  0.4732
    7MOL   H176 3188   5.070   0.191   7.530  1.0830  3.4646  0.6220
    7MOL   C177 3189   5.010   7.800   7.971 -0.0282  0.3239  0.1402
    7MOL   C178 3190   4.896   7.694   7.957  0.0505 -0.6610  0.2800
    7MOL   C179 3191   4.793   7.705   0.072 -0.4845 -0.2626  0.8436
    7MOL   C180 3192   4.969   7.558   7.980 -0.5146 -0.2652  0.4030
    7MOL   O181 3193   4.949   7.484   0.071  0.1655 -0.1954 -0.0698
    7MOL   O182 3194   5.047   7.531   7.875 -0.4483 -0.5382 -0.0298
    7MOL   C183 3195   5.125   7.414   7.883  1.2211 -0.2949  0.4760
    7MOL   C184 3196   5.266   7.433   7.942 -0.2557  0.2254 -0.4842
    7MOL   C185 3197   5.333   7.549   7.895 -0.0398  0.0486 -0.1254
    7MOL   C186 3198   5.456   7.590   7.953 -0.1673 -0.4322  0.0013
    7MOL   C187 3199   5.519   7.507   0.041 -0.0182 -0.1725  0.3117
    7MOL   C188 3200   5.461   7.383   0.077  0.9639  0.1231 -0.5511
    7MOL   C189 3201   5.332   7.348   0.029 -0.1325 -0.0068  0.3023
    7MOL   H190 3202   5.081   7.771   0.041 -0.2249 -1.2880 -0.2613
    7MOL   H191 3203   5.082   7.767   7.897 -1.1516 -0.0539 -0.8008
    7MOL   H192 3204   4.748   7.804   0.075  0.4329  0.1405  1.4155
    7MOL   H193 3205   4.839   7.691   0.170  1.9740  1.2138 -0.0630
    7MOL   H194 3206   4.707   7.639   0.059 -2.2820  2.3904 -1.4255
    7MOL   H195 3207   5.075   7.336   7.939 -0.1899  1.1765  1.3135
    7MOL   H196 3208   5.140   7.369   7.785 -1.0137  0.8255 -0.4075
    7MOL   H197 3209   5.291   7.619   7.824 -1.1618 -1.1418 -0.6503
    7MOL   H198 3210   5.488   7.690   7.927 -1.0798 -0.2181 -0.3103
    7MOL   H199 3211   5.618   7.537   0.072  0.3994 -0.1982 -0.9595
    7MOL   H200 3212   5.514   7.318   0.145  0.0091 -0.0865 -0.0007
    7MOL   H201 3213   5.290   7.259   0.074 -0.9702  1.6292  2.8328
    7MOL   C202 3214   4.818   7.703   7.823  0.0417 -0.1432 -0.1959
    7MOL   C203 3215   4.735   7.583   7.755  0.1432 -0.2983  0.2871
    7MOL   C204 3216   4.683   7.480   7.859 -0.5867  0.3098  0.0713
    7MOL   C205 3217   4.812   7.514   7.646 -0.2013 -0.3121 -0.2423
    7MOL   O206 3218   4.815   7.392   7.638 -0.0615 -0.6379 -0.1700
    7MOL   O207 3219   4.875   7.593   7.565  0.4580  0.0382 -0.0503
    7MOL   C208 3220   4.945   7.548   7.448 -1.0244 -0.5782 -0.0164
    7MOL   C209 3221   5.092   7.517   7.481  0.3383  0.0217  0.8029
    7MOL   C210 3222   5.182   7.619   7.525 -0.5757  0.3177 -0.4529
    7MOL   C211 3223   5.319   7.583   7.548  0.2966 -0.2551  0.4323
    7MOL   C212 3224   5.371   7.459   7.505  0.0068 -0.0095  0.1593
    7MOL   C213 3225   5.279   7.360   7.443 -0.0440 -0.2056 -0.4543
    7MOL   C214 3226   5.139   7.391   7.435 -0.3965  0.5013  0.2113
    7MOL   H215 3227   4.877   7.753   7.746  2.1405 -0.9581  0.8529
    7MOL   H216 3228   4.745   7.781   7.845  2.3876  1.3702  2.4760
    7MOL   H217 3229   4.741   7.439   7.942 -1.6494 -2.4586 -0.4969
    7MOL   H218 3230   4.647   7.390   7.809  1.5797 -0.6565  0.2143
    7MOL   H219 3231   4.599   7.521   7.915 -1.1173 -0.8925  0.1737
    7MOL   H220 3232   4.892   7.469   7.394 -0.5050 -1.9521  1.4553
    7MOL   H221 3233   4.951   7.624   7.370 -1.8456 -0.6874 -0.1871
    7MOL   H222 3234   5.148   7.720   7.546  0.3960  0.5632 -0.0332
    7MOL   H223 3235   5.380   7.662   7.590 -0.4449  0.6828 -0.2174
    7MOL   H224 3236   5.476   7.435   7.507  0.6366  2.4519 -1.2120
    7MOL   H225 3237   5.316   7.270   7.396  3.2776  0.6619  0.4052
    7MOL   H226 3238   5.069   7.316   7.402  0.9047 -0.9856  0.7516
    7MOL   C227 3239   4.611   7.653   7.687 -0.0821 -0.8137 -0.5361
    7MOL   C228 3240   4.503   7.592   7.587  0.8313 -0.2975  0.0965
    7MOL   C229 3241   4.461   7.453   7.632 -0.0977 -0.2829  0.1876
    7MOL   C230 3242   4.553   7.570   7.444  0.1390  0.6384 -0.5406
    7MOL   O231 3243   4.651   7.623   7.396  0.0958 -0.0779 -0.5528
    7MOL   O232 3244   4.479   7.481   7.375  0.2365 -0.4719 -0.5951
    7MOL   C233 3245   4.499   7.462   7.235  0.1551  0.2970 -0.0216
    7MOL   C234 3246   4.418   7.336   7.196 -0.5611  0.2522  0.0839
    7MOL   C235 3247   4.372   7.332   7.065  0.1907  0.4496  0.0633
    7MOL   C236 3248   4.294   7.223   7.020 -0.5111 -0.0854  0.3541
    7MOL   C237 3249   4.269   7.108   7.106  0.5296  0.0424 -0.1742
    7MOL   C238 3250   4.325   7.112   7.234  0.2076  0.2909  0.4020
    7MOL   C239 3251   4.395   7.225   7.279 -0.9266  0.1713  0.3668
    7MOL   H240 3252   4.643   7.748   7.643 -0.5179  0.7283  2.3622
    7MOL   H241 3253   4.552   7.689   7.771  2.0283  1.3234  0.0725
    7MOL   H242 3254   4.377   7.415   7.574  0.9636 -0.0053 -1.5549
    7MOL   H243 3255   4.421   7.463   7.733 -0.7827  0.1757 -0.1250
    7MOL   H244 3256   4.543   7.382   7.630  1.2010  1.2319 -1.2213
    7MOL   H245 3257   4.461   7.552   7.187 -4.3135 -1.5654 -0.2471
    7MOL   H246 3258   4.605   7.456   7.210 -0.2631  0.2523 -1.8617
    7MOL   H247 3259   4.375   7.411   6.992  0.6807 -0.0367 -0.4519
    7MOL   H248 3260   4.251   7.235   6.922  1.0603 -0.0373 -0.3428
    7MOL   H249 3261   4.198   7.035   7.070  0.0587  0.8089 -0.8093
    7MOL   H250 3262   4.313   7.033   7.307 -0.1124  0.1285  0.1736
    7MOL   H251 3263   4.427   7.233   7.382  0.4840  0.2625 -0.0587
    7MOL   C252 3264   4.362   7.668   7.581  0.1592 -0.5814 -0.2203
    7MOL   C253 3265   4.342   7.822   7.550 -0.2020 -0.1383  0.3193
    7MOL   C254 3266   4.428   7.915   7.648 -0.1151  0.8913 -0.2402
    7MOL   C255 3267   4.190   7.845   7.569 -0.0751 -0.1596 -0.6734
    7MOL   O256 3268   4.153   7.917   7.659  0.6013 -0.3882  0.0993
    7MOL   O257 3269   4.107   7.780   7.482 -0.6082 -0.8187 -0.0289
    7MOL   C258 3270   3.971   7.806   7.498 -0.0997  0.3000 -0.0875
    7MOL   C259 3271   3.889   7.740   7.384 -0.4318  0.7296 -0.0989
    7MOL   C260 3272   3.788   7.803   7.317 -0.1083 -0.1935 -1.2382
    7MOL   C261 3273   3.725   7.744   7.209  0.8112 -0.5154  0.0024
    7MOL   C262 3274   3.767   7.611   7.163 -0.0555 -0.9167  0.0544
    7MOL   C263 3275   3.873   7.542   7.218  0.6489  0.1389 -0.0808
    7MOL   C264 3276   3.931   7.606   7.335  0.6552 -0.0644  0.2024
    7MOL   H265 3277   4.319   7.647   7.679  2.2331 -0.3286  0.7653
    7MOL   H266 3278   4.301   7.607   7.515  0.5033 -0.2815 -0.8160
    7MOL   H267 3279   4.438   7.879   7.751  0.0969 -1.1471 -0.9385
    7MOL   H268 3280   4.382   0.007   7.651 -1.0418  0.4482  0.3896
    7MOL   H269 3281   4.531   7.931   7.617  0.1473  3.8854  1.9895
    7MOL   H270 3282   3.941   7.763   7.593  0.2296  0.0986 -0.0745
    7MOL   H271 3283   3.948   7.912   7.501 -0.8975  0.0983  1.4148
    7MOL   H272 3284   3.753   7.902   7.345  0.0515  0.3198 -2.7763
    7MOL   H273 3285   3.643   7.796   7.162  0.7402 -1.7209 -1.2114
    7MOL   H274 3286   3.720   7.574   7.073 -1.4564  1.0789 -0.0665
    7MOL   H275 3287   3.909   7.446   7.184  0.4536  0.5436 -1.4541
    7MOL   H276 3288   4.012   7.561   7.390  0.4264  1.6614  2.0053
    7MOL   C277 3289   4.395   7.842   7.401 -0.2213  0.3154 -0.0721
    7MOL   C278 3290   4.364   7.967   7.310 -0.1274 -0.1760 -0.6292
    7MOL   C279 3291   4.367   0.095   7.385 -0.3146 -0.1130 -0.5299
    7MOL   C280 3292   4.222   7.956   7.254 -0.0268 -0.8308  0.0553
    7MOL   O281 3293   4.140   0.034   7.277  0.0101 -0.6797  0.3196
    7MOL   O282 3294   4.204   7.859   7.168  0.4615  0.2837  0.0335
    7MOL   C283 3295   4.074   7.865   7.107  0.4393  0.7709 -0.3028
    7MOL   C284 3296   4.072   7.812   6.964  0.0430  0.1096  0.2040
    7MOL   C285 3297   4.187   7.825   6.880  0.2912  0.0546  0.4188
    7MOL   C286 3298   4.185   7.796   6.740  0.2580 -0.5300  0.3372
    7MOL   C287 3299   4.065   7.767   6.676 -0.2849  0.3140  0.6825
    7MOL   C288 3300   3.948   7.749   6.757  0.1910  0.1661 -0.5403
    7MOL   C289 3301   3.955   7.766   6.900  0.2288 -0.7481  0.3753
    7MOL   H290 3302   4.367   7.757   7.339 -0.5145 -1.4219  2.3711
    7MOL   H291 3303   4.500   7.817   7.410  0.0355  1.3061 -0.1838
    7MOL   H292 3304   4.356   0.178   7.315 -0.5366 -1.3617 -1.9992
    7MOL   H293 3305   4.467   0.113   7.426  0.6288 -2.3874 -1.7485
    7MOL   H294 3306   4.282   0.120   7.449 -1.2155  1.7422 -2.4021
    7MOL   H295 3307   4.015   7.796   7.167 -1.1962  0.8416 -1.8127
    7MOL   H296 3308   4.023   7.961   7.111 -1.9203 -0.4393 -0.7588
    7MOL   H297 3309   4.286   7.846   6.919 -0.0068 -0.1558  1.2950
    7MOL   H298 3310   4.276   7.807   6.683 -0.4541 -0.4294 -0.7999
    7MOL   H299 3311   4.063   7.751   6.569  2.9511  1.1820  0.4585
    7MOL   H300 3312   3.859   7.717   6.705 -0.0938 -1.0551  0.6676
    7MOL   H301 3313   3.870   7.754   6.965  1.3076  0.2726  1.9999
    7MOL   C302 3314   4.463   7.960   7.181 -0.5710  0.3894 -0.2268
    7MOL   C303 3315   4.605   0.011   7.181  1.0790 -0.1615  0.1094
    7MOL   C304 3316   4.692   7.955   7.289 -0.7421  0.2271  0.1119
    7MOL   C305 3317   4.605   0.168   7.190  0.4089 -0.2874 -0.0746
    7MOL   O306 3318   4.667   0.228   7.277 -0.2197  0.6847  0.5927
    7MOL   O307 3319   4.534   0.228   7.091 -0.0284  0.0510 -0.1728
    7MOL   C308 3320   4.545   0.364   7.059  0.4475  0.4203  0.2280
    7MOL   C309 3321   4.682   0.405   7.007  0.2241  0.1987  1.3723
    7MOL   C310 3322   4.741   0.339   6.895 -0.2159 -0.2832  0.1618
    7MOL   C311 3323   4.861   0.380   6.838 -1.0124 -0.5229  0.3119
    7MOL   C312 3324   4.928   0.490   6.891 -0.0264 -0.2218 -0.1027
    7MOL   C313 3325   4.874   0.558   7.006 -0.3381 -0.0139  0.3042
    7MOL   C314 3326   4.753   0.508   7.061 -0.0009 -0.4210 -0.1086
    7MOL   H315 3327   4.418   0.013   7.102 -0.0379  0.4214 -0.5056
    7MOL   H316 3328   4.459   7.861   7.137 -2.9018  0.7840 -1.0230
    7MOL   H317 3329   4.714   7.848   7.297 -0.6562  0.2158 -0.2703
    7MOL   H318 3330   4.651   7.973   7.388  0.6122  3.3886  0.1644
    7MOL   H319 3331   4.788   0.001   7.284 -1.3194  1.0692 -2.2425
    7MOL   H320 3332   4.458   0.379   6.995  0.2169 -0.3858  0.3409
    7MOL   H321 3333   4.510   0.419   7.146  1.3850 -0.7974  1.4066
    7MOL   H322 3334   4.694   0.257   6.843 -0.9180  0.2940 -0.1214
    7MOL   H323 3335   4.902   0.337   6.748 -0.4807  0.2983  0.1533
    7MOL   H324 3336   5.027   0.517   6.859  0.5652 -1.9534  0.2355
    7MOL   H325 3337   4.923   0.640   7.057 -1.4386  0.1352  1.1340
    7MOL   H326 3338   4.713   0.548   7.153 -0.3271  0.3252 -0.5723
    7MOL   C327 3339   4.673   7.993   7.043 -0.2168  0.1244  0.1657
    7MOL   C328 3340   4.742   7.857   6.997  0.1554 -0.0854  0.2993
    7MOL   C329 3341   4.657   7.731   7.040 -0.8382  0.0925  0.4818
    7MOL   C330 3342   4.873   7.834   7.083  0.1430 -0.6459 -0.9835
    7MOL   O331 3343   4.891   7.735   7.155  0.3812  0.1986  0.2631
    7MOL   O332 3344   4.963   7.944   7.068  0.0531 -0.8626  0.3961
    7MOL   C333 3345   5.098   7.942   7.127  0.4464 -0.0327 -0.3199
    7MOL   C334 3346   5.164   0.075   7.111  0.4962 -0.3168  0.1087
    7MOL   C335 3347   5.253   0.105   7.007 -0.7908 -0.1705  0.2924
    7MOL   C336 3348   5.310   0.232   6.998 -0.1661  0.6236 -1.0106
    7MOL   C337 3349   5.252   0.330   7.075 -0.4177 -0.6078  0.7310
    7MOL   C338 3350   5.165   0.311   7.182  0.8420 -0.2714  0.3216
    7MOL   C339 3351   5.122   0.181   7.203  0.1767  0.2223 -0.4968
    7MOL   H340 3352   4.747   0.065   7.029  1.6657 -1.7308 -0.5352
    7MOL   H341 3353   4.598   0.028   6.976 -1.2610 -1.0756  0.5821
    7MOL   H342 3354   4.628   7.737   7.145  2.2823  1.5046  1.3101
    7MOL   H343 3355   4.704   7.634   7.028  1.3496  1.1485  0.3334
    7MOL   H344 3356   4.566   7.727   6.980 -0.3525 -0.8956 -0.2107
    7MOL   H345 3357   5.089   7.919   7.233 -1.6569 -0.7242 -0.6345
    7MOL   H346 3358   5.151   7.864   7.072  0.2251 -0.3976 -0.0176
    7MOL   H347 3359   5.295   0.038   6.934  1.5247 -0.9054  2.2380
    7MOL   H348 3360   5.389   0.264   6.931  0.8674 -0.7644 -0.4702
    7MOL   H349 3361   5.280   0.434   7.064 -2.7041  0.1828  2.1127
    7MOL   H350 3362   5.125   0.391   7.243 -0.0604  0.8053 -1.6194
    7MOL   H351 3363   5.057   0.158   7.285 -1.0304  2.4941 -0.7961
    7MOL   C352 3364   4.791   7.864   6.840  0.2790  0.7067  0.0782
    7MOL   C353 3365   4.696   7.858   6.712 -0.4999 -1.0078 -0.3489
    7MOL   C354 3366   4.564   7.935   6.747  1.0470  0.1453 -0.4067
    7MOL   C355 3367   4.656   7.705   6.682  0.5401 -0.1390  0.5238
    7MOL   O356 3368   4.570   7.671   6.609 -0.1251 -0.0479 -0.2105
    7MOL   O357 3369   4.725   7.620   6.751 -0.0774 -0.5653 -0.3150
    7MOL   C358 3370   4.692   7.481   6.746  0.4547 -0.6057 -0.5596
    7MOL   C359 3371   4.754   7.406   6.637 -0.0771  0.3951  0.5571
    7MOL   C360 3372   4.687   7.362   6.518  0.0615  0.5617  0.3680
    7MOL   C361 3373   4.754   7.281   6.418  0.6578 -0.0456 -0.4948
    7MOL   C362 3374   4.891   7.250   6.434 -0.1430  0.0395 -0.0551
    7MOL   C363 3375   4.964   7.313   6.538 -0.0219  0.5401 -0.4685
    7MOL   C364 3376   4.894   7.375   6.642 -0.1677 -0.3590  0.0541
    7MOL   H365 3377   4.871   7.792   6.823  0.7880  1.0869  0.8483
    7MOL   H366 3378   4.843   7.959   6.832 -2.4056  2.0945 -1.6518
    7MOL   H367 3379   4.520   7.895   6.838 -0.5974  1.6010 -0.5338
    7MOL   H368 3380   4.489   7.924   6.668 -0.2390  1.1236  0.6589
    7MOL   H369 3381   4.593   0.032   6.764  2.5193 -0.0320 -1.6667
    7MOL   H370 3382   4.713   7.435   6.843  1.0870 -0.6241 -0.6994
    7MOL   H371 3383   4.586   7.457   6.739  0.5620 -0.6003 -2.7835
    7MOL   H372 3384   4.585   7.391   6.496  0.5567  1.6920 -0.4828
    7MOL   H373 3385   4.702   7.232   6.337 -2.5519 -0.5983  1.8213
    7MOL   H374 3386   4.949   7.187   6.368  0.1866  1.3044 -0.9784
    7MOL   H375 3387   5.071   7.297   6.544  0.0579  0.9867 -0.6477
    7MOL   H376 3388   4.955   7.410   6.724  1.4751 -0.4201 -1.1231
    7MOL   C377 3389   4.776   7.922   6.596 -0.1810  0.0022 -0.2825
    7MOL   C378 3390   4.733   7.943   6.447 -0.5222  0.5182  0.5924
    7MOL   C379 3391   4.846   0.028   6.403  0.1855 -0.4672  0.4689
    7MOL   C380 3392   4.603   0.020   6.439 -0.5436  0.4314 -0.3127
    7MOL   O381 3393   4.500   7.986   6.380  0.0706  0.7386  0.0441
    7MOL   O382 3394   4.609   0.145   6.502  0.3765  0.7421 -0.6063
    7MOL   C383 3395   4.494   0.230   6.496  0.1246  0.3077  0.3569
    7MOL   C384 3396   4.526   0.352   6.571  0.1959 -0.3916 -0.1650
    7MOL   C385 3397   4.645   0.433   6.555  0.2737  0.8437  0.4195
    7MOL   C386 3398   4.651   0.560   6.610 -0.2056 -0.0373  0.2902
    7MOL   C387 3399   4.550   0.604   6.700  0.0674  0.8404  0.0387
    7MOL   C388 3400   4.432   0.529   6.714 -0.5552  0.0740 -0.8544
    7MOL   C389 3401   4.422   0.405   6.648  0.1555  0.3234  0.5551
    7MOL   H390 3402   4.869   7.866   6.587  0.0483  0.4331 -0.5965
    7MOL   H391 3403   4.806   0.012   6.636  0.9200 -0.6443  0.4894
    7MOL   H392 3404   4.820   0.061   6.302  1.7036  2.0519  0.8714
    7MOL   H393 3405   4.946   7.991   6.400  0.5363  0.3564 -0.5356
    7MOL   H394 3406   4.864   0.111   6.471  0.1845 -1.6771  1.9693
    7MOL   H395 3407   4.477   0.259   6.393 -0.0181 -2.3111 -0.3843
    7MOL   H396 3408   4.408   0.173   6.531 -0.2044  0.5878  0.0039
    7MOL   H397 3409   4.720   0.398   6.486  0.2610 -1.4901  1.5528
    7MOL   H398 3410   4.748   0.604   6.593  0.0171 -0.0967  1.3909
    7MOL   H399 3411   4.562   0.689   6.766 -0.5669  1.0661 -0.1276
    7MOL   H400 3412   4.352   0.571   6.774  1.1699  2.4760 -0.1957
    7MOL   H401 3413   4.329   0.350   6.660  0.0957  0.1146 -0.8015
    7MOL   C402 3414   4.719   7.806   6.366  0.0974  0.8202 -0.1015
    7MOL   C403 3415   4.779   7.775   6.223 -0.8464 -0.0179  0.2054
    7MOL   C404 3416   4.742   7.628   6.183  0.7159  0.3474  0.7031
    7MOL   C405 3417   4.934   7.784   6.235 -0.3883  0.0348 -0.0187
    7MOL   O406 3418   5.003   7.880   6.195  0.1557  0.3575  0.1093
    7MOL   O407 3419   4.985   7.675   6.297 -0.4318 -0.0267 -0.7857
    7MOL   C408 3420   5.113   7.679   6.343 -0.4061 -0.0559 -0.3899
    7MOL   C409 3421   5.134   7.744   6.473  0.1491  0.4353 -0.1153
    7MOL   C410 3422   5.088   7.675   6.585 -0.2282 -0.2582  0.3718
    7MOL   C411 3423   5.095   7.737   6.708 -0.3611 -0.6626 -0.5815
    7MOL   C412 3424   5.131   7.880   6.720 -0.6086  0.3793  0.4068
    7MOL   C413 3425   5.175   7.947   6.602 -0.2736  0.9775 -0.4062
    7MOL   C414 3426   5.173   7.880   6.481  0.2956  0.1863 -0.6398
    7MOL   H415 3427   4.613   7.787   6.352 -0.6328  3.4188  1.5300
    7MOL   H416 3428   4.752   7.722   6.427 -2.5447  0.8378  1.4392
    7MOL   H417 3429   4.639   7.625   6.147  0.3810  1.5048  1.5674
    7MOL   H418 3430   4.749   7.562   6.269 -0.0687  0.3318  0.7550
    7MOL   H419 3431   4.793   7.581   6.098  0.9648  1.9735 -0.0607
    7MOL   H420 3432   5.147   7.576   6.348  1.9300  0.7741  1.9865
    7MOL   H421 3433   5.175   7.733   6.271  1.9427 -2.3651 -0.1451
    7MOL   H422 3434   5.053   7.573   6.577  2.2710 -1.0964 -0.1947
    7MOL   H423 3435   5.084   7.681   6.800  3.7554  0.2349  0.5817
    7MOL   H424 3436   5.124   7.928   6.816  0.0357  0.4916  0.3976
    7MOL   H425 3437   5.205   0.043   6.620  1.0124  0.7940 -1.4085
    7MOL   H426 3438   5.211   7.932   6.394  0.4198 -0.1090 -0.7644
    7MOL   C427 3439   4.727   7.876   6.113 -0.2779 -0.1986 -0.3206
    7MOL   C428 3440   4.777   7.879   5.964  0.7687 -0.2849  0.3187
    7MOL   C429 3441   4.824   7.741   5.916  0.0373 -0.1038  0.3895
    7MOL   C430 3442   4.886   7.988   5.945  0.4973 -0.3712 -0.2384
    7MOL   O431 3443   4.966   7.979   5.857 -0.5722 -0.3561  0.4407
    7MOL   O432 3444   4.872   0.094   6.032 -0.2896  0.3562 -0.0505
    7MOL   C433 3445   4.996   0.174   6.043 -0.2203  0.1701  0.4869
    7MOL   C434 3446   5.000   0.251   6.177  0.2334 -0.5129 -0.3013
    7MOL   C435 3447   5.094   0.220   6.278 -0.4028  0.3276  0.6696
    7MOL   C436 3448   5.082   0.291   6.401  0.0954  0.5728 -0.4824
    7MOL   C437 3449   4.998   0.403   6.412 -0.5079  0.3019 -0.1508
    7MOL   C438 3450   4.908   0.427   6.308 -0.5252 -0.3230  0.3058
    7MOL   C439 3451   4.904   0.351   6.194  0.8394 -0.0325 -0.7061
    7MOL   H440 3452   4.733   7.978   6.152 -0.0873 -0.3465  0.0456
    7MOL   H441 3453   4.621   7.851   6.116 -0.6070  1.1969 -0.3937
    7MOL   H442 3454   4.849   7.744   5.810 -1.4379 -0.0258  0.0435
    7MOL   H443 3455   4.748   7.665   5.899  0.3466 -0.3697  0.2026
    7MOL   H444 3456   4.916   7.708   5.965  0.0810  1.4675  1.3875
    7MOL   H445 3457   5.088   0.114   6.036 -0.2948 -0.0605  1.3584
    7MOL   H446 3458   5.006   0.243   5.960 -0.9629 -1.3889 -0.9207
    7MOL   H447 3459   5.164   0.141   6.252 -0.5810 -0.0784  1.4151
    7MOL   H448 3460   5.149   0.267   6.483  0.7784 -1.6004 -1.6411
    7MOL   H449 3461   4.997   0.461   6.504 -0.1169 -1.5851  1.0688
    7MOL   H450 3462   4.843   0.512   6.316 -0.5404 -0.0862 -2.0188
    7MOL   H451 3463   4.839   0.367   6.109 -0.3160 -0.8532  0.0142
    7MOL   C452 3464   4.652   7.920   5.872 -0.1359 -0.6385  0.2745
    7MOL   C453 3465   4.587   0.054   5.848  0.9978 -0.5294 -0.3339
    7MOL   C454 3466   4.682   0.153   5.771  0.4020 -0.1046  0.2765
    7MOL   C455 3467   4.529   0.122   5.973  0.0653  0.2444 -0.2996
    7MOL   O456 3468   4.494   0.059   6.079  0.3539  0.3333  0.6337
    7MOL   O457 3469   4.503   0.252   5.947 -0.5389 -0.4887  0.0376
    7MOL   C458 3470   4.427   0.334   6.032  0.3488  0.2319  0.6312
    7MOL   C459 3471   4.513   0.451   6.066  0.6642 -0.0303 -0.3514
    7MOL   C460 3472   4.561   0.481   6.196 -0.2113 -0.2477  0.2230
    7MOL   C461 3473   4.629   0.602   6.222  1.0289 -0.4329  0.0940
    7MOL   C462 3474   4.661   0.683   6.114 -0.9646 -0.2938 -0.6070
    7MOL   C463 3475   4.615   0.661   5.985  0.2699  0.0666  0.1922
    7MOL   C464 3476   4.534   0.546   5.965  0.2663 -0.1755 -0.4994
    7MOL   H465 3477   4.570   7.855   5.904  1.0762 -1.8186  1.0389
    7MOL   H466 3478   4.672   7.878   5.774  0.5331 -2.7578  1.2801
    7MOL   H467 3479   4.644   0.220   5.694  1.2095 -0.6791 -0.6356
    7MOL   H468 3480   4.773   0.108   5.731 -0.7743 -1.3745 -0.9872
    7MOL   H469 3481   4.732   0.220   5.841 -1.3216  2.3890 -0.8223
    7MOL   H470 3482   4.335   0.365   5.983  0.7331  0.6996  0.1952
    7MOL   H471 3483   4.401   0.280   6.123  0.4387  0.7366  0.9545
    7MOL   H472 3484   4.560   0.408   6.276  2.8891 -0.2391  0.3215
    7MOL   H473 3485   4.659   0.617   6.324 -1.2917  0.0654  0.7124
    7MOL   H474 3486   4.728   0.763   6.138 -1.9239  0.0029  1.1447
    7MOL   H475 3487   4.641   0.723   5.901 -1.4118 -0.0202 -0.4180
    7MOL   H476 3488   4.500   0.522   5.865 -2.8955 -1.2950  0.7779
    7MOL   C477 3489   4.473   0.040   5.747 -0.2326 -0.0341  0.1195
    7MOL   C478 3490   4.338   7.969   5.796  0.2428 -0.3674  0.1404
    7MOL   C479 3491   4.273   7.880   5.687  0.6684  0.7754 -0.2876
    7MOL   C480 3492   4.232   0.054   5.856 -0.4006 -0.0150  1.1096
    7MOL   O481 3493   4.223   0.177   5.831 -0.3170 -0.3911  0.0401
    7MOL   O482 3494   4.143   7.994   5.918  0.2446  0.0645  0.4784
    7MOL   C483 3495   4.026   0.051   5.983  0.3578 -1.0027  0.0019
    7MOL   C484 3496   4.065   0.130   6.107  0.6155 -0.0970  0.5438
    7MOL   C485 3497   3.997   0.247   6.138  0.6856 -0.2709 -0.0097
    7MOL   C486 3498   4.035   0.320   6.249 -1.0247  0.1659  0.2320
    7MOL   C487 3499   4.127   0.279   6.337 -0.0361  0.0051 -0.5123
    7MOL   C488 3500   4.182   0.142   6.320 -0.1570  0.0878 -0.5248
    7MOL   C489 3501   4.167   0.079   6.195  0.4847 -0.3447  0.2365
    7MOL   H490 3502   4.509   7.999   5.656 -2.3876  1.4081 -1.5323
    7MOL   H491 3503   4.446   0.138   5.707  0.1630 -0.4935 -1.2827
    7MOL   H492 3504   4.345   7.806   5.652  1.1467  1.4176 -0.6782
    7MOL   H493 3505   4.244   7.929   5.593 -0.6294  1.1999  0.3161
    7MOL   H494 3506   4.177   7.834   5.709 -0.6947  4.0115  0.8944
    7MOL   H495 3507   3.967   0.114   5.916 -1.4062  0.5161  2.8745
    7MOL   H496 3508   3.956   7.982   6.017 -1.0043 -0.2988 -1.1640
    7MOL   H497 3509   3.920   0.292   6.077 -0.7134  3.1108  4.0515
    7MOL   H498 3510   3.999   0.420   6.269 -1.2040 -0.4352  3.1414
    7MOL   H499 3511   4.162   0.340   6.419  1.6781 -1.0116 -0.4593
    7MOL   H500 3512   4.246   0.098   6.395 -0.5950 -0.6519 -0.5861
    7MOL   H501 3513   4.225   7.997   6.176  1.8273  0.8791 -1.5438
    7MOL   H502 3514   4.382   7.903   5.871  4.6381  0.5487 -1.4210
    8MOL     C1 3515   2.831   5.622   6.058  0.4425  0.8224 -0.8409
    8MOL     C2 3516   2.683   5.584   6.043  0.1649  0.2749 -0.1211
    8MOL     C3 3517   2.674   5.444   5.975  0.2201  0.3480  0.3761
    8MOL     C4 3518   2.633   5.682   5.939 -0.1753  0.0592  0.2413
    8MOL     O5 3519   2.621   5.652   5.822  0.1116  0.0032  0.0019
    8MOL     O6 3520   2.603   5.796   6.002 -0.1004 -0.3891  0.0773
    8MOL     C7 3521   2.548   5.905   5.930 -0.5852 -0.4241  0.2868
    8MOL     C8 3522   2.418   5.958   6.000 -0.6924  0.3233  0.3014
    8MOL     C9 3523   2.422   6.065   6.094  0.0017 -0.2631  0.4231
    8MOL    C10 3524   2.306   6.099   6.165  0.1295 -0.1925 -0.1515
    8MOL    C11 3525   2.186   6.034   6.137  0.3898  0.2640  0.8717
    8MOL    C12 3526   2.182   5.931   6.041 -0.8733 -0.5652 -0.0797
    8MOL    C13 3527   2.302   5.894   5.970  0.1562  0.0227 -0.9852
    8MOL    H14 3528   2.886   5.532   6.083 -0.9341 -0.1277 -1.1453
    8MOL    H15 3529   2.878   5.634   5.960  0.6879  0.3708 -0.7795
    8MOL    H16 3530   2.585   5.428   5.914 -0.3453 -1.1604  1.5531
    8MOL    H17 3531   2.694   5.363   6.045  2.7273  1.7196  1.2872
    8MOL    H18 3532   2.758   5.440   5.906  0.1510  0.4712  0.2853
    8MOL    H19 3533   2.612   5.993   5.937  0.0156 -0.8541  0.1978
    8MOL    H20 3534   2.519   5.888   5.827  3.3648  2.1491 -1.3781
    8MOL    H21 3535   2.521   6.104   6.110  0.6136 -2.0292  1.0395
    8MOL    H22 3536   2.300   6.177   6.240 -2.3330 -0.3938 -0.0878
    8MOL    H23 3537   2.089   6.057   6.179 -0.8070 -2.4993 -0.2481
    8MOL    H24 3538   2.092   5.874   6.026 -0.5616 -0.8504 -0.9128
    8MOL    H25 3539   2.296   5.810   5.903 -2.4284 -2.0294  1.6814
    8MOL    H26 3540   2.846   5.710   6.121 -0.1729  0.8312 -0.7012
    8MOL    C27 3541   2.603   5.595   6.183 -1.1056  0.2607  0.0050
    8MOL    C28 3542   2.590   5.470   6.284  0.6349 -0.5562  0.2485
    8MOL    C29 3543   2.733   5.417   6.314 -0.1362 -0.7747 -0.5258
    8MOL    C30 3544   2.504   5.355   6.217 -0.2451 -0.0023  0.1202
    8MOL    O31 3545   2.427   5.375   6.127 -0.0466  0.1409  0.8026
    8MOL    O32 3546   2.521   5.240   6.293 -0.3585  0.4115  0.4103
    8MOL    C33 3547   2.430   5.132   6.270  0.2453  0.3464 -0.1515
    8MOL    C34 3548   2.290   5.141   6.325  0.1899  0.0684 -0.2735
    8MOL    C35 3549   2.188   5.206   6.245 -0.4612  0.3093 -0.4697
    8MOL    C36 3550   2.060   5.215   6.292  0.2384 -0.4407  0.4735
    8MOL    C37 3551   2.036   5.163   6.418 -0.3077  0.1137  0.2078
    8MOL    C38 3552   2.135   5.104   6.500  0.3008  0.3535 -0.1891
    8MOL    C39 3553   2.257   5.086   6.449  0.4715  0.3454  0.0961
    8MOL    H40 3554   2.503   5.630   6.157 -0.4860  1.2084 -1.1487
    8MOL    H41 3555   2.644   5.682   6.234  0.8527 -0.3422 -0.4937
    8MOL    H42 3556   2.778   5.349   6.241 -1.6637  0.4488 -2.6614
    8MOL    H43 3557   2.731   5.368   6.411 -2.9345  0.6283  0.1750
    8MOL    H44 3558   2.793   5.507   6.316 -2.7438  0.9991  2.2408
    8MOL    H45 3559   2.421   5.110   6.163 -0.5149  0.2342 -0.0676
    8MOL    H46 3560   2.484   5.047   6.313  2.1359  1.5054 -0.1737
    8MOL    H47 3561   2.201   5.240   6.143  1.9855  2.3858  0.4876
    8MOL    H48 3562   1.985   5.259   6.228  0.8754  0.2594  0.2088
    8MOL    H49 3563   1.938   5.161   6.461 -0.2234  0.9872  0.4588
    8MOL    H50 3564   2.122   5.058   6.597  0.4256  0.3942 -0.1538
    8MOL    H51 3565   2.337   5.033   6.497  0.4121  0.5035  0.3707
    8MOL    C52 3566   2.521   5.505   6.426  0.0273  0.5846  0.4877
    8MOL    C53 3567   2.374   5.574   6.439 -0.7233  0.1051 -0.5060
    8MOL    C54 3568   2.258   5.497   6.383  0.3100 -0.2410  0.2747
    8MOL    C55 3569   2.383   5.718   6.383 -0.3137 -0.1235  0.7738
    8MOL    O56 3570   2.291   5.762   6.309 -0.0519  0.1873  0.0779
    8MOL    O57 3571   2.491   5.788   6.431  0.6689 -0.3572  0.3280
    8MOL    C58 3572   2.505   5.926   6.396 -0.5778  0.2056 -0.6117
    8MOL    C59 3573   2.630   5.985   6.467 -0.3518  0.3940 -0.1554
    8MOL    C60 3574   2.607   6.050   6.590  0.3681  0.0902  0.5753
    8MOL    C61 3575   2.711   6.116   6.658  0.1473  0.5564 -1.1252
    8MOL    C62 3576   2.838   6.112   6.601 -1.0285 -0.2380  0.6754
    8MOL    C63 3577   2.862   6.043   6.485 -0.2727 -0.7654  0.2363
    8MOL    C64 3578   2.760   5.981   6.411  0.0644 -0.3593 -0.5882
    8MOL    H65 3579   2.596   5.568   6.475  1.4254  0.4489 -1.3886
    8MOL    H66 3580   2.516   5.417   6.489  0.1811  1.1438  1.2865
    8MOL    H67 3581   2.260   5.393   6.417  0.8654  0.5913  2.9546
    8MOL    H68 3582   2.250   5.508   6.275 -2.1077  0.3656  0.4896
    8MOL    H69 3583   2.165   5.540   6.420 -0.7988 -2.7628  0.5467
    8MOL    H70 3584   2.519   5.941   6.289 -0.3246  1.3999 -0.4202
    8MOL    H71 3585   2.422   5.982   6.438  3.4436  4.8759  1.7449
    8MOL    H72 3586   2.511   6.059   6.637  0.4441  0.7298  0.6016
    8MOL    H73 3587   2.701   6.160   6.757  0.9316  1.6555 -1.5154
    8MOL    H74 3588   2.922   6.163   6.645 -0.6975  0.0006 -0.2089
    8MOL    H75 3589   2.964   6.039   6.448 -0.2506  0.2141  0.1670
    8MOL    H76 3590   2.774   5.919   6.324  0.6956  0.2319 -0.9111
    8MOL    C77 3591   2.353   5.595   6.596 -0.2312 -0.3340 -0.6908
    8MOL    C78 3592   2.293   5.499   6.704 -0.9006  0.7836 -0.3347
    8MOL    C79 3593   2.363   5.364   6.693  0.2390 -1.1348  0.2090
    8MOL    C80 3594   2.144   5.472   6.680 -0.1027 -0.0406  0.7877
    8MOL    O81 3595   2.093   5.363   6.699  0.0379 -0.3472 -0.6661
    8MOL    O82 3596   2.074   5.578   6.632  0.7580 -0.1656 -0.0101
    8MOL    C83 3597   1.952   5.549   6.575  0.4204 -0.7600  0.3568
    8MOL    C84 3598   1.837   5.585   6.666 -0.3501 -0.0181 -0.6177
    8MOL    C85 3599   1.838   5.706   6.736 -0.1227  0.1545  0.0587
    8MOL    C86 3600   1.735   5.742   6.820 -0.3686 -0.0297 -0.0922
    8MOL    C87 3601   1.624   5.654   6.835  0.2292  0.1650 -0.7097
    8MOL    C88 3602   1.626   5.530   6.770 -0.0311  0.2094 -0.3782
    8MOL    C89 3603   1.733   5.499   6.681  0.2488 -0.0702  0.0202
    8MOL    H90 3604   2.301   5.691   6.605  2.5689  1.2987 -1.0888
    8MOL    H91 3605   2.445   5.637   6.638 -0.8557  2.2777 -1.8072
    8MOL    H92 3606   2.327   5.297   6.771  3.0244 -1.7121  1.0617
    8MOL    H93 3607   2.470   5.368   6.712  0.3828 -2.3907 -0.2789
    8MOL    H94 3608   2.351   5.312   6.598 -1.2990  0.7287 -0.6354
    8MOL    H95 3609   1.947   5.612   6.487 -2.1541 -2.0613 -0.4848
    8MOL    H96 3610   1.945   5.444   6.546 -1.3458 -0.3382 -0.8485
    8MOL    H97 3611   1.927   5.767   6.742 -0.6878  0.9194  0.7513
    8MOL    H98 3612   1.734   5.842   6.861 -0.2374 -0.3921  0.8015
    8MOL    H99 3613   1.551   5.703   6.898  1.9128  0.3194  1.1910
    8MOL   H100 3614   1.553   5.451   6.779 -0.6294  0.9475  1.4775
    8MOL   H101 3615   1.735   5.406   6.626  0.3676 -0.9995  1.5539
    8MOL   C102 3616   2.309   5.546   6.854 -0.2625  0.7164  0.7366
    8MOL   C103 3617   2.298   5.690   6.921 -0.4957  0.4105 -0.5150
    8MOL   C104 3618   2.164   5.749   6.881  0.3814  0.0018  0.0464
    8MOL   C105 3619   2.423   5.769   6.862 -0.2416  0.0586 -0.0352
    8MOL   O106 3620   2.417   5.879   6.822  0.3467 -0.1122  1.1415
    8MOL   O107 3621   2.534   5.692   6.866 -0.3264 -0.8907  0.0533
    8MOL   C108 3622   2.658   5.753   6.817 -0.9720  0.0629  0.2230
    8MOL   C109 3623   2.774   5.659   6.853 -0.1128  0.4017 -0.3191
    8MOL   C110 3624   2.766   5.525   6.798 -0.6309  0.7747  0.3033
    8MOL   C111 3625   2.871   5.433   6.831  0.6747  0.3337  0.3116
    8MOL   C112 3626   2.981   5.476   6.908 -0.1486  0.1701  0.0754
    8MOL   C113 3627   2.986   5.602   6.964 -0.5689 -0.5921 -0.2764
    8MOL   C114 3628   2.879   5.695   6.941  0.5298  0.1023  0.8425
    8MOL   H115 3629   2.396   5.496   6.897  1.0503  1.5458 -0.8694
    8MOL   H116 3630   2.229   5.493   6.904  0.0573 -0.0491  0.4326
    8MOL   H117 3631   2.177   5.766   6.774  1.5928 -2.3668 -0.2203
    8MOL   H118 3632   2.142   5.847   6.924  3.1554  0.4475  0.5468
    8MOL   H119 3633   2.077   5.684   6.893 -0.0431  0.5858  0.1624
    8MOL   H120 3634   2.659   5.757   6.709 -0.0786 -0.2174  0.2138
    8MOL   H121 3635   2.669   5.856   6.852 -0.0279 -0.1335  0.5260
    8MOL   H122 3636   2.685   5.490   6.735  1.0414 -0.9527 -0.9294
    8MOL   H123 3637   2.851   5.332   6.799  0.2655  0.4592  0.1693
    8MOL   H124 3638   3.049   5.395   6.930 -0.6097 -0.0503  0.6968
    8MOL   H125 3639   3.073   5.624   7.025 -1.4051  2.0140  0.0324
    8MOL   H126 3640   2.891   5.793   6.986 -0.5054 -0.2217  1.8340
    8MOL   C127 3641   2.288   5.687   7.079 -0.1956  0.4272  0.3207
    8MOL   C128 3642   2.408   5.678   7.176 -0.1361 -0.1019 -0.3601
    8MOL   C129 3643   2.342   5.664   7.310  0.2876 -0.3938 -0.0075
    8MOL   C130 3644   2.495   5.806   7.179 -0.6793  0.8248  0.2045
    8MOL   O131 3645   2.606   5.814   7.124 -0.4139  0.1119 -0.5831
    8MOL   O132 3646   2.430   5.914   7.235 -0.0775 -0.2874 -0.0539
    8MOL   C133 3647   2.503   6.041   7.259 -0.4104  0.0975  0.3686
    8MOL   C134 3648   2.506   6.136   7.138  0.2819  0.0767 -0.2958
    8MOL   C135 3649   2.597   6.245   7.139 -0.3615 -0.2095 -0.7523
    8MOL   C136 3650   2.592   6.335   7.028  0.4316  1.3081  0.3354
    8MOL   C137 3651   2.507   6.312   6.918  0.4729 -0.3398  0.3075
    8MOL   C138 3652   2.426   6.199   6.918 -0.6712  0.8507 -0.4947
    8MOL   C139 3653   2.425   6.115   7.028  0.4270  0.2940 -0.6092
    8MOL   H140 3654   2.223   5.603   7.105 -1.0218  0.6231 -1.0522
    8MOL   H141 3655   2.239   5.778   7.114 -0.0857  1.1239 -1.3347
    8MOL   H142 3656   2.289   5.569   7.320 -3.2987  1.5615  0.3611
    8MOL   H143 3657   2.264   5.739   7.323  0.1046 -0.1897 -2.2272
    8MOL   H144 3658   2.420   5.672   7.387  1.9912 -1.3016 -1.6043
    8MOL   H145 3659   2.472   6.096   7.348 -1.3336  0.4927 -0.1788
    8MOL   H146 3660   2.606   6.007   7.269 -0.9430 -2.0991 -1.2340
    8MOL   H147 3661   2.666   6.266   7.219 -1.3008  1.6165 -0.3957
    8MOL   H148 3662   2.643   6.430   7.035 -1.3066  2.3519 -0.7410
    8MOL   H149 3663   2.505   6.373   6.828 -3.1700 -0.0007  0.5635
    8MOL   H150 3664   2.376   6.170   6.827  0.9206  0.6431 -1.3283
    8MOL   H151 3665   2.356   6.032   7.021 -0.7983  1.1455  1.0293
    8MOL   C152 3666   2.492   5.544   7.155 -0.2710 -0.1793  0.6176
    8MOL   C153 3667   2.593   5.471   7.249  0.0288  0.1907  0.1652
    8MOL   C154 3668   2.682   5.384   7.160  0.5933 -0.4027  0.5085
    8MOL   C155 3669   2.506   5.382   7.345 -0.0001  0.0416 -0.3823
    8MOL   O156 3670   2.470   5.409   7.456 -0.6011 -0.5065  0.2797
    8MOL   O157 3671   2.470   5.275   7.278  0.2037  0.1247 -0.2804
    8MOL   C158 3672   2.400   5.179   7.352 -1.0638 -0.3013 -0.6102
    8MOL   C159 3673   2.483   5.083   7.435  0.4975  0.0721 -0.2682
    8MOL   C160 3674   2.423   5.009   7.541  0.4203  0.0071  0.4607
    8MOL   C161 3675   2.500   4.927   7.627  1.0629  0.2971 -0.1203
    8MOL   C162 3676   2.639   4.926   7.605  0.7456  0.6111 -0.2190
    8MOL   C163 3677   2.704   4.998   7.502  0.3405  0.1852  0.7414
    8MOL   C164 3678   2.622   5.071   7.411 -0.5263  0.4677  0.2039
    8MOL   H165 3679   2.547   5.566   7.063 -2.9791  1.5401 -0.6355
    8MOL   H166 3680   2.426   5.465   7.119 -0.4341 -0.5435  1.6906
    8MOL   H167 3681   2.638   5.358   7.064 -1.0542  1.7785  0.6164
    8MOL   H168 3682   2.730   5.299   7.208  0.3823 -1.1307 -0.5575
    8MOL   H169 3683   2.766   5.434   7.112 -1.6889  0.0772 -3.1700
    8MOL   H170 3684   2.327   5.226   7.418 -2.3706  0.2390 -2.4109
    8MOL   H171 3685   2.350   5.112   7.282 -1.8769 -1.4843  1.0496
    8MOL   H172 3686   2.317   5.028   7.555  0.3130  1.2301 -1.8063
    8MOL   H173 3687   2.448   4.874   7.705 -0.2334 -0.5426 -1.5303
    8MOL   H174 3688   2.691   4.858   7.671 -1.9464 -0.5094  0.8160
    8MOL   H175 3689   2.811   4.994   7.489  0.1501  0.9325 -1.1730
    8MOL   H176 3690   2.671   5.131   7.336  1.1235 -0.2127  0.7114
    8MOL   C177 3691   2.682   5.567   7.338 -0.0974  0.1110 -0.4913
    8MOL   C178 3692   2.818   5.538   7.419  0.6837 -0.0548  0.0411
    8MOL   C179 3693   2.938   5.507   7.322  0.3500  0.2498 -0.1439
    8MOL   C180 3694   2.807   5.405   7.509 -0.1820 -0.5054  0.0680
    8MOL   O181 3695   2.844   5.297   7.458  0.7755 -0.3351 -0.9384
    8MOL   O182 3696   2.751   5.424   7.626  0.6122  0.6447  0.2574
    8MOL   C183 3697   2.732   5.308   7.704  0.3064 -0.0044  0.3995
    8MOL   C184 3698   2.662   5.339   7.832 -0.5309 -0.0544 -0.2599
    8MOL   C185 3699   2.520   5.353   7.842 -0.1943  0.5630 -0.5906
    8MOL   C186 3700   2.465   5.405   7.961  0.3988 -0.2265 -0.3292
    8MOL   C187 3701   2.545   5.442   0.062  0.2054 -0.4476 -0.5875
    8MOL   C188 3702   2.684   5.416   0.059  0.6033  0.0088  0.1246
    8MOL   C189 3703   2.743   5.366   7.945 -0.1160 -0.4264 -0.4900
    8MOL   H190 3704   2.628   5.623   7.414  0.8687 -2.1745  1.9368
    8MOL   H191 3705   2.712   5.647   7.269  0.6188 -1.0102 -1.5167
    8MOL   H192 3706   2.948   5.581   7.243 -1.2448  1.8806  1.1404
    8MOL   H193 3707   2.919   5.416   7.265  0.9163 -1.4645  2.2837
    8MOL   H194 3708   3.029   5.484   7.377 -0.0036 -0.3722  0.1944
    8MOL   H195 3709   2.677   5.228   7.653  0.7519  0.5275 -0.9349
    8MOL   H196 3710   2.831   5.267   7.721  0.1431  0.3401  2.2755
    8MOL   H197 3711   2.461   5.326   7.756 -0.8620  0.5285 -0.1261
    8MOL   H198 3712   2.358   5.418   7.967  0.5830  0.1484  3.0109
    8MOL   H199 3713   2.500   5.498   0.142  0.1558 -0.8778 -0.3163
    8MOL   H200 3714   2.752   5.447   0.138 -1.4465 -0.8197  2.2668
    8MOL   H201 3715   2.849   5.348   7.930 -0.0915  0.3365 -1.2858
    8MOL   C202 3716   2.853   5.659   7.521  0.1408 -0.1730  0.0847
    8MOL   C203 3717   2.926   5.791   7.463 -0.1544 -0.2919 -0.6000
    8MOL   C204 3718   2.861   5.834   7.330  1.0513  0.1847  0.4007
    8MOL   C205 3719   3.078   5.763   7.447 -0.5497  0.5141 -0.2327
    8MOL   O206 3720   3.142   5.699   7.533 -0.3986  0.0082  0.3935
    8MOL   O207 3721   3.139   5.827   7.351  0.9102 -0.4988 -0.4416
    8MOL   C208 3722   3.282   5.823   7.336 -0.5388  0.2074  0.2253
    8MOL   C209 3723   3.323   5.748   7.210 -0.5138 -0.0011 -0.4509
    8MOL   C210 3724   3.328   5.609   7.197 -0.0849 -0.4551  0.4993
    8MOL   C211 3725   3.386   5.550   7.081 -0.4807 -0.8321 -1.3472
    8MOL   C212 3726   3.421   5.633   6.971  0.0508  0.7071 -0.2464
    8MOL   C213 3727   3.410   5.771   6.978  0.0095 -0.0558 -0.1679
    8MOL   C214 3728   3.357   5.829   7.095  0.1453  1.0419 -0.4044
    8MOL   H215 3729   2.910   5.620   7.606  1.2277  2.1132  0.4545
    8MOL   H216 3730   2.756   5.688   7.560  0.0354  0.7887 -0.8639
    8MOL   H217 3731   2.883   5.778   7.240  0.2045  0.0183  0.2928
    8MOL   H218 3732   2.894   5.932   7.294 -0.2837 -0.3217 -2.2986
    8MOL   H219 3733   2.754   5.846   7.347  1.2164  0.4753  1.2667
    8MOL   H220 3734   3.313   5.927   7.335 -0.5511  0.2111  0.2625
    8MOL   H221 3735   3.336   5.785   7.423 -0.3885  0.3765  0.2053
    8MOL   H222 3736   3.289   5.549   7.278 -2.0591  0.2114  0.0817
    8MOL   H223 3737   3.385   5.442   7.078 -0.7863 -0.8091 -2.2481
    8MOL   H224 3738   3.448   5.597   6.873 -0.7183  2.7133 -1.2250
    8MOL   H225 3739   3.433   5.835   6.894 -2.4067  2.0084  0.6810
    8MOL   H226 3740   3.340   5.936   7.100  1.8162  1.2376  2.0289
    8MOL   C227 3741   2.902   5.919   7.553 -0.8598  0.0675 -0.4658
    8MOL   C228 3742   2.940   5.937   7.709  0.4497 -0.5073  0.5880
    8MOL   C229 3743   3.092   5.939   7.734 -0.0793 -0.3934  0.0421
    8MOL   C230 3744   2.870   5.815   7.790  0.7001  0.2075 -0.0086
    8MOL   O231 3745   2.916   5.745   7.876 -0.8814  0.1306  0.4244
    8MOL   O232 3746   2.738   5.807   7.758 -0.5763 -0.3106 -0.6429
    8MOL   C233 3747   2.656   5.716   7.830 -0.9346 -0.5431  0.2471
    8MOL   C234 3748   2.513   5.761   7.813  0.1230 -0.5066 -0.0999
    8MOL   C235 3749   2.458   5.804   7.687 -0.7549 -0.3354 -0.0395
    8MOL   C236 3750   2.326   5.842   7.678  0.4963 -0.4523  0.2484
    8MOL   C237 3751   2.245   5.851   7.792 -0.0967 -0.2386 -0.0890
    8MOL   C238 3752   2.295   5.800   7.916  0.0265  0.1763 -0.5183
    8MOL   C239 3753   2.430   5.759   7.928  0.1766 -0.2128  0.5666
    8MOL   H240 3754   2.795   5.935   7.542 -1.5719 -3.6850  0.1541
    8MOL   H241 3755   2.965   5.991   7.501 -0.4672  0.5252  0.6253
    8MOL   H242 3756   3.124   5.997   7.821  1.1413  0.8631 -1.2108
    8MOL   H243 3757   3.149   5.986   7.653 -2.6052  0.3924 -1.3191
    8MOL   H244 3758   3.129   5.840   7.759 -0.9362 -1.2506 -1.9432
    8MOL   H245 3759   2.655   5.613   7.794  0.7506 -0.7387  0.7278
    8MOL   H246 3760   2.674   5.717   7.938  0.9205 -0.5102 -0.0552
    8MOL   H247 3761   2.524   5.819   7.603 -1.6696  1.5452 -0.4407
    8MOL   H248 3762   2.286   5.871   7.582 -0.6659  0.4775  0.9848
    8MOL   H249 3763   2.142   5.883   7.782  0.2481  0.0587 -3.1123
    8MOL   H250 3764   2.231   5.796   8.003  0.7232 -0.1151 -0.0094
    8MOL   H251 3765   2.455   5.733   0.022 -0.3538 -0.4202  0.6439
    8MOL   C252 3766   2.875   6.079   7.751 -0.2517  0.9529  0.0535
    8MOL   C253 3767   2.875   6.150   7.888  0.1092 -0.0941 -0.4871
    8MOL   C254 3768   3.005   6.243   7.890 -0.1262  0.3068  0.2410
    8MOL   C255 3769   2.883   6.052   8.007  0.1690  0.3296  0.1793
    8MOL   O256 3770   2.785   5.979   0.023 -0.0361 -0.1815  0.0284
    8MOL   O257 3771   3.002   6.044   0.064  0.0267  0.0291 -0.0636
    8MOL   C258 3772   3.020   5.954   0.165 -0.0690  0.1953 -0.7414
    8MOL   C259 3773   3.145   5.871   0.150  0.5754  0.4767 -0.0474
    8MOL   C260 3774   3.135   5.732   0.119 -0.6679 -0.0513  0.5171
    8MOL   C261 3775   3.243   5.645   0.114 -0.2671  0.1554 -0.5366
    8MOL   C262 3776   3.371   5.702   0.128  0.0683 -0.3747  0.2005
    8MOL   C263 3777   3.392   5.841   0.148  0.1369  0.0792 -0.7465
    8MOL   C264 3778   3.276   5.926   0.164  0.2093 -0.8575  0.2492
    8MOL   H265 3779   2.769   6.060   7.733  0.2679 -2.0068 -0.0665
    8MOL   H266 3780   2.901   6.152   7.674 -0.6404 -1.8075 -2.8123
    8MOL   H267 3781   3.089   6.176   7.908 -0.0829 -0.0004 -1.1007
    8MOL   H268 3782   3.020   6.300   7.982  2.4150  0.8861 -0.5070
    8MOL   H269 3783   3.028   6.305   7.804  3.2913 -1.2337 -0.0435
    8MOL   H270 3784   3.031   6.010   0.258  1.2265 -2.6369  0.9293
    8MOL   H271 3785   2.943   5.881   0.188  0.1165 -0.1409 -1.1659
    8MOL   H272 3786   3.046   5.679   0.090 -1.4458  1.7814 -0.5740
    8MOL   H273 3787   3.241   5.545   0.072  1.7859  0.1406 -0.6856
    8MOL   H274 3788   3.460   5.642   0.116 -1.9780 -3.3070 -1.1070
    8MOL   H275 3789   3.492   5.881   0.149  0.1957  0.0375 -2.7389
    8MOL   H276 3790   3.293   6.031   0.182 -1.3491 -0.2426 -1.6931
    8MOL   C277 3791   2.740   6.237   7.916 -0.2186 -0.6210 -0.5358
    8MOL   C278 3792   2.732   6.373   7.992 -1.2823 -0.3731 -0.2839
    8MOL   C279 3793   2.798   6.484   7.907  0.6718 -0.2534  0.2875
    8MOL   C280 3794   2.806   6.364   0.120  0.5736 -0.3830  1.3151
    8MOL   O281 3795   2.814   6.264   0.186 -0.6078 -0.3360 -0.1037
    8MOL   O282 3796   2.844   6.487   0.164  0.0640  0.4122  0.8223
    8MOL   C283 3797   2.875   6.501   0.296 -0.8603 -0.5704 -0.5145
    8MOL   C284 3798   2.750   6.493   0.380  0.1427 -0.3476 -0.5015
    8MOL   C285 3799   2.647   6.585   0.360  0.7769  0.0832  0.3597
    8MOL   C286 3800   2.536   6.595   0.446 -0.2829  0.4749  0.1870
    8MOL   C287 3801   2.524   6.498   0.550 -0.2977  0.0427  0.3582
    8MOL   C288 3802   2.612   6.389   0.562 -1.1484  0.0382 -0.1324
    8MOL   C289 3803   2.729   6.394   0.486  0.0620 -0.4290  0.2279
    8MOL   H290 3804   2.654   6.178   7.947  1.1397 -1.6025  1.4498
    8MOL   H291 3805   2.706   6.268   7.817 -1.0471  1.9946  0.5338
    8MOL   H292 3806   2.906   6.473   7.909  0.6254 -0.5618  1.5118
    8MOL   H293 3807   2.781   6.581   7.955  0.0827 -0.0083 -0.4016
    8MOL   H294 3808   2.760   6.479   7.805 -0.3973 -2.7425  0.7745
    8MOL   H295 3809   2.961   6.442   0.328 -1.4642 -1.9877 -1.4499
    8MOL   H296 3810   2.912   6.603   0.304 -2.2229 -0.1541  0.8812
    8MOL   H297 3811   2.661   6.653   0.277 -2.0537 -0.0719 -0.2985
    8MOL   H298 3812   2.461   6.672   0.457 -1.2054 -0.4262  0.2458
    8MOL   H299 3813   2.448   6.515   0.625 -1.5148 -1.8044 -0.4140
    8MOL   H300 3814   2.611   6.320   0.645  1.7931 -0.5780 -0.5312
    8MOL   H301 3815   2.807   6.322   0.506 -2.2787 -2.8519  0.8392
    8MOL   C302 3816   2.587   6.428   0.021  0.0765 -0.1576 -0.3652
    8MOL   C303 3817   2.462   6.338   0.071  0.4747  0.2287  0.1043
    8MOL   C304 3818   2.508   6.250   0.188  0.3935 -0.6302 -0.3715
    8MOL   C305 3819   2.411   6.247   7.960 -0.1945  0.3442  0.0946
    8MOL   O306 3820   2.347   6.138   7.984  0.2820 -0.6812  0.1573
    8MOL   O307 3821   2.435   6.298   7.843  0.5509 -0.2535 -0.0868
    8MOL   C308 3822   2.409   6.220   7.729  0.1518 -0.0250 -0.4773
    8MOL   C309 3823   2.503   6.278   7.623 -0.4030  0.3672 -0.6979
    8MOL   C310 3824   2.502   6.416   7.599 -0.2556  0.7532 -0.3973
    8MOL   C311 3825   2.597   6.470   7.506 -0.3137  0.6383  0.1175
    8MOL   C312 3826   2.702   6.388   7.458  0.2891 -0.1944 -0.0714
    8MOL   C313 3827   2.706   6.247   7.492  0.0756 -0.1142  0.3186
    8MOL   C314 3828   2.603   6.196   7.576  0.4062 -0.7637 -0.3397
    8MOL   H315 3829   2.556   6.480   7.937  0.7708 -2.4891 -1.9858
    8MOL   H316 3830   2.603   6.505   0.096  1.4194  1.1389 -1.9259
    8MOL   H317 3831   2.427   6.194   0.236  2.5436 -2.5284  1.1602
    8MOL   H318 3832   2.531   6.317   0.271  0.9537 -0.9016 -0.3082
    8MOL   H319 3833   2.583   6.179   0.153  0.0582 -1.5522  0.7412
    8MOL   H320 3834   2.436   6.116   7.750  0.5702  0.6014  2.3752
    8MOL   H321 3835   2.304   6.222   7.703 -0.3852 -0.1024  1.5540
    8MOL   H322 3836   2.433   6.482   7.649  0.6612  0.4466  1.3355
    8MOL   H323 3837   2.588   6.576   7.488  1.3740  0.8902  0.6875
    8MOL   H324 3838   2.778   6.432   7.395 -0.9317  1.3084 -0.5232
    8MOL   H325 3839   2.785   6.181   7.457  0.1248  1.6970 -3.1539
    8MOL   H326 3840   2.590   6.089   7.588  0.6181 -0.7209  0.2958
    8MOL   C327 3841   2.355   6.440   0.125 -0.2007  1.1377 -0.0262
    8MOL   C328 3842   2.253   6.524   0.039 -0.5340  0.4498 -0.0836
    8MOL   C329 3843   2.137   6.426   8.000 -0.3263  0.3247  0.8057
    8MOL   C330 3844   2.316   6.595   7.926 -0.2556 -0.2677  0.3507
    8MOL   O331 3845   2.268   6.579   7.811  0.4194 -0.6639  0.3910
    8MOL   O332 3846   2.412   6.682   7.961  0.0414 -0.2560  0.1706
    8MOL   C333 3847   2.457   6.777   7.869  0.6363 -0.6160 -0.1858
    8MOL   C334 3848   2.587   6.841   7.909  0.1376 -0.2104 -0.6125
    8MOL   C335 3849   2.670   6.905   7.814  0.9557  0.8756  0.2561
    8MOL   C336 3850   2.790   6.954   7.850 -0.3199  0.2556 -0.3290
    8MOL   C337 3851   2.843   6.963   7.979  0.0139  0.5334 -0.0877
    8MOL   C338 3852   2.759   6.909   0.071 -0.2176  1.0614  0.4482
    8MOL   C339 3853   2.631   6.850   0.039  0.5782  0.1956  0.2908
    8MOL   H340 3854   2.402   6.517   0.186  0.3554 -0.4659  1.6123
    8MOL   H341 3855   2.287   6.378   0.184 -0.7232 -0.6439 -2.3924
    8MOL   H342 3856   2.165   6.374   7.908  1.6447  1.3716  0.7850
    8MOL   H343 3857   2.048   6.483   7.975 -0.2769 -0.1812 -0.6127
    8MOL   H344 3858   2.109   6.347   0.062  0.6803  0.3674  1.2648
    8MOL   H345 3859   2.471   6.734   7.770  3.8529 -0.3588  0.0978
    8MOL   H346 3860   2.383   6.857   7.872 -0.7158 -1.8952  1.2299
    8MOL   H347 3861   2.655   6.894   7.708  0.4837 -1.8778  0.5633
    8MOL   H348 3862   2.841   6.991   7.762 -1.9010 -0.5298 -1.6026
    8MOL   H349 3863   2.940   6.997   0.005  1.1366 -1.0709 -1.6684
    8MOL   H350 3864   2.787   6.900   0.174 -0.1117 -1.3372  0.2285
    8MOL   H351 3865   2.558   6.820   0.112 -0.4397 -0.6328 -1.0309
    8MOL   C352 3866   2.193   6.632   0.141 -0.5451 -0.3337  0.1779
    8MOL   C353 3867   2.071   6.727   0.134  0.2701 -0.1398  0.2259
    8MOL   C354 3868   2.058   6.775   7.990  0.0782 -0.2038 -0.5026
    8MOL   C355 3869   2.090   6.855   0.219 -0.5727 -0.4050  0.5314
    8MOL   O356 3870   2.031   6.961   0.193  0.2137  0.3854 -0.6439
    8MOL   O357 3871   2.164   6.836   0.331 -0.1838 -0.7557 -0.1474
    8MOL   C358 3872   2.172   6.939   0.427 -0.3764  0.5571  0.4880
    8MOL   C359 3873   2.272   7.035   0.380  0.5270  0.9501 -0.9046
    8MOL   C360 3874   2.237   7.166   0.390  0.1116  0.1427 -0.0418
    8MOL   C361 3875   2.316   7.260   0.327  0.1672  0.5518 -0.4266
    8MOL   C362 3876   2.431   7.219   0.260  0.2266  0.2501 -0.1405
    8MOL   C363 3877   2.471   7.088   0.250 -0.4045 -0.2900  0.3766
    8MOL   C364 3878   2.390   6.994   0.314  0.6862  0.2256 -0.2643
    8MOL   H365 3879   2.280   6.686   0.178 -1.6110  1.7817 -0.3105
    8MOL   H366 3880   2.169   6.566   0.224  1.0717  0.4530  1.2721
    8MOL   H367 3881   2.030   6.690   7.928  1.2562 -0.6578 -0.4290
    8MOL   H368 3882   2.150   6.820   7.953  1.6084 -2.4053  0.5066
    8MOL   H369 3883   1.979   6.848   7.973 -0.6872 -1.0401 -0.5526
    8MOL   H370 3884   2.076   6.990   0.440 -0.0743  0.9783  1.1009
    8MOL   H371 3885   2.198   6.891   0.521 -0.1603  0.3315  0.3148
    8MOL   H372 3886   2.142   7.194   0.432 -1.0037 -0.0137 -2.3955
    8MOL   H373 3887   2.287   7.364   0.320 -0.0119  0.7886  3.0616
    8MOL   H374 3888   2.477   7.304   0.213 -1.5857  0.5216 -1.4827
    8MOL   H375 3889   2.558   7.063   0.191 -0.9711 -0.8906 -0.2123
    8MOL   H376 3890   2.421   6.890   0.311  0.1157  0.0782 -1.4955
    8MOL   C377 3891   1.940   6.640   0.182  0.3926  0.1451 -0.0025
    8MOL   C378 3892   1.800   6.707   0.214 -0.2232  0.6638  0.7857
    8MOL   C379 3893   1.755   6.800   0.104 -0.1039  0.3553 -0.3752
    8MOL   C380 3894   1.811   6.778   0.352  0.8982 -0.2681 -0.5815
    8MOL   O381 3895   1.749   6.881   0.376 -0.3883  0.1125  0.4657
    8MOL   O382 3896   1.883   6.703   0.447  0.5293  0.2419  0.6943
    8MOL   C383 3897   1.857   6.733   0.587 -0.3224  0.5398  0.2934
    8MOL   C384 3898   1.978   6.720   0.680  0.2645 -0.9345  0.5589
    8MOL   C385 3899   2.060   6.604   0.669  0.3152 -0.0025 -0.1417
    8MOL   C386 3900   2.175   6.583   0.747  0.7441 -0.6411  0.5670
    8MOL   C387 3901   2.204   6.680   0.843 -0.2926  0.3647  0.2216
    8MOL   C388 3902   2.119   6.798   0.859  0.2385  0.5452  0.1244
    8MOL   C389 3903   2.004   6.812   0.778 -0.2423 -0.3775 -0.6343
    8MOL   H390 3904   1.962   6.574   0.266 -2.4210 -1.0185 -0.1163
    8MOL   H391 3905   1.918   6.564   0.108  1.1671 -0.4876  0.4168
    8MOL   H392 3906   1.771   6.760   0.003  0.2495  1.4024 -0.7387
    8MOL   H393 3907   1.813   6.892   0.115  0.1285  0.0959  0.6344
    8MOL   H394 3908   1.653   6.838   0.112 -0.5034 -1.1724  2.4650
    8MOL   H395 3909   1.819   6.834   0.597  0.2660  0.7640  0.3165
    8MOL   H396 3910   1.774   6.668   0.616 -1.4542  0.7331 -2.4202
    8MOL   H397 3911   2.026   6.526   0.602  1.9613 -2.3829  1.6965
    8MOL   H398 3912   2.235   6.493   0.742  4.4815  1.7936  0.3250
    8MOL   H399 3913   2.282   6.660   0.915  0.7093 -1.2546 -1.2757
    8MOL   H400 3914   2.141   6.870   0.936  2.5024 -0.3121  0.3179
    8MOL   H401 3915   1.939   6.896   0.793  1.0312  0.4293  0.4975
    8MOL   C402 3916   1.699   6.589   0.212 -0.0890  0.2046 -0.0855
    8MOL   C403 3917   1.552   6.582   0.283 -0.3028  0.4054  0.4809
    8MOL   C404 3918   1.479   6.711   0.258  0.6878  0.2384  0.7037
    8MOL   C405 3919   1.579   6.581   0.435 -0.0094  0.1552 -1.1822
    8MOL   O406 3920   1.540   6.668   0.515 -0.1244 -0.4476 -0.5161
    8MOL   O407 3921   1.642   6.467   0.482  0.0785  0.8390 -0.1518
    8MOL   C408 3922   1.635   6.428   0.617  0.4548 -0.3009  0.1170
    8MOL   C409 3923   1.716   6.306   0.631  0.5525  0.4620 -0.4193
    8MOL   C410 3924   1.823   6.302   0.721  0.0537  0.5524  0.2974
    8MOL   C411 3925   1.896   6.182   0.726  0.3229  0.2433 -0.5841
    8MOL   C412 3926   1.870   6.074   0.636 -0.4092  0.1866 -0.3902
    8MOL   C413 3927   1.776   6.095   0.534 -0.2538 -0.0468  0.1017
    8MOL   C414 3928   1.694   6.205   0.539 -0.1387  0.8574 -0.5974
    8MOL   H415 3929   1.744   6.499   0.253  1.2805  1.4470  1.1810
    8MOL   H416 3930   1.682   6.556   0.109 -0.8542 -0.3833  0.2259
    8MOL   H417 3931   1.391   6.710   0.323  0.5207 -0.6524  0.4688
    8MOL   H418 3932   1.438   6.730   0.158 -3.3024 -0.2708  2.1299
    8MOL   H419 3933   1.526   6.801   0.299 -0.1828  0.0715  2.1082
    8MOL   H420 3934   1.669   6.499   0.692 -1.4277 -0.3325  1.0301
    8MOL   H421 3935   1.531   6.412   0.646  0.5389  0.3958  0.8066
    8MOL   H422 3936   1.844   6.385   0.787 -0.1145  1.9504 -1.3592
    8MOL   H423 3937   1.975   6.169   0.799 -1.0757 -0.0715  0.9179
    8MOL   H424 3938   1.925   5.981   0.644 -0.2938  0.3563  1.0843
    8MOL   H425 3939   1.760   6.018   0.460 -0.7350 -0.8637  1.0385
    8MOL   H426 3940   1.621   6.216   0.460 -0.1959  2.0040 -0.4031
    8MOL   C427 3941   1.478   6.458   0.218 -0.3685  0.1475 -0.4279
    8MOL   C428 3942   1.315   6.424   0.223 -0.4681 -0.3318 -0.3554
    8MOL   C429 3943   1.227   6.522   0.141  0.0157 -0.0381  0.4466
    8MOL   C430 3944   1.260   6.427   0.367 -0.4699 -0.2996 -0.4722
    8MOL   O431 3945   1.338   6.408   0.467 -0.1953  0.2758 -0.3348
    8MOL   O432 3946   1.123   6.444   0.382  0.1502 -0.2419 -0.6815
    8MOL   C433 3947   1.061   6.471   0.506  0.3659 -0.3865  0.1379
    8MOL   C434 3948   1.073   6.362   0.608 -1.0180 -0.6479 -0.1975
    8MOL   C435 3949   1.057   6.228   0.574  0.3525 -0.0218 -0.3833
    8MOL   C436 3950   1.057   6.119   0.663  0.0761 -0.0111  0.1237
    8MOL   C437 3951   1.091   6.152   0.798 -0.3655 -0.4132  0.5024
    8MOL   C438 3952   1.114   6.283   0.836 -0.2747 -0.1246  0.3470
    8MOL   C439 3953   1.103   6.383   0.744  0.3913 -0.2606  0.5351
    8MOL   H440 3954   1.527   6.377   0.273 -1.5959  0.9942  2.0003
    8MOL   H441 3955   1.505   6.452   0.113 -0.8418  0.2895 -0.5560
    8MOL   H442 3956   1.227   6.623   0.183  0.3321 -0.0389  0.4513
    8MOL   H443 3957   1.129   6.484   0.115 -0.1328  1.6135 -1.5281
    8MOL   H444 3958   1.276   6.537   0.045  1.9511  0.2953  1.4602
    8MOL   H445 3959   1.119   6.556   0.541 -0.0129 -0.2959  0.5501
    8MOL   H446 3960   0.958   6.505   0.499  0.7670  0.6907 -0.6314
    8MOL   H447 3961   1.051   6.207   0.468 -0.6440  0.6671 -0.4745
    8MOL   H448 3962   1.037   6.017   0.634  0.6023 -0.4602  1.2986
    8MOL   H449 3963   1.088   6.073   0.871 -1.1567 -0.1946  0.7092
    8MOL   H450 3964   1.142   6.319   0.934  1.7948 -0.9967  0.1112
    8MOL   H451 3965   1.116   6.488   0.762 -0.4035 -0.1953  0.7589
    8MOL   C452 3966   1.290   6.278   0.152  0.6510 -0.4529 -0.9915
    8MOL   C453 3967   1.363   6.144   0.186  0.0428  0.6506 -0.0227
    8MOL   C454 3968   1.359   6.115   0.336 -0.8541  0.0513  0.2580
    8MOL   C455 3969   1.508   6.147   0.133 -0.6558 -0.9161  0.0877
    8MOL   O456 3970   1.600   6.112   0.202  0.2410  0.2086 -0.2615
    8MOL   O457 3971   1.525   6.195   0.011  0.2677  0.3124 -0.6684
    8MOL   C458 3972   1.647   6.247   7.979 -0.1527 -0.1072 -0.4341
    8MOL   C459 3973   1.648   6.373   7.895 -0.3543 -0.2097 -0.6598
    8MOL   C460 3974   1.526   6.418   7.842 -0.4259 -1.3976 -0.1721
    8MOL   C461 3975   1.527   6.547   7.777  0.9421 -0.4797  0.4995
    8MOL   C462 3976   1.640   6.627   7.777  0.1892  0.6301 -0.2660
    8MOL   C463 3977   1.760   6.575   7.831  0.0734  0.3808 -0.0895
    8MOL   C464 3978   1.764   6.453   7.890  0.2129  0.3708 -0.1012
    8MOL   H465 3979   1.286   6.289   0.044 -0.3515 -1.2314 -1.0356
    8MOL   H466 3980   1.184   6.265   0.174  0.8752 -2.1127 -0.8802
    8MOL   H467 3981   1.409   6.021   0.360  0.7366  0.9917  0.6716
    8MOL   H468 3982   1.260   6.107   0.380 -1.7073  1.3206 -1.4064
    8MOL   H469 3983   1.409   6.202   0.379 -1.5257  0.9919 -0.8481
    8MOL   H470 3984   1.711   6.272   0.056 -0.2974 -1.1986  0.0089
    8MOL   H471 3985   1.710   6.171   7.932  1.4682 -0.0523  1.5681
    8MOL   H472 3986   1.442   6.351   7.848 -1.8552  0.1563 -1.8829
    8MOL   H473 3987   1.437   6.588   7.734  1.9240  1.1070 -0.0668
    8MOL   H474 3988   1.649   6.727   7.739  0.9107  0.5755 -0.2537
    8MOL   H475 3989   1.848   6.638   7.822  1.0263 -0.8324  0.5643
    8MOL   H476 3990   1.847   6.425   7.953  0.5227  0.4989 -0.4466
    8MOL   C477 3991   1.283   6.027   0.119  0.8007 -0.4385 -0.1529
    8MOL   C478 3992   1.334   5.880   0.131 -0.7642  0.3819  0.8187
    8MOL   C479 3993   1.344   5.816   7.997 -0.9445 -0.3154 -0.9411
    8MOL   C480 3994   1.264   5.790   0.231 -0.0902 -0.0363 -0.1048
    8MOL   O481 3995   1.188   5.844   0.314  0.3145  0.0079  0.3492
    8MOL   O482 3996   1.276   5.662   0.224 -0.4459  0.0904 -0.5310
    8MOL   C483 3997   1.219   5.579   0.322  0.1180  0.9726 -0.2537
    8MOL   C484 3998   1.228   5.433   0.292 -0.4749  0.5084 -0.8830
    8MOL   C485 3999   1.166   5.373   0.181 -0.1106 -0.0916  0.1978
    8MOL   C486 4000   1.199   5.238   0.143 -0.2960  0.1318  0.3437
    8MOL   C487 4001   1.273   5.159   0.235 -0.1573  0.9821 -0.6430
    8MOL   C488 4002   1.301   5.215   0.365 -0.1203  0.4752 -0.0283
    8MOL   C489 4003   1.288   5.350   0.387  0.0053  0.0876 -0.4819
    8MOL   H490 4004   1.246   6.046   0.018 -0.6519  0.0941  0.4607
    8MOL   H491 4005   1.180   6.031   0.156  0.6608 -0.2399 -0.5587
    8MOL   H492 4006   1.258   5.752   7.974 -1.5431  0.5546 -1.1395
    8MOL   H493 4007   1.429   5.748   7.996 -0.0171  0.5200  4.1975
    8MOL   H494 4008   1.361   5.895   7.925 -1.5734 -0.5221 -1.3222
    8MOL   H495 4009   1.268   5.592   0.419 -1.0507  2.6238  0.1311
    8MOL   H496 4010   1.118   5.609   0.350  0.3700  2.4030 -0.8595
    8MOL   H497 4011   1.110   5.441   0.118 -1.0072 -1.0658 -0.0623
    8MOL   H498 4012   1.177   5.190   0.049 -1.1344 -0.3039  0.7616
    8MOL   H499 4013   1.274   5.053   0.215 -2.0649  1.1115 -1.4947
    8MOL   H500 4014   1.337   5.149   0.442 -1.2893  0.6992  0.7282
    8MOL   H501 4015   1.319   5.385   0.484  0.2961 -1.5994  0.0609
    8MOL   H502 4016   1.440   5.887   0.158 -0.4690  0.9083 -0.3856
    9MOL     C1 4017   3.050   6.900   5.077  0.7442  0.5326 -0.5941
    9MOL     C2 4018   3.189   6.966   5.097 -0.0213  0.3330  0.1334
    9MOL     C3 4019   3.177   7.082   5.204 -0.4767 -0.3112  0.3534
    9MOL     C4 4020   3.231   7.038   4.964  0.7927  0.7501  0.1604
    9MOL     O5 4021   3.157   7.038   4.864  0.3525 -0.4844  0.0584
    9MOL     O6 4022   3.352   7.102   4.964  0.1329  0.5812 -0.4137
    9MOL     C7 4023   3.385   7.191   4.863 -0.1006 -0.7152  0.2812
    9MOL     C8 4024   3.523   7.255   4.882 -0.9047 -0.0798  0.8503
    9MOL     C9 4025   3.649   7.192   4.855  0.5372 -0.0629  0.6661
    9MOL    C10 4026   3.774   7.260   4.866 -1.4516 -0.1159  0.1042
    9MOL    C11 4027   3.781   7.396   4.914 -0.6469 -0.3396 -0.3087
    9MOL    C12 4028   3.657   7.456   4.935 -0.5746 -0.0543 -0.1279
    9MOL    C13 4029   3.534   7.389   4.922 -0.2497 -0.0677  0.2723
    9MOL    H14 4030   3.054   6.808   5.019 -2.0204 -1.1343  1.7260
    9MOL    H15 4031   3.005   6.875   5.173  2.0207 -0.2814 -0.2024
    9MOL    H16 4032   3.072   7.104   5.220 -0.7471 -0.0426 -1.7446
    9MOL    H17 4033   3.220   7.181   5.186 -1.0636 -0.4622 -1.9671
    9MOL    H18 4034   3.210   7.058   5.306  1.7734  0.8459 -0.0667
    9MOL    H19 4035   3.371   7.152   4.762  0.4947  1.0807 -0.4959
    9MOL    H20 4036   3.302   7.262   4.868  1.0938  0.7618 -0.6013
    9MOL    H21 4037   3.648   7.094   4.811 -2.4356 -0.1104  0.7419
    9MOL    H22 4038   3.870   7.214   4.845 -0.8445  0.8060  0.8628
    9MOL    H23 4039   3.870   7.454   4.933 -0.7161 -0.9395  1.8846
    9MOL    H24 4040   3.665   7.558   4.971  1.1925 -0.0323 -0.5326
    9MOL    H25 4041   3.443   7.439   4.950  0.9320  1.8810  0.7224
    9MOL    H26 4042   2.974   6.963   5.030  0.5304  0.7271  0.0081
    9MOL    C27 4043   3.298   6.875   5.144 -0.5528  0.6372  0.4602
    9MOL    C28 4044   3.343   6.739   5.074 -0.5085  0.0023 -0.0549
    9MOL    C29 4045   3.341   6.750   4.913 -0.3807 -0.2564  0.0678
    9MOL    C30 4046   3.242   6.622   5.103 -0.4771  1.1120  0.6170
    9MOL    O31 4047   3.153   6.639   5.188 -0.2518 -0.0037 -0.2883
    9MOL    O32 4048   3.259   6.508   5.035 -0.1702  1.1584 -0.2422
    9MOL    C33 4049   3.160   6.406   5.044  0.2646 -0.0200  0.1833
    9MOL    C34 4050   3.180   6.298   4.938 -0.1696  0.4687  0.1328
    9MOL    C35 4051   3.167   6.160   4.973  0.0942 -0.1173  0.3993
    9MOL    C36 4052   3.157   6.062   4.872 -0.0840  0.2247 -0.4264
    9MOL    C37 4053   3.174   6.100   4.736  0.5229 -0.7106 -0.5301
    9MOL    C38 4054   3.190   6.237   4.700  0.7306 -0.1940  0.0314
    9MOL    C39 4055   3.194   6.331   4.803 -0.5191 -0.6641  0.0670
    9MOL    H40 4056   3.279   6.838   5.244 -1.9726 -1.1446 -0.4356
    9MOL    H41 4057   3.387   6.938   5.140 -0.8628  1.0785  0.5254
    9MOL    H42 4058   3.381   6.660   4.866 -0.6870 -1.3850  1.9451
    9MOL    H43 4059   3.413   6.822   4.873  0.4086 -2.1215 -1.9773
    9MOL    H44 4060   3.244   6.768   4.865 -0.4716  0.0017  0.3441
    9MOL    H45 4061   3.191   6.370   5.142  1.5890 -0.6163 -0.4358
    9MOL    H46 4062   3.060   6.449   5.040  1.1536  2.2672  1.4030
    9MOL    H47 4063   3.155   6.130   5.076 -1.7143 -0.9234 -0.0290
    9MOL    H48 4064   3.138   5.959   4.896 -1.8982  0.7729  0.6217
    9MOL    H49 4065   3.165   6.030   4.654  0.3601  0.0001 -1.1244
    9MOL    H50 4066   3.183   6.269   4.597  1.3997 -0.6197 -0.1516
    9MOL    H51 4067   3.199   6.434   4.772  1.6804 -0.4381  1.1010
    9MOL    C52 4068   3.491   6.697   5.104  0.1269  0.8476 -0.3958
    9MOL    C53 4069   3.541   6.667   5.249  0.0526 -0.3264  0.3255
    9MOL    C54 4070   3.440   6.569   5.325 -0.4175  0.3195 -1.0171
    9MOL    C55 4071   3.541   6.798   5.342 -0.1799  0.3626 -0.3504
    9MOL    O56 4072   3.508   6.788   5.456  0.1077  0.3196 -0.9835
    9MOL    O57 4073   3.592   6.914   5.284 -0.1096 -0.2228 -0.5542
    9MOL    C58 4074   3.625   7.032   5.354  0.7774 -0.3750  0.6551
    9MOL    C59 4075   3.760   7.075   5.317  0.3204 -0.1381 -0.1612
    9MOL    C60 4076   3.789   7.097   5.186 -0.4498 -0.0004  0.9621
    9MOL    C61 4077   3.916   7.158   5.164  0.4843 -0.2086 -0.0672
    9MOL    C62 4078   4.013   7.186   5.261  0.0961 -0.0529 -0.6218
    9MOL    C63 4079   3.981   7.139   5.389  0.9095 -0.6932  0.8461
    9MOL    C64 4080   3.861   7.080   5.415  0.2167 -0.0487  0.9858
    9MOL    H65 4081   3.564   6.771   5.070  1.8028 -0.0410  1.1914
    9MOL    H66 4082   3.518   6.612   5.043  1.9873  0.7728  0.4874
    9MOL    H67 4083   3.423   6.481   5.264 -0.4688 -3.1284  3.7512
    9MOL    H68 4084   3.349   6.626   5.344  0.0302  1.3350 -1.7979
    9MOL    H69 4085   3.484   6.534   5.418  1.4669  3.4946 -0.6132
    9MOL    H70 4086   3.550   7.107   5.329  0.5973 -0.6036  0.5024
    9MOL    H71 4087   3.624   7.002   5.458  1.6519 -2.3137  0.1247
    9MOL    H72 4088   3.709   7.096   5.114  0.1461 -0.8094  0.2965
    9MOL    H73 4089   3.932   7.187   5.061 -1.5239 -1.4654 -0.7517
    9MOL    H74 4090   4.098   7.246   5.231 -0.2726  0.7934  0.0146
    9MOL    H75 4091   4.033   7.160   5.482  1.7172 -0.3218  0.3130
    9MOL    H76 4092   3.831   7.057   5.516 -0.0913 -1.4977  0.5837
    9MOL    C77 4093   3.677   6.585   5.251  0.0134 -0.1533  0.5861
    9MOL    C78 4094   3.814   6.622   5.166  0.3893 -0.2283 -0.3704
    9MOL    C79 4095   3.841   6.773   5.163  0.5347 -0.1023 -0.1110
    9MOL    C80 4096   3.806   6.568   5.024  0.0723 -0.1614 -0.3260
    9MOL    O81 4097   3.724   6.491   4.981  0.3808  0.3173 -0.6302
    9MOL    O82 4098   3.914   6.608   4.953  0.2138  0.1348 -0.7332
    9MOL    C83 4099   3.911   6.611   4.816  0.7044 -0.9128  0.1590
    9MOL    C84 4100   3.818   6.708   4.753  0.4856  0.4514 -0.0421
    9MOL    C85 4101   3.682   6.676   4.722  0.0941  0.3064 -0.2159
    9MOL    C86 4102   3.594   6.769   4.660  0.1848  0.7497  0.3771
    9MOL    C87 4103   3.638   6.900   4.639 -0.1994 -0.1485  0.4673
    9MOL    C88 4104   3.780   6.933   4.663 -0.2539 -0.0524  0.0854
    9MOL    C89 4105   3.864   6.840   4.729 -0.5913 -0.3235 -0.3067
    9MOL    H90 4106   3.646   6.483   5.226 -0.1045  0.0661 -0.1831
    9MOL    H91 4107   3.717   6.597   5.352  0.4252  1.9959  0.1913
    9MOL    H92 4108   3.940   6.805   5.129  0.6967 -3.1526 -2.7483
    9MOL    H93 4109   3.835   6.808   5.266  1.1312 -1.0664  0.2578
    9MOL    H94 4110   3.767   6.828   5.105 -1.6426  0.0696  2.7684
    9MOL    H95 4111   4.008   6.643   4.778  0.2898 -1.9061 -1.8088
    9MOL    H96 4112   3.899   6.511   4.774 -2.4573 -0.6940  0.4137
    9MOL    H97 4113   3.646   6.579   4.753  2.2379 -0.4769 -0.0498
    9MOL    H98 4114   3.498   6.738   4.623  0.9477 -0.4373 -0.6604
    9MOL    H99 4115   3.574   6.976   4.595 -0.6614  0.0170  1.4093
    9MOL   H100 4116   3.796   7.031   4.622 -0.3123 -1.0971 -2.4993
    9MOL   H101 4117   3.963   6.876   4.752 -0.7765 -0.3450  0.5516
    9MOL   C102 4118   3.941   6.573   5.242 -0.9691 -0.2211 -0.5954
    9MOL   C103 4119   3.995   6.427   5.264 -0.5789 -0.1523  0.4925
    9MOL   C104 4120   4.005   6.356   5.126 -0.6207  0.0753  0.0470
    9MOL   C105 4121   3.912   6.329   5.356  0.2746 -0.2139  0.3681
    9MOL   O106 4122   3.811   6.351   5.413 -0.0410 -0.3573  0.9458
    9MOL   O107 4123   3.970   6.205   5.366 -0.5593  0.2211  0.0964
    9MOL   C108 4124   3.906   6.099   5.424 -0.7899  0.0661 -0.0088
    9MOL   C109 4125   3.990   6.024   5.524 -0.2178  0.1129 -0.4003
    9MOL   C110 4126   4.029   6.081   5.641  0.4514  0.1399  0.2998
    9MOL   C111 4127   4.117   6.027   5.733 -0.0069 -0.4471 -0.2291
    9MOL   C112 4128   4.160   5.899   5.709  0.9982 -0.8719  1.0545
    9MOL   C113 4129   4.115   5.832   5.590 -0.3706 -0.0870  0.0828
    9MOL   C114 4130   4.034   5.892   5.498 -0.7689 -0.7453  0.0223
    9MOL   H115 4131   3.944   6.626   5.337  0.8059 -4.3483  1.7612
    9MOL   H116 4132   4.026   6.611   5.186 -1.1622  1.1871  0.0491
    9MOL   H117 4133   3.904   6.337   5.090  0.5240 -1.3514 -2.5699
    9MOL   H118 4134   4.064   6.265   5.142 -0.9142 -0.4240 -1.6269
    9MOL   H119 4135   4.057   6.410   5.048  0.7580  0.2979  1.1010
    9MOL   H120 4136   3.812   6.128   5.470 -1.3046  0.4370 -1.2708
    9MOL   H121 4137   3.889   6.037   5.336  0.6597 -1.8244  0.9988
    9MOL   H122 4138   3.998   6.183   5.661  1.3506  0.0925  2.0928
    9MOL   H123 4139   4.155   6.081   5.818  1.1870  0.0087 -1.0411
    9MOL   H124 4140   4.231   5.868   5.784 -0.4245 -2.1244  1.9130
    9MOL   H125 4141   4.158   5.737   5.562 -1.2039  0.4199 -3.0666
    9MOL   H126 4142   4.001   5.841   5.408  1.6551 -0.7808 -0.8695
    9MOL   C127 4143   4.145   6.428   5.323 -0.4550  0.7334 -0.4347
    9MOL   C128 4144   4.186   6.506   5.456  0.8279  0.4110 -0.1874
    9MOL   C129 4145   4.083   6.479   5.560 -0.3180 -0.2668  0.1224
    9MOL   C130 4146   4.204   6.658   5.419 -0.7231 -0.9590  0.0641
    9MOL   O131 4147   4.140   6.751   5.474 -0.0189  0.3291  0.6677
    9MOL   O132 4148   4.294   6.683   5.324 -0.5994  0.1847  0.0089
    9MOL   C133 4149   4.325   6.817   5.285  0.5097  0.0530 -0.5042
    9MOL   C134 4150   4.298   6.837   5.138  0.2741 -0.5301  0.3567
    9MOL   C135 4151   4.374   6.771   5.042  0.3378 -0.0144  0.5946
    9MOL   C136 4152   4.349   6.801   4.907 -0.3191 -0.3684 -0.0336
    9MOL   C137 4153   4.252   6.888   4.857  0.0869 -0.4194  0.2220
    9MOL   C138 4154   4.164   6.943   4.956 -0.1997 -0.1747  0.3630
    9MOL   C139 4155   4.184   6.911   5.095 -0.9068  0.3555 -0.0611
    9MOL   H140 4156   4.208   6.470   5.244  1.8500  0.5921  1.2893
    9MOL   H141 4157   4.170   6.322   5.328  2.8702  1.3704 -2.4005
    9MOL   H142 4158   4.104   6.536   5.651  2.0463  1.5163 -1.4800
    9MOL   H143 4159   4.060   6.374   5.577 -2.0817  0.3316  1.6492
    9MOL   H144 4160   3.988   6.520   5.524  0.3623  1.4566  0.2211
    9MOL   H145 4161   4.246   6.879   5.328 -0.8510 -0.7517 -1.7748
    9MOL   H146 4162   4.412   6.868   5.327 -1.4659  1.0371  2.5677
    9MOL   H147 4163   4.461   6.712   5.068  2.2201  2.2910 -0.2841
    9MOL   H148 4164   4.407   6.745   4.836 -1.2042  2.4428 -3.1362
    9MOL   H149 4165   4.240   6.901   4.751  1.1684  1.2685  0.3030
    9MOL   H150 4166   4.073   6.996   4.932  0.1750 -0.1846 -1.1178
    9MOL   H151 4167   4.113   6.949   5.168 -0.1602  2.9277 -0.6270
    9MOL   C152 4168   4.325   6.438   5.495  0.1989 -0.3850  0.0488
    9MOL   C153 4169   4.402   6.457   5.640  0.3032 -0.2915 -0.1786
    9MOL   C154 4170   4.338   6.352   5.731 -0.2049 -0.1376  0.1982
    9MOL   C155 4171   4.382   6.592   5.716 -0.2175 -0.1073  0.3025
    9MOL   O156 4172   4.348   6.599   5.831 -0.3682  0.6014  0.4020
    9MOL   O157 4173   4.408   6.701   5.645 -0.2526 -0.1734  0.1018
    9MOL   C158 4174   4.369   6.829   5.702 -0.0254  0.2335  0.9769
    9MOL   C159 4175   4.405   6.949   5.613 -0.2390 -0.2764 -0.2238
    9MOL   C160 4176   4.310   7.040   5.561  0.0480 -1.0434  0.3623
    9MOL   C161 4177   4.342   7.134   5.461 -0.9566  0.0620  0.0510
    9MOL   C162 4178   4.468   7.135   5.396 -0.7615 -0.3151 -0.2026
    9MOL   C163 4179   4.565   7.045   5.448 -0.5215 -0.5454 -0.8730
    9MOL   C164 4180   4.535   6.961   5.557  0.0131 -0.4127  0.3568
    9MOL   H165 4181   4.392   6.461   5.412 -0.1748 -0.7325 -0.3471
    9MOL   H166 4182   4.309   6.331   5.484 -0.5022 -0.1559 -1.2730
    9MOL   H167 4183   4.230   6.362   5.744 -0.1583 -0.4339  0.8116
    9MOL   H168 4184   4.373   6.356   5.834  0.4872  2.8549 -0.0878
    9MOL   H169 4185   4.362   6.249   5.706 -1.0411 -0.5495  1.0680
    9MOL   H170 4186   4.260   6.830   5.700 -0.0613  0.5544  2.3324
    9MOL   H171 4187   4.403   6.855   5.803  1.2795  1.5085  0.2352
    9MOL   H172 4188   4.203   7.041   5.576  0.0070  1.6420  0.0131
    9MOL   H173 4189   4.265   7.204   5.433  0.6118  2.5789  1.8096
    9MOL   H174 4190   4.498   7.195   5.311 -2.4462  0.2410 -0.4115
    9MOL   H175 4191   4.662   7.039   5.402 -1.0469  0.3385 -2.1174
    9MOL   H176 4192   4.610   6.893   5.594 -0.8203 -1.3861  0.2650
    9MOL   C177 4193   4.545   6.408   5.633  0.0009 -0.0137 -0.5873
    9MOL   C178 4194   4.664   6.500   5.572 -0.3160 -0.2515  0.3004
    9MOL   C179 4195   4.615   6.580   5.448 -0.0289 -0.3302  0.1780
    9MOL   C180 4196   4.766   6.395   5.515  0.2958  0.0321  0.1388
    9MOL   O181 4197   4.801   6.397   5.396 -0.1563 -0.5140 -0.4059
    9MOL   O182 4198   4.797   6.300   5.608 -0.0070 -0.9162  0.2212
    9MOL   C183 4199   4.864   6.181   5.570  0.3614  0.5687  0.5553
    9MOL   C184 4200   4.937   6.101   5.679  0.4952  0.1959  1.0769
    9MOL   C185 4201   5.013   5.992   5.635 -0.1870 -0.4285  0.2142
    9MOL   C186 4202   5.081   5.917   5.733 -0.3212 -0.2828  0.6967
    9MOL   C187 4203   5.082   5.957   5.865 -0.2705  0.1718 -0.2793
    9MOL   C188 4204   5.012   6.073   5.905 -0.1877 -0.3274 -0.2490
    9MOL   C189 4205   4.931   6.139   5.815  0.1635  0.3784  0.0186
    9MOL   H190 4206   4.549   6.316   5.575  0.7995 -0.5134  0.2508
    9MOL   H191 4207   4.576   6.385   5.735 -4.1851  2.1914  1.3124
    9MOL   H192 4208   4.586   6.528   5.357  1.7159  0.3855 -0.8053
    9MOL   H193 4209   4.696   6.642   5.411 -0.7968  0.0411 -0.9038
    9MOL   H194 4210   4.532   6.647   5.472 -0.7351 -1.5476  1.2032
    9MOL   H195 4211   4.789   6.110   5.536 -0.0750  0.0150  2.5779
    9MOL   H196 4212   4.937   6.209   5.494 -2.2122  1.2924 -1.7207
    9MOL   H197 4213   5.032   5.965   5.533 -0.2884 -0.9972  0.3417
    9MOL   H198 4214   5.124   5.822   5.705 -0.7515  0.5651 -3.2133
    9MOL   H199 4215   5.135   5.909   5.945 -1.9830  1.5817  1.7523
    9MOL   H200 4216   5.031   6.118   6.001 -1.0832 -3.2211  1.3402
    9MOL   H201 4217   4.878   6.227   5.848 -1.4397 -0.3330 -0.5705
    9MOL   C202 4218   4.726   6.594   5.678  0.9417  0.0846 -0.0541
    9MOL   C203 4219   4.877   6.635   5.693 -0.2314 -0.1785  0.4268
    9MOL   C204 4220   4.866   6.766   5.780 -0.1242 -0.2183  0.1474
    9MOL   C205 4221   4.941   6.677   5.555  0.4013 -0.1888  0.1964
    9MOL   O206 4222   5.019   6.600   5.497  0.4128 -0.2158 -0.0151
    9MOL   O207 4223   4.904   6.796   5.507 -0.1624  0.5046 -0.1895
    9MOL   C208 4224   4.976   6.857   5.406  0.4947 -0.8191  0.3181
    9MOL   C209 4225   4.897   6.881   5.283  0.1835  0.7779  0.9647
    9MOL   C210 4226   4.907   7.009   5.217 -0.2210  0.2796 -0.4956
    9MOL   C211 4227   4.846   7.030   5.093  0.0974 -0.3639  0.1674
    9MOL   C212 4228   4.763   6.935   5.034 -0.0893 -0.3342  0.1401
    9MOL   C213 4229   4.752   6.810   5.095 -0.2896 -0.4934  1.3345
    9MOL   C214 4230   4.826   6.783   5.212  0.4128  0.1386  0.1295
    9MOL   H215 4231   4.709   6.542   5.772  2.1592  0.0876  0.1733
    9MOL   H216 4232   4.666   6.684   5.691 -1.6534 -1.8845  2.0652
    9MOL   H217 4233   4.787   6.825   5.733 -0.1340 -0.3904 -0.0496
    9MOL   H218 4234   4.965   6.812   5.785 -0.3013 -0.1122  3.7335
    9MOL   H219 4235   4.826   6.747   5.879  0.3075  0.4044  0.4491
    9MOL   H220 4236   5.006   6.950   5.453 -1.5806 -0.7944  1.6459
    9MOL   H221 4237   5.063   6.797   5.377  0.7275  0.5034 -1.9002
    9MOL   H222 4238   4.964   7.085   5.268 -2.4115 -0.6437  3.5494
    9MOL   H223 4239   4.857   7.128   5.049 -0.3863 -0.6374 -0.5706
    9MOL   H224 4240   4.710   6.960   4.943 -2.5331  0.0689  1.6201
    9MOL   H225 4241   4.694   6.741   5.037  0.3341  1.6749 -1.9854
    9MOL   H226 4242   4.813   6.685   5.255 -1.9163  0.4445  0.1524
    9MOL   C227 4243   4.960   6.529   5.769 -1.0684  1.4555  0.6809
    9MOL   C228 4244   5.092   6.560   5.853  0.5309  0.0741  0.3444
    9MOL   C229 4245   5.052   6.644   5.986 -0.2548  0.3786  0.1215
    9MOL   C230 4246   5.196   6.633   5.765 -0.0010  0.1465  0.3514
    9MOL   O231 4247   5.220   6.751   5.760  0.4431 -0.5165  0.4531
    9MOL   O232 4248   5.253   6.551   5.683  0.3044  0.3140  0.1087
    9MOL   C233 4249   5.331   6.599   5.573  0.2095  0.6456 -0.3513
    9MOL   C234 4250   5.390   6.478   5.494 -0.1044  0.2027 -0.1957
    9MOL   C235 4251   5.495   6.497   5.403 -0.3004 -0.5423  0.1180
    9MOL   C236 4252   5.542   6.393   5.319  0.2809  0.0616 -0.2439
    9MOL   C237 4253   5.477   6.268   5.331 -0.1831  1.0489 -0.3068
    9MOL   C238 4254   5.378   6.247   5.428  0.3799  0.0544 -0.4240
    9MOL   C239 4255   5.328   6.352   5.509 -0.3954 -0.5547 -0.1491
    9MOL   H240 4256   4.999   6.462   5.692 -2.5460 -0.7848  1.8421
    9MOL   H241 4257   4.890   6.470   5.827  3.0512 -3.8007  0.7356
    9MOL   H242 4258   4.946   6.650   6.007 -0.3075 -0.0594 -0.0055
    9MOL   H243 4259   5.080   6.749   5.978  1.0234  0.3273  3.1929
    9MOL   H244 4260   5.099   6.603   6.075  1.3084 -0.7236 -1.1690
    9MOL   H245 4261   5.282   6.678   5.515 -0.1860  1.2963  0.8557
    9MOL   H246 4262   5.413   6.645   5.628  0.1268 -1.1507  1.3165
    9MOL   H247 4263   5.536   6.596   5.389 -0.5764 -0.3105  0.8868
    9MOL   H248 4264   5.620   6.418   5.250  0.7409 -0.6284  0.0236
    9MOL   H249 4265   5.508   6.187   5.267 -0.0328  1.4721 -0.7766
    9MOL   H250 4266   5.336   6.147   5.430  1.0170 -0.2265 -0.8946
    9MOL   H251 4267   5.240   6.333   5.569  0.4892 -3.2645  0.3825
    9MOL   C252 4268   5.149   6.425   5.906  0.1822 -0.5845 -0.3405
    9MOL   C253 4269   5.292   6.387   5.980 -0.0010 -0.1988 -0.3196
    9MOL   C254 4270   5.277   6.246   6.032 -0.6419  0.5046  0.5070
    9MOL   C255 4271   5.318   6.477   6.105  0.9818 -0.1162 -0.3891
    9MOL   O256 4272   5.320   6.436   6.217  0.0192  0.2620 -0.4517
    9MOL   O257 4273   5.351   6.601   6.082  0.9318  0.1324  0.3734
    9MOL   C258 4274   5.348   6.704   6.182 -0.1510  0.4417 -1.0309
    9MOL   C259 4275   5.422   6.829   6.151 -0.0236  0.2842 -0.5265
    9MOL   C260 4276   5.440   6.869   6.022 -0.0135  0.2713 -0.0718
    9MOL   C261 4277   5.519   6.982   5.993  0.5135  0.6115  0.2445
    9MOL   C262 4278   5.570   7.062   6.099 -0.2465  0.6715  0.2595
    9MOL   C263 4279   5.548   7.013   6.226 -0.4759  0.2392 -0.1550
    9MOL   C264 4280   5.480   6.895   6.256  0.0080 -0.5890  0.5407
    9MOL   H265 4281   5.147   6.352   5.825 -1.2877  1.6888 -2.4063
    9MOL   H266 4282   5.066   6.379   5.961  0.6821  0.1591  1.0572
    9MOL   H267 4283   5.256   6.169   5.957  1.0594 -1.2884  1.8156
    9MOL   H268 4284   5.196   6.235   6.103 -1.8918  1.5367 -0.7278
    9MOL   H269 4285   5.362   6.204   6.086 -0.8660  1.0108  1.2447
    9MOL   H270 4286   5.247   6.739   6.204 -0.4169 -0.7372 -0.3618
    9MOL   H271 4287   5.371   6.664   6.280 -1.2332  0.0771 -0.9212
    9MOL   H272 4288   5.407   6.815   5.935  0.9231 -3.2778  1.6554
    9MOL   H273 4289   5.544   7.008   5.891  3.6518  0.7684  0.9901
    9MOL   H274 4290   5.644   7.138   6.078  0.3333  0.1810  0.5107
    9MOL   H275 4291   5.599   7.071   6.302 -0.5084  0.1811 -0.0889
    9MOL   H276 4292   5.476   6.874   6.362 -1.2955  2.5418  1.1487
    9MOL   C277 4293   5.411   6.398   5.877  0.1688  0.0233 -0.1180
    9MOL   C278 4294   5.551   6.327   5.887 -1.0370  0.5905  0.4230
    9MOL   C279 4295   5.548   6.188   5.818  0.2030 -0.3611 -0.7020
    9MOL   C280 4296   5.597   6.318   6.037  0.2301 -0.2225 -0.7491
    9MOL   O281 4297   5.610   6.210   6.096 -0.3683 -0.0733  0.2628
    9MOL   O282 4298   5.627   6.431   6.089 -0.1957 -0.2591  0.9192
    9MOL   C283 4299   5.657   6.438   6.230 -0.0618  0.2420 -0.5172
    9MOL   C284 4300   5.759   6.547   6.261  0.9965  0.0569  0.0768
    9MOL   C285 4301   5.745   6.678   6.210 -0.3588 -0.1233 -0.6803
    9MOL   C286 4302   5.830   6.779   6.254 -0.7732 -0.1935  0.2983
    9MOL   C287 4303   5.926   6.755   6.348 -0.0940 -0.2729  0.4930
    9MOL   C288 4304   5.948   6.626   6.399  0.2579 -0.1646 -0.3362
    9MOL   C289 4305   5.869   6.518   6.346  0.6655 -0.9959 -0.1787
    9MOL   H290 4306   5.421   6.503   5.850 -3.3834  0.6759  0.8843
    9MOL   H291 4307   5.369   6.360   5.784 -1.7127 -2.2678  1.6098
    9MOL   H292 4308   5.455   6.137   5.842  0.4270 -0.9432 -1.0640
    9MOL   H293 4309   5.629   6.122   5.849 -0.2684 -0.3124  0.6335
    9MOL   H294 4310   5.543   6.198   5.709 -0.1928  0.2277 -0.6345
    9MOL   H295 4311   5.569   6.463   6.288 -0.1301 -1.5510  0.1711
    9MOL   H296 4312   5.697   6.345   6.270  1.3725  0.2707 -1.8223
    9MOL   H297 4313   5.664   6.708   6.145 -0.7641 -0.3893 -0.3021
    9MOL   H298 4314   5.819   6.883   6.226  0.1800 -0.6261 -1.7798
    9MOL   H299 4315   5.983   6.836   6.391 -1.3213  0.1744  1.2992
    9MOL   H300 4316   6.024   6.614   6.474 -0.5178  0.1655  0.5089
    9MOL   H301 4317   5.884   6.416   6.379  0.4651 -0.9192  0.1460
    9MOL   C302 4318   5.638   6.429   5.802 -0.4897  0.1364  0.2896
    9MOL   C303 4319   5.788   6.414   5.767  0.5646  0.5574 -0.1581
    9MOL   C304 4320   5.811   6.273   5.698 -0.2062  0.7098  0.2530
    9MOL   C305 4321   5.882   6.436   5.890  0.9179  0.4916  0.3569
    9MOL   O306 4322   5.904   6.542   5.937  0.3706  0.9385 -0.2250
    9MOL   O307 4323   5.920   6.315   5.943  0.1948  0.0180 -0.0079
    9MOL   C308 4324   5.990   6.319   6.069 -0.4841 -0.4667 -0.1044
    9MOL   C309 4325   6.038   6.183   6.120 -0.1926 -0.1157  0.2766
    9MOL   C310 4326   6.063   6.076   6.037 -0.6732 -0.1536 -0.3110
    9MOL   C311 4327   6.109   5.956   6.078  0.2270  0.0350  0.0700
    9MOL   C312 4328   6.136   5.935   6.211 -0.2523 -1.0591  1.1124
    9MOL   C313 4329   6.108   6.038   6.302  0.7907 -0.0349  0.1138
    9MOL   C314 4330   6.059   6.160   6.260 -0.3154 -0.5853  0.2057
    9MOL   H315 4331   5.637   6.518   5.865 -0.2968  0.7247 -0.5279
    9MOL   H316 4332   5.578   6.443   5.712 -0.1351  3.5854  0.5182
    9MOL   H317 4333   5.913   6.253   5.667 -0.4298 -0.8757  0.4745
    9MOL   H318 4334   5.742   6.255   5.616  0.5242 -1.4522  0.0768
    9MOL   H319 4335   5.800   6.192   5.771 -1.5359  1.0535  0.4390
    9MOL   H320 4336   6.085   6.372   6.059 -1.0991  0.8843  1.0445
    9MOL   H321 4337   5.927   6.369   6.142  1.1487 -1.9724  2.4104
    9MOL   H322 4338   6.052   6.088   5.930 -0.0644  2.2461 -0.1329
    9MOL   H323 4339   6.124   5.882   6.000 -1.7356 -0.5909  0.2636
    9MOL   H324 4340   6.180   5.843   6.248 -0.0343 -0.0416  3.4180
    9MOL   H325 4341   6.124   6.037   6.409 -0.0140  2.2888  0.2920
    9MOL   H326 4342   6.037   6.241   6.328 -3.0088 -1.5474  0.5413
    9MOL   C327 4343   5.811   6.535   5.671  0.0800 -0.4376  0.7067
    9MOL   C328 4344   5.944   6.546   5.581  0.2798  0.3790  0.1130
    9MOL   C329 4345   5.957   6.702   5.558  0.1222  0.0560 -1.0193
    9MOL   C330 4346   5.907   6.468   5.451  0.7383  0.1934  0.2227
    9MOL   O331 4347   5.862   6.521   5.349 -0.6245  0.5419  0.5567
    9MOL   O332 4348   5.922   6.341   5.452  0.0002  0.1009 -0.3753
    9MOL   C333 4349   5.889   6.268   5.333 -0.2509 -0.4450  0.3186
    9MOL   C334 4350   5.902   6.120   5.347 -0.3431 -0.7182  0.6907
    9MOL   C335 4351   6.008   6.047   5.301 -0.1280 -0.3042 -0.6907
    9MOL   C336 4352   6.012   5.908   5.303 -0.2926  1.1519  0.1345
    9MOL   C337 4353   5.909   5.837   5.358 -0.1897  0.2498 -0.0948
    9MOL   C338 4354   5.804   5.907   5.419 -0.7132  0.1711 -0.4042
    9MOL   C339 4355   5.799   6.049   5.413  1.5360 -0.5034 -0.1292
    9MOL   H340 4356   5.789   6.624   5.730 -2.7681  0.1146 -1.0917
    9MOL   H341 4357   5.728   6.536   5.600  1.7723 -0.2134 -1.3241
    9MOL   H342 4358   5.854   6.738   5.560  0.7661  1.9250  0.7341
    9MOL   H343 4359   6.012   6.736   5.471  1.9986 -0.3964 -0.0292
    9MOL   H344 4360   6.007   6.749   5.642 -0.2058  1.1142 -1.4157
    9MOL   H345 4361   5.789   6.299   5.300 -0.5040 -0.7169  0.8278
    9MOL   H346 4362   5.944   6.310   5.249 -1.1677 -0.9207 -0.5372
    9MOL   H347 4363   6.094   6.101   5.263 -0.5444 -0.5520 -2.0221
    9MOL   H348 4364   6.092   5.847   5.263 -2.1318  0.3794 -2.5762
    9MOL   H349 4365   5.911   5.730   5.344  2.3655  0.5908 -2.8622
    9MOL   H350 4366   5.722   5.851   5.460  0.7272 -1.0477  0.8958
    9MOL   H351 4367   5.720   6.107   5.459 -0.8800 -3.8995  0.1968
    9MOL   C352 4368   6.077   6.506   5.651 -0.0155 -0.4638 -0.0703
    9MOL   C353 4369   6.217   6.489   5.582 -0.1728 -0.3834 -0.7758
    9MOL   C354 4370   6.232   6.588   5.461  0.5543  0.3005 -0.2892
    9MOL   C355 4371   6.227   6.350   5.518 -0.1147 -0.2711 -0.0994
    9MOL   O356 4372   6.251   6.334   5.398 -0.5151 -0.5924 -0.6654
    9MOL   O357 4373   6.217   6.244   5.602 -0.4287  0.0274  0.6579
    9MOL   C358 4374   6.243   6.109   5.559  0.5746  0.1677 -0.3588
    9MOL   C359 4375   6.373   6.050   5.606  0.2006  0.0428 -0.4420
    9MOL   C360 4376   6.490   6.042   5.522  0.1259 -0.0635 -0.6438
    9MOL   C361 4377   6.603   5.982   5.576 -0.3158 -0.1864  0.2686
    9MOL   C362 4378   6.602   5.935   5.710 -0.3992 -0.3138  0.0240
    9MOL   C363 4379   6.492   5.951   5.790 -0.4609 -0.1828  0.8221
    9MOL   C364 4380   6.376   6.014   5.743  0.1454 -0.3313 -0.6063
    9MOL   H365 4381   6.061   6.409   5.700 -2.2806  0.5774  1.3337
    9MOL   H366 4382   6.080   6.574   5.736 -0.4470 -1.7647  0.9976
    9MOL   H367 4383   6.243   6.690   5.498  0.2449  1.0748 -2.2611
    9MOL   H368 4384   6.146   6.593   5.393  0.7026 -0.5803 -0.5531
    9MOL   H369 4385   6.321   6.573   5.400  0.3932  0.5043 -0.5740
    9MOL   H370 4386   6.153   6.056   5.591  1.2834 -0.6094  0.3875
    9MOL   H371 4387   6.243   6.112   5.450  0.5072  1.6421 -0.3313
    9MOL   H372 4388   6.485   6.073   5.419 -3.4380  2.9299  0.3399
    9MOL   H373 4389   6.686   5.964   5.510 -1.5242 -0.2502 -1.2511
    9MOL   H374 4390   6.694   5.890   5.742 -0.5977 -1.2149 -0.6406
    9MOL   H375 4391   6.495   5.909   5.890  0.4444 -1.1008  0.4230
    9MOL   H376 4392   6.290   6.030   5.806  0.1536  1.1096 -0.9386
    9MOL   C377 4393   6.349   6.513   5.666 -0.1501  0.4112 -0.7154
    9MOL   C378 4394   6.364   6.482   5.819 -0.3683  0.9187  0.4884
    9MOL   C379 4395   6.298   6.346   5.853  0.4176  0.0497  0.2787
    9MOL   C380 4396   6.291   6.593   5.903  0.1715 -0.3342 -0.0957
    9MOL   O381 4397   6.279   6.709   5.861  0.1512 -0.2041 -0.7673
    9MOL   O382 4398   6.243   6.547   6.019 -0.2479 -0.1533  0.0527
    9MOL   C383 4399   6.169   6.633   6.106  0.0268  0.4313 -0.2293
    9MOL   C384 4400   6.238   6.664   6.237  0.5140  0.1489 -0.6667
    9MOL   C385 4401   6.275   6.556   6.322  0.6062  0.1970 -0.0751
    9MOL   C386 4402   6.341   6.570   6.443  0.2970 -0.0403  0.1020
    9MOL   C387 4403   6.393   6.698   6.476  0.7958  0.6927 -0.1847
    9MOL   C388 4404   6.364   6.805   6.390  0.7803  0.6920 -0.3349
    9MOL   C389 4405   6.281   6.792   6.273  0.1303 -0.4593 -0.5669
    9MOL   H390 4406   6.363   6.621   5.662  1.5975  0.2791  0.9964
    9MOL   H391 4407   6.439   6.485   5.610 -0.2272  2.1245 -1.7371
    9MOL   H392 4408   6.190   6.343   5.844  0.3164 -0.1789  1.4970
    9MOL   H393 4409   6.314   6.309   5.954 -0.9948 -3.0485 -0.5636
    9MOL   H394 4410   6.345   6.259   5.806 -0.2749  1.0461 -2.3672
    9MOL   H395 4411   6.149   6.731   6.062  1.9404  0.6272 -0.6858
    9MOL   H396 4412   6.070   6.588   6.115 -0.8923  2.4078 -0.1187
    9MOL   H397 4413   6.236   6.458   6.299  0.2958  0.2220  0.3390
    9MOL   H398 4414   6.359   6.488   6.510 -0.6703  1.4033  2.1891
    9MOL   H399 4415   6.444   6.706   6.571  0.8154 -0.9713 -0.0359
    9MOL   H400 4416   6.392   6.903   6.424 -1.6515  1.6410 -0.9953
    9MOL   H401 4417   6.256   6.873   6.207 -0.1834  1.8248  2.2552
    9MOL   C402 4418   6.519   6.496   5.870  0.4730 -0.4721 -0.5038
    9MOL   C403 4419   6.630   6.386   5.852 -0.3642 -1.4209 -0.1822
    9MOL   C404 4420   6.621   6.336   5.710  0.5175  0.4470  0.5373
    9MOL   C405 4421   6.619   6.266   5.944 -0.1014  0.6496 -0.4262
    9MOL   O406 4422   6.685   6.162   5.920 -0.0496 -0.0267 -0.3238
    9MOL   O407 4423   6.533   6.282   6.049  0.2946 -0.4923 -0.2233
    9MOL   C408 4424   6.506   6.170   6.128 -0.5932  0.1771 -0.2342
    9MOL   C409 4425   6.602   6.175   6.250  0.2870 -0.0422  0.2832
    9MOL   C410 4426   6.719   6.102   6.249  0.0536  0.5976 -0.3827
    9MOL   C411 4427   6.790   6.099   6.370 -0.4947 -0.5334  0.3768
    9MOL   C412 4428   6.746   6.167   6.485 -0.4330 -0.3147 -0.1457
    9MOL   C413 4429   6.626   6.246   6.480  0.4934  0.2529 -0.5067
    9MOL   C414 4430   6.551   6.241   6.361  0.1103 -1.1138  0.1018
    9MOL   H415 4431   6.520   6.532   5.973  0.9684  0.5186 -0.8484
    9MOL   H416 4432   6.549   6.588   5.820  0.3662 -0.9824 -1.5044
    9MOL   H417 4433   6.633   6.424   5.646  3.1480 -1.0608 -1.1198
    9MOL   H418 4434   6.532   6.275   5.695  0.6638  0.9901 -2.9300
    9MOL   H419 4435   6.703   6.270   5.682  0.0879 -0.0947  0.5400
    9MOL   H420 4436   6.401   6.164   6.159 -0.9260  0.2121 -1.3204
    9MOL   H421 4437   6.519   6.071   6.085 -3.7127 -0.4917  0.1918
    9MOL   H422 4438   6.766   6.040   6.173 -1.0316 -0.2210 -0.3947
    9MOL   H423 4439   6.871   6.028   6.368 -1.2905 -1.4634  1.1178
    9MOL   H424 4440   6.803   6.159   6.576 -1.3430  1.0305  0.5660
    9MOL   H425 4441   6.590   6.307   6.562  0.0607  0.2664 -0.7039
    9MOL   H426 4442   6.458   6.295   6.351  1.4860  1.1644 -0.5898
    9MOL   C427 4443   6.770   6.461   5.873 -0.1888  0.2093 -0.4194
    9MOL   C428 4444   6.815   6.547   5.996 -0.0336  0.5743 -1.2371
    9MOL   C429 4445   6.781   6.474   6.127  0.2643  0.5262  0.5856
    9MOL   C430 4446   6.757   6.694   6.001  0.3323  0.4094 -0.1132
    9MOL   O431 4447   6.721   6.743   6.108  0.5055  0.4876 -0.1628
    9MOL   O432 4448   6.758   6.744   5.878 -0.1163  0.1936 -0.2392
    9MOL   C433 4449   6.681   6.860   5.854 -0.3667 -0.0471 -0.4958
    9MOL   C434 4450   6.666   6.878   5.706 -0.2221 -0.1094 -0.2921
    9MOL   C435 4451   6.782   6.887   5.626  0.3759  0.0279 -0.7916
    9MOL   C436 4452   6.777   6.904   5.491 -0.0620 -0.7883  0.4594
    9MOL   C437 4453   6.652   6.907   5.425 -0.6890  0.4445 -0.3781
    9MOL   C438 4454   6.537   6.892   5.501 -0.1369 -0.1377  0.0206
    9MOL   C439 4455   6.538   6.880   5.642 -0.0948 -0.6295 -0.1086
    9MOL   H440 4456   6.781   6.526   5.787  2.6117 -0.3922 -0.5653
    9MOL   H441 4457   6.842   6.381   5.855 -0.2654  0.3542 -1.3968
    9MOL   H442 4458   6.812   6.369   6.121  0.9439  0.8247 -1.4614
    9MOL   H443 4459   6.675   6.478   6.150  0.2158 -0.4516  0.5819
    9MOL   H444 4460   6.816   6.523   6.218 -0.9609  3.0430 -0.2730
    9MOL   H445 4461   6.581   6.847   5.894 -0.3872 -2.4192 -1.2341
    9MOL   H446 4462   6.736   6.946   5.892 -0.1497 -0.3015 -0.2278
    9MOL   H447 4463   6.877   6.890   5.677  1.5821  0.0477 -2.9758
    9MOL   H448 4464   6.866   6.908   5.431 -1.3076  0.1358 -1.3636
    9MOL   H449 4465   6.649   6.905   5.317  0.5951 -2.5874 -0.4133
    9MOL   H450 4466   6.445   6.894   5.445  0.1442  2.2800 -0.4271
    9MOL   H451 4467   6.448   6.859   5.699 -0.3477  2.8639  0.8975
    9MOL   C452 4468   6.973   6.558   5.970  0.2125 -0.2056  0.4322
    9MOL   C453 4469   7.077   6.624   6.063  0.2951  0.7239 -0.4757
    9MOL   C454 4470   7.217   6.622   6.001 -0.0285  0.4184  0.6260
    9MOL   C455 4471   7.089   6.539   6.190 -0.5125  0.1962  0.2263
    9MOL   O456 4472   7.057   6.577   6.306  0.2353 -0.1616 -0.3225
    9MOL   O457 4473   7.127   6.408   6.168  0.1180 -0.5795 -0.1889
    9MOL   C458 4474   7.144   6.311   6.272 -0.4689 -0.0035 -0.4288
    9MOL   C459 4475   7.174   6.176   6.217 -0.1922  0.2644  0.7579
    9MOL   C460 4476   7.137   6.146   6.087  0.0696 -0.2983 -0.9882
    9MOL   C461 4477   7.162   6.014   6.037  0.2846 -0.5305  0.0680
    9MOL   C462 4478   7.212   5.911   6.125  0.2823 -0.3662 -0.3616
    9MOL   C463 4479   7.239   5.938   6.260 -0.2950 -0.1369 -0.2706
    9MOL   C464 4480   7.218   6.071   6.300 -0.1107 -0.4725  0.5640
    9MOL   H465 4481   6.991   6.592   5.868 -0.2549  2.5210  1.2416
    9MOL   H466 4482   7.009   6.457   5.948  0.2544 -0.4501  1.6001
    9MOL   H467 4483   7.230   6.685   5.913  0.3032  0.2803  0.5755
    9MOL   H468 4484   7.246   6.519   5.979 -2.0350 -0.1982  0.8087
    9MOL   H469 4485   7.305   6.658   6.055  1.1126  0.0555 -0.9528
    9MOL   H470 4486   7.220   6.345   6.343 -1.7795  1.4605  0.2830
    9MOL   H471 4487   7.054   6.296   6.331 -0.1524  0.0163  0.0593
    9MOL   H472 4488   7.088   6.216   6.021  3.5552  2.3597 -0.8860
    9MOL   H473 4489   7.134   5.985   5.937 -1.1812 -0.8589  0.5548
    9MOL   H474 4490   7.236   5.822   6.068  1.7968  0.7230 -1.4537
    9MOL   H475 4491   7.279   5.862   6.326 -0.8358  0.0568  0.2891
    9MOL   H476 4492   7.241   6.095   6.403  0.4063  1.3586  0.0543
    9MOL   C477 4493   7.038   6.774   6.095 -0.6234  0.0374  0.3778
    9MOL   C478 4494   7.138   6.872   6.159 -0.4867 -0.1205  0.3051
    9MOL   C479 4495   7.068   6.971   6.246  0.1938  0.9904 -0.1350
    9MOL   C480 4496   7.220   6.944   6.049 -0.0348 -0.0522 -0.5157
    9MOL   O481 4497   7.345   6.933   6.051  0.7241  0.3467  0.4943
    9MOL   O482 4498   7.142   7.024   5.969  0.3323 -0.0691  0.5702
    9MOL   C483 4499   7.206   7.098   5.868  0.6614 -0.3264  0.3201
    9MOL   C484 4500   7.204   7.027   5.731  0.3455  0.5217  0.7049
    9MOL   C485 4501   7.263   6.898   5.709 -0.6180  0.9835 -0.0630
    9MOL   C486 4502   7.247   6.830   5.587  0.0820 -0.2232 -0.1163
    9MOL   C487 4503   7.200   6.897   5.473  0.8499  0.3353 -0.5752
    9MOL   C488 4504   7.144   7.025   5.492 -0.4421 -0.0120 -0.3051
    9MOL   C489 4505   7.145   7.088   5.620 -0.4356 -0.5875 -0.0733
    9MOL   H490 4506   6.952   6.780   6.162 -0.4725 -0.2351  0.5973
    9MOL   H491 4507   7.015   6.816   5.997  1.4536 -1.9002 -0.9938
    9MOL   H492 4508   7.133   7.047   6.288  2.3056  0.4235 -2.2397
    9MOL   H493 4509   7.033   6.916   6.333 -0.5878 -0.9327 -1.6282
    9MOL   H494 4510   6.980   7.007   6.193 -0.1063 -1.9340 -1.7220
    9MOL   H495 4511   7.139   7.184   5.856  0.0320 -0.6862  1.2279
    9MOL   H496 4512   7.304   7.137   5.893  0.5468  0.8580 -0.9656
    9MOL   H497 4513   7.301   6.840   5.792  0.3136  0.3833 -0.8959
    9MOL   H498 4514   7.267   6.725   5.578 -1.2026 -0.5043  0.1639
    9MOL   H499 4515   7.203   6.848   5.377  1.0159 -3.7195  1.3713
    9MOL   H500 4516   7.102   7.072   5.403  1.2354  0.5892 -0.8068
    9MOL   H501 4517   7.109   7.189   5.632  0.8270 -0.2637  1.2207
    9MOL   H502 4518   7.203   6.817   6.227 -1.0068 -0.0769  0.8387
   10MOL     C1 4519   6.893   2.000   7.232  0.3722 -0.0639  0.1638
   10MOL     C2 4520   6.827   1.867   7.176  0.0174  0.3203 -0.1398
   10MOL     C3 4521   6.932   1.752   7.165  0.5021 -0.4426 -0.1850
   10MOL     C4 4522   6.779   1.897   7.028  0.7985 -0.6035 -0.2177
   10MOL     O5 4523   6.833   1.852   6.931 -0.0456  0.0581 -0.1530
   10MOL     O6 4524   6.682   1.997   7.028 -0.1585 -0.8305  0.2136
   10MOL     C7 4525   6.631   2.056   6.912  0.5901 -0.7778  0.4099
   10MOL     C8 4526   6.510   2.147   6.941 -0.0272 -0.8253 -0.0591
   10MOL     C9 4527   6.464   2.183   7.070  0.0726  0.7035 -0.3107
   10MOL    C10 4528   6.363   2.278   7.079  0.0893  0.2895  0.0915
   10MOL    C11 4529   6.302   2.337   6.962 -0.6051  0.2575 -0.3848
   10MOL    C12 4530   6.340   2.293   6.836  0.3481 -0.4605 -0.2524
   10MOL    C13 4531   6.441   2.196   6.825  0.5355 -0.9741 -0.1413
   10MOL    H14 4532   6.934   2.073   7.162 -1.2831  0.9816  0.2429
   10MOL    H15 4533   6.824   2.063   7.289  0.1157  0.7977 -1.0834
   10MOL    H16 4534   7.006   1.795   7.097  1.8295  0.4131  1.7710
   10MOL    H17 4535   6.883   1.662   7.127  1.3457 -0.4145 -1.3969
   10MOL    H18 4536   6.970   1.726   7.264  2.5740 -0.0961 -0.8615
   10MOL    H19 4537   6.702   2.119   6.858  1.1213 -1.3601  0.4133
   10MOL    H20 4538   6.612   1.985   6.832 -2.1964 -1.2164  1.4340
   10MOL    H21 4539   6.516   2.141   7.155 -2.4863 -1.1102  0.4161
   10MOL    H22 4540   6.319   2.317   7.170 -0.9649 -0.1147 -0.2414
   10MOL    H23 4541   6.223   2.409   6.974 -0.1682  0.5143  1.0592
   10MOL    H24 4542   6.298   2.329   6.744  2.4570 -0.2236 -1.1466
   10MOL    H25 4543   6.475   2.158   6.730  1.2237 -2.2697  0.6014
   10MOL    H26 4544   6.969   1.980   7.308 -2.9010 -1.0955  3.3441
   10MOL    C27 4545   6.718   1.834   7.286 -0.0217  0.2362 -0.2860
   10MOL    C28 4546   6.642   1.690   7.314 -0.1662  0.4707  0.3639
   10MOL    C29 4547   6.719   1.605   7.414  0.0743 -0.6066 -0.0151
   10MOL    C30 4548   6.634   1.607   7.183  0.3407  0.8007 -0.6282
   10MOL    O31 4549   6.685   1.500   7.170  0.4005  0.5830 -0.1619
   10MOL    O32 4550   6.559   1.681   7.093 -0.4952  0.1484 -0.2896
   10MOL    C33 4551   6.512   1.601   6.983  0.3160 -0.6335 -0.6348
   10MOL    C34 4552   6.447   1.694   6.887 -0.2955 -0.6464 -0.1377
   10MOL    C35 4553   6.344   1.775   6.930 -0.1361  0.1702  0.2832
   10MOL    C36 4554   6.282   1.864   6.842 -0.0557  0.2935  0.7387
   10MOL    C37 4555   6.328   1.879   6.713 -0.2112  0.0173  0.0231
   10MOL    C38 4556   6.437   1.797   6.668  0.0208 -0.2097  0.0037
   10MOL    C39 4557   6.488   1.703   6.760  0.5358 -0.6921 -0.3327
   10MOL    H40 4558   6.640   1.907   7.269 -0.3529 -0.3156 -1.1675
   10MOL    H41 4559   6.751   1.860   7.387 -0.9791 -3.2634  1.0275
   10MOL    H42 4560   6.734   1.666   7.503 -2.5852  1.0537 -0.6652
   10MOL    H43 4561   6.813   1.571   7.370  0.1231  1.4146 -1.5300
   10MOL    H44 4562   6.667   1.511   7.435 -1.6369  0.3229 -0.0448
   10MOL    H45 4563   6.586   1.527   6.950  0.2822 -1.9502  2.1243
   10MOL    H46 4564   6.434   1.532   7.014  0.0480  0.9652  2.3939
   10MOL    H47 4565   6.312   1.762   7.032 -0.6604  3.3346  0.5772
   10MOL    H48 4566   6.197   1.926   6.865  1.6865  3.0897 -0.0278
   10MOL    H49 4567   6.279   1.952   6.650  1.1634  0.3759 -0.6751
   10MOL    H50 4568   6.489   1.800   6.574  0.7546  0.0368  0.4201
   10MOL    H51 4569   6.569   1.643   6.722  1.9960  1.8598 -1.3489
   10MOL    C52 4570   6.494   1.718   7.358  0.1795 -0.6912 -0.0576
   10MOL    C53 4571   6.450   1.746   7.503 -0.5741 -0.1084  0.3705
   10MOL    C54 4572   6.311   1.803   7.497 -0.3556  0.0021 -0.6115
   10MOL    C55 4573   6.538   1.858   7.563  0.2956 -0.0744  0.0653
   10MOL    O56 4574   6.614   1.841   7.662 -0.5330 -0.0737  0.6904
   10MOL    O57 4575   6.532   1.975   7.494 -0.5930  0.2897  0.0731
   10MOL    C58 4576   6.621   2.087   7.534  0.0757  0.3995  0.3685
   10MOL    C59 4577   6.571   2.215   7.470 -0.3614 -0.6038 -0.5224
   10MOL    C60 4578   6.442   2.253   7.494  0.2797  0.7745  0.1167
   10MOL    C61 4579   6.394   2.378   7.447 -0.1746 -0.3156  1.0044
   10MOL    C62 4580   6.476   2.460   7.372 -0.1210  0.6631 -0.0395
   10MOL    C63 4581   6.603   2.419   7.337  0.3829  0.1724  0.6810
   10MOL    C64 4582   6.658   2.296   7.386  0.0267 -0.4162 -0.6110
   10MOL    H65 4583   6.430   1.641   7.315 -1.5050  0.6709 -0.0895
   10MOL    H66 4584   6.450   1.798   7.298 -1.1499 -0.8892  0.6218
   10MOL    H67 4585   6.282   1.853   7.589 -0.1093  0.7118 -0.9187
   10MOL    H68 4586   6.235   1.727   7.475 -1.5985 -0.0505  3.4351
   10MOL    H69 4587   6.308   1.885   7.426 -0.9657  0.1161 -0.4602
   10MOL    H70 4588   6.627   2.089   7.642  0.2849 -1.0029  0.3975
   10MOL    H71 4589   6.725   2.083   7.501 -0.4400 -0.5363 -1.2041
   10MOL    H72 4590   6.382   2.199   7.565 -0.2805  2.2557  0.7872
   10MOL    H73 4591   6.302   2.416   7.488  0.1143 -0.2633  1.6141
   10MOL    H74 4592   6.444   2.560   7.347  1.1425  0.9434 -0.6228
   10MOL    H75 4593   6.660   2.492   7.282  2.1602 -2.0833 -0.5539
   10MOL    H76 4594   6.761   2.279   7.359  0.6063 -0.4408  1.5280
   10MOL    C77 4595   6.448   1.606   7.590  0.0242 -0.1042 -0.0559
   10MOL    C78 4596   6.366   1.573   7.716 -0.0335  0.5560 -0.2425
   10MOL    C79 4597   6.410   1.438   7.766  0.0101  0.1221 -0.8948
   10MOL    C80 4598   6.216   1.558   7.670  0.2476 -0.1958  0.5155
   10MOL    O81 4599   6.126   1.643   7.694 -0.2551  0.0635 -0.4511
   10MOL    O82 4600   6.198   1.458   7.579 -0.7645 -0.1196 -0.4146
   10MOL    C83 4601   6.079   1.449   7.496 -0.1639 -0.3101  0.6486
   10MOL    C84 4602   6.105   1.471   7.345 -0.8897 -0.1883 -0.3969
   10MOL    C85 4603   6.191   1.378   7.279  0.3993  0.8977  0.3039
   10MOL    C86 4604   6.210   1.404   7.143  0.2314 -0.0353  0.2685
   10MOL    C87 4605   6.151   1.516   7.075  0.4827 -0.2716  0.4413
   10MOL    C88 4606   6.059   1.597   7.145  0.1776 -0.6747 -0.3021
   10MOL    C89 4607   6.031   1.570   7.281 -0.2981 -0.4987  0.3183
   10MOL    H90 4608   6.548   1.567   7.613 -0.6122 -0.4292  2.2813
   10MOL    H91 4609   6.420   1.534   7.513  3.5063 -0.4105 -1.1319
   10MOL    H92 4610   6.340   1.399   7.840  0.7582  0.1308 -0.1692
   10MOL    H93 4611   6.514   1.437   7.800  0.3452  0.5987 -1.9013
   10MOL    H94 4612   6.406   1.366   7.685 -0.7394 -2.0296  1.0202
   10MOL    H95 4613   6.020   1.359   7.513 -1.0760  0.3982  1.2853
   10MOL    H96 4614   6.013   1.530   7.528  0.3965  1.3122 -2.1300
   10MOL    H97 4615   6.248   1.300   7.327 -0.7058 -0.9388 -1.2965
   10MOL    H98 4616   6.281   1.345   7.087  1.4227  1.4832  0.1401
   10MOL    H99 4617   6.167   1.536   6.970  0.1915  2.1233  0.8257
   10MOL   H100 4618   6.018   1.682   7.093  1.9223  1.3464  1.5343
   10MOL   H101 4619   5.965   1.639   7.332 -1.2543 -1.8792  0.9812
   10MOL   C102 4620   6.400   1.688   7.817 -0.5132 -0.0625 -0.7624
   10MOL   C103 4621   6.356   1.703   7.968 -0.1182  0.7503  0.0391
   10MOL   C104 4622   6.439   1.607   0.047 -0.5153  0.5222  0.0100
   10MOL   C105 4623   6.213   1.658   7.984  0.0494  0.1016 -0.4943
   10MOL   O106 4624   6.123   1.742   7.992  0.2263 -0.2703  0.1926
   10MOL   O107 4625   6.190   1.526   7.980 -0.2343 -0.7963 -0.4103
   10MOL   C108 4626   6.060   1.479   8.007 -0.0524  0.3128  0.4282
   10MOL   C109 4627   6.053   1.330   0.015 -0.2395 -0.6709 -0.5052
   10MOL   C110 4628   5.953   1.255   7.954  0.4764 -0.2571  0.0948
   10MOL   C111 4629   5.950   1.116   7.966 -0.1184 -0.2772  0.0505
   10MOL   C112 4630   6.039   1.055   0.053 -0.2961  0.1642  0.5732
   10MOL   C113 4631   6.147   1.132   0.104  0.4288  0.4587 -0.7026
   10MOL   C114 4632   6.151   1.268   0.090 -0.0730  0.3498 -0.3143
   10MOL   H115 4633   6.366   1.783   7.774  0.0613 -0.1715 -1.4509
   10MOL   H116 4634   6.508   1.687   7.827 -0.5422  0.8572 -0.2772
   10MOL   H117 4635   6.458   1.517   7.996 -0.6490  0.9060 -0.6274
   10MOL   H118 4636   6.393   1.587   0.144  0.2792  1.7436  0.6592
   10MOL   H119 4637   6.538   1.651   0.058 -0.8381  2.1616 -3.1811
   10MOL   H120 4638   6.018   1.525   0.089 -1.5652 -1.9808  0.9363
   10MOL   H121 4639   6.001   1.516   7.923  1.6805  0.0262 -0.9397
   10MOL   H122 4640   5.888   1.315   7.893 -0.8207 -0.4794  1.2377
   10MOL   H123 4641   5.882   1.057   7.907  1.0994  0.9940 -2.7298
   10MOL   H124 4642   6.027   0.949   0.072  3.0843 -0.6745 -1.5802
   10MOL   H125 4643   6.225   1.090   0.166  1.2313  1.5867 -0.9467
   10MOL   H126 4644   6.236   1.319   0.133  0.1933  1.7224 -2.4277
   10MOL   C127 4645   6.383   1.863   7.998  0.7959  0.2203 -0.2326
   10MOL   C128 4646   6.363   1.927   0.136 -0.1071 -0.0791 -0.4366
   10MOL   C129 4647   6.461   1.854   0.249 -0.2685 -1.2021 -0.0164
   10MOL   C130 4648   6.218   1.918   0.197  0.1810  0.1112  0.0713
   10MOL   O131 4649   6.200   1.889   0.316  0.2777 -0.5512  0.2773
   10MOL   O132 4650   6.121   1.974   0.115 -0.3221 -0.5773 -0.3971
   10MOL   C133 4651   5.980   1.988   0.152 -0.3578 -0.0681  0.4179
   10MOL   C134 4652   5.898   2.072   0.057 -0.2398 -0.1452  0.7640
   10MOL   C135 4653   5.788   2.146   0.104  0.7327  0.5953 -0.3357
   10MOL   C136 4654   5.706   2.205   0.004  0.1697  0.6339 -0.4701
   10MOL   C137 4655   5.728   2.206   7.874 -0.4760  0.6505  0.3468
   10MOL   C138 4656   5.839   2.131   7.831 -0.0960  0.3266 -0.5287
   10MOL   C139 4657   5.925   2.060   7.923  0.6435 -0.3681  0.5151
   10MOL   H140 4658   6.331   1.928   7.928  2.0957  4.1428  2.2711
   10MOL   H141 4659   6.487   1.875   7.966  0.5042 -1.2782 -1.8551
   10MOL   H142 4660   6.497   1.928   0.321 -0.5541 -0.0506 -1.0480
   10MOL   H143 4661   6.558   1.819   0.211 -0.6939 -0.8363 -1.4770
   10MOL   H144 4662   6.409   1.774   0.300 -0.3122 -1.5787 -0.6498
   10MOL   H145 4663   5.944   1.886   0.137  0.6740 -0.2747 -0.7197
   10MOL   H146 4664   5.967   2.030   0.252 -0.8384  0.6803  0.0489
   10MOL   H147 4665   5.769   2.159   0.209 -0.1396  2.9635 -0.7642
   10MOL   H148 4666   5.622   2.261   0.042 -0.4339 -0.5229 -0.0767
   10MOL   H149 4667   5.658   2.246   7.802  1.2935 -0.7473 -2.2690
   10MOL   H150 4668   5.844   2.101   7.727  0.9306  1.6827 -0.8772
   10MOL   H151 4669   6.000   1.987   7.894 -0.6754 -1.5277 -0.0301
   10MOL   C152 4670   6.404   2.082   0.136  0.2012 -0.3057  0.4888
   10MOL   C153 4671   6.526   2.157   0.065 -0.1520 -0.1106 -0.2950
   10MOL   C154 4672   6.489   2.174   7.925  0.1186  0.7972 -1.0387
   10MOL   C155 4673   6.652   2.070   0.083  0.2615 -0.1962  0.1894
   10MOL   O156 4674   6.702   2.047   0.196  0.2170  0.1701  0.0470
   10MOL   O157 4675   6.697   2.022   7.976 -0.6328 -0.1509  0.6364
   10MOL   C158 4676   6.827   1.964   7.964  0.5329  0.2225  0.3643
   10MOL   C159 4677   6.826   1.816   7.929 -0.3963 -1.1994  0.2094
   10MOL   C160 4678   6.785   1.720   0.019  0.4061  0.3082 -1.0661
   10MOL   C161 4679   6.805   1.579   0.001  0.4573 -0.1896  0.3893
   10MOL   C162 4680   6.870   1.535   7.894 -0.0441 -0.1961 -0.6271
   10MOL   C163 4681   6.907   1.629   7.796 -0.5011 -0.2144  0.4214
   10MOL   C164 4682   6.891   1.767   7.809 -0.2214  0.0466 -0.0707
   10MOL   H165 4683   6.423   2.114   0.238  0.6656 -0.2216  0.3772
   10MOL   H166 4684   6.313   2.132   0.102 -0.5555  0.0240  2.9091
   10MOL   H167 4685   6.459   2.085   7.869 -0.4632  2.0378 -2.7371
   10MOL   H168 4686   6.576   2.208   7.869  0.8291  1.1135  0.2380
   10MOL   H169 4687   6.398   2.228   7.901 -0.7418 -0.4383 -0.6074
   10MOL   H170 4688   6.883   2.018   7.888 -0.4249  0.4545 -0.1764
   10MOL   H171 4689   6.878   1.964   0.054  0.1410 -0.6333  0.5779
   10MOL   H172 4690   6.737   1.759   0.108 -0.4414 -0.2018 -1.3022
   10MOL   H173 4691   6.764   1.512   0.076  0.6530 -1.3672 -0.5410
   10MOL   H174 4692   6.893   1.430   7.889 -2.3356 -0.7204 -0.6600
   10MOL   H175 4693   6.962   1.590   7.711  0.5349  0.1626  0.9140
   10MOL   H176 4694   6.923   1.837   7.732 -2.3360  3.4128  1.9707
   10MOL   C177 4695   6.556   2.297   0.136  0.6680  0.5869 -0.1812
   10MOL   C178 4696   6.627   2.424   0.067  0.3084 -0.1198 -0.5654
   10MOL   C179 4697   6.630   2.539   0.176  0.4481 -0.4122 -0.1301
   10MOL   C180 4698   6.531   2.475   7.961 -0.3210  0.1824  0.0010
   10MOL   O181 4699   6.556   2.455   7.841 -0.6416 -0.3043  0.4602
   10MOL   O182 4700   6.419   2.542   8.005  0.2663  0.2901 -0.5947
   10MOL   C183 4701   6.297   2.541   7.933 -0.0244  0.1608  0.4783
   10MOL   C184 4702   6.181   2.606   0.003  0.3069  0.9263 -0.4897
   10MOL   C185 4703   6.190   2.748   0.024  0.0597 -0.0436  0.0767
   10MOL   C186 4704   6.085   2.817   0.086 -0.6185 -0.4065  0.6668
   10MOL   C187 4705   5.975   2.741   0.125 -0.2038 -0.1045 -0.1054
   10MOL   C188 4706   5.964   2.600   0.101  0.3473 -0.2436  0.0844
   10MOL   C189 4707   6.070   2.529   0.046 -0.4429  0.4822  0.3077
   10MOL   H190 4708   6.598   2.280   0.235  0.3883  3.1627  0.4222
   10MOL   H191 4709   6.459   2.337   0.167  0.7813  0.2542  0.6087
   10MOL   H192 4710   6.653   2.631   0.123  1.8068 -1.4783 -1.4127
   10MOL   H193 4711   6.691   2.515   0.264 -2.2859  1.2130  2.2880
   10MOL   H194 4712   6.536   2.562   0.226  1.0744 -0.1282  0.9420
   10MOL   H195 4713   6.307   2.588   7.835 -1.1063 -1.7142 -0.5722
   10MOL   H196 4714   6.274   2.439   7.903  1.1735 -0.0165  0.1197
   10MOL   H197 4715   6.283   2.802   0.009  1.6152 -2.9877 -1.3215
   10MOL   H198 4716   6.085   2.922   0.112  0.5700 -0.6458  1.6420
   10MOL   H199 4717   5.887   2.783   0.171  0.9013  0.3403  1.6639
   10MOL   H200 4718   5.881   2.549   0.147 -0.3126  0.0295 -0.7968
   10MOL   H201 4719   6.073   2.422   0.034  0.9782  0.8335 -2.8458
   10MOL   C202 4720   6.771   2.383   0.019  0.3724 -0.1782 -0.3373
   10MOL   C203 4721   6.907   2.466   0.006 -0.2977 -0.6312  0.5653
   10MOL   C204 4722   7.009   2.354   7.972  0.0016  0.0368 -0.4477
   10MOL   C205 4723   6.945   2.534   0.142  0.4926 -0.0502 -1.2156
   10MOL   O206 4724   6.979   2.651   0.147  0.3912  0.3973 -0.3818
   10MOL   O207 4725   6.946   2.444   0.251 -0.2415 -0.9071 -0.2162
   10MOL   C208 4726   6.980   2.495   0.382 -0.0006 -0.2604 -0.3010
   10MOL   C209 4727   6.901   2.429   0.490 -0.6596  0.3796 -0.3588
   10MOL   C210 4728   6.861   2.491   0.614  0.6828 -0.0409 -0.1207
   10MOL   C211 4729   6.777   2.428   0.706 -0.4253  0.4587  0.3114
   10MOL   C212 4730   6.723   2.299   0.674  0.1606  0.6583 -0.0406
   10MOL   C213 4731   6.764   2.237   0.558  0.3810 -0.6846  0.7466
   10MOL   C214 4732   6.850   2.298   0.467 -0.4837 -0.2844  0.0237
   10MOL   H215 4733   6.750   2.322   7.939 -1.4326 -0.3035  0.1629
   10MOL   H216 4734   6.795   2.309   0.096  0.2133 -1.0163 -1.0910
   10MOL   H217 4735   6.981   2.273   0.033 -1.0680  0.7918  0.0152
   10MOL   H218 4736   7.115   2.375   7.984 -0.3677  1.7079 -0.0815
   10MOL   H219 4737   6.981   2.315   7.874 -1.6360 -1.0163  0.4204
   10MOL   H220 4738   7.087   2.474   0.389  0.3681  1.1859 -1.3665
   10MOL   H221 4739   6.959   2.602   0.376 -0.5954 -0.3925 -0.6273
   10MOL   H222 4740   6.905   2.589   0.623  1.3990 -0.5775  2.4078
   10MOL   H223 4741   6.737   2.482   0.791 -1.1157 -0.7721  0.7815
   10MOL   H224 4742   6.652   2.259   0.745  0.7929  0.4954  0.5046
   10MOL   H225 4743   6.728   2.137   0.540 -0.1342 -0.1840 -1.1136
   10MOL   H226 4744   6.883   2.236   0.385 -4.1923 -1.3288 -0.7818
   10MOL   C227 4745   6.897   2.571   7.896  0.2639  0.8967 -0.1110
   10MOL   C228 4746   7.010   2.646   7.814  0.1629 -0.1620 -0.1223
   10MOL   C229 4747   7.089   2.547   7.726 -0.2896 -0.0250  0.5778
   10MOL   C230 4748   7.124   2.713   7.900 -0.5989 -0.7460 -0.6292
   10MOL   O231 4749   7.144   2.837   7.903 -0.0934 -0.3604  0.1200
   10MOL   O232 4750   7.203   2.625   7.963 -0.1276 -0.2775  0.2141
   10MOL   C233 4751   7.314   2.671   0.030  0.1545 -0.4904  0.3764
   10MOL   C234 4752   7.414   2.563   0.051 -0.5470 -0.1341 -0.3673
   10MOL   C235 4753   7.525   2.590   0.137 -0.0902  0.3442 -0.4278
   10MOL   C236 4754   7.620   2.492   0.168  0.8196  0.9587  0.3727
   10MOL   C237 4755   7.607   2.365   0.113  0.0974 -0.0830  0.2305
   10MOL   C238 4756   7.494   2.335   0.026  0.0224 -0.3617  0.9712
   10MOL   C239 4757   7.405   2.437   8.000 -0.6734  0.8865 -0.3021
   10MOL   H240 4758   6.828   2.647   7.934  0.1348  0.4375  0.5940
   10MOL   H241 4759   6.822   2.520   7.835 -1.3232  0.9799  1.7151
   10MOL   H242 4760   7.161   2.586   7.654  0.5881 -0.1333  1.3974
   10MOL   H243 4761   7.026   2.477   7.671 -1.3646  1.2558  0.1382
   10MOL   H244 4762   7.143   2.482   7.795 -0.5199  0.0483  0.8300
   10MOL   H245 4763   7.353   2.763   7.995  0.2972 -0.7476 -0.0618
   10MOL   H246 4764   7.281   2.701   0.130 -0.5123  2.9937 -0.8176
   10MOL   H247 4765   7.525   2.683   0.191 -0.2507  0.6366 -0.9216
   10MOL   H248 4766   7.698   2.516   0.238 -0.1246  1.6109  1.2093
   10MOL   H249 4767   7.671   2.283   0.143  1.8000  0.5647 -1.4814
   10MOL   H250 4768   7.490   2.241   7.979  0.2748  0.7092 -0.9495
   10MOL   H251 4769   7.328   2.413   7.928  0.5778 -3.1486 -0.4454
   10MOL   C252 4770   6.936   2.758   7.728 -0.4268 -0.4879 -0.7398
   10MOL   C253 4771   6.869   2.724   7.586  0.1013  1.2744 -1.3763
   10MOL   C254 4772   6.767   2.605   7.598 -0.4873  0.9714 -0.1483
   10MOL   C255 4773   6.980   2.697   7.483  0.0374  0.2812  0.9045
   10MOL   O256 4774   6.999   2.587   7.428  0.6016 -0.1431 -0.1765
   10MOL   O257 4775   7.055   2.807   7.465  0.1858  0.0615 -0.1553
   10MOL   C258 4776   7.184   2.810   7.388  0.2300 -0.4388 -0.0185
   10MOL   C259 4777   7.298   2.773   7.482  0.0452 -0.4639 -0.2052
   10MOL   C260 4778   7.302   2.833   7.611 -0.3539 -0.2795  0.2583
   10MOL   C261 4779   7.399   2.798   7.702  0.0808 -0.1187 -0.2846
   10MOL   C262 4780   7.495   2.697   7.663  0.0850 -0.6958  0.3054
   10MOL   C263 4781   7.483   2.629   7.539 -0.6063 -0.2209  0.4993
   10MOL   C264 4782   7.383   2.670   7.449 -0.0402 -0.2405  0.8384
   10MOL   H265 4783   7.011   2.836   7.712 -0.1648 -1.1993 -3.2283
   10MOL   H266 4784   6.869   2.813   7.794  1.3961 -1.3880  1.9580
   10MOL   H267 4785   6.676   2.631   7.652 -2.2230 -0.2003 -2.4188
   10MOL   H268 4786   6.801   2.514   7.647 -1.9276  1.0211  0.9711
   10MOL   H269 4787   6.727   2.562   7.506 -3.6795  1.1409  1.0913
   10MOL   H270 4788   7.184   2.732   7.312 -0.0926  0.3635 -0.8512
   10MOL   H271 4789   7.207   2.910   7.350  0.0750 -0.5158 -0.3098
   10MOL   H272 4790   7.225   2.901   7.645  0.8757  2.2026 -1.7438
   10MOL   H273 4791   7.407   2.847   7.798 -1.1982 -1.4163  0.5175
   10MOL   H274 4792   7.574   2.675   7.733 -0.2083  0.2891  0.9479
   10MOL   H275 4793   7.553   2.552   7.510  0.3205 -0.6313  3.6266
   10MOL   H276 4794   7.375   2.628   7.350 -1.8206  1.7705  0.0901
   10MOL   C277 4795   6.795   2.864   7.552  0.0362  0.6383  0.7784
   10MOL   C278 4796   6.730   2.884   7.407  0.5321  0.9205  0.1763
   10MOL   C279 4797   6.698   2.753   7.333  0.3376  0.0194  0.0004
   10MOL   C280 4798   6.819   2.980   7.327  0.2718 -0.4475 -0.2553
   10MOL   O281 4799   6.849   2.947   7.214  0.3394 -0.1140  0.2849
   10MOL   O282 4800   6.847   3.102   7.392  0.0137 -0.1647 -0.2128
   10MOL   C283 4801   6.925   3.199   7.324 -0.2159  0.4999  0.4039
   10MOL   C284 4802   7.077   3.177   7.334  0.7659  0.4632 -0.0515
   10MOL   C285 4803   7.147   3.166   7.216 -0.1038  0.0972  0.7140
   10MOL   C286 4804   7.288   3.165   7.214  0.3331  0.3597 -0.4300
   10MOL   C287 4805   7.360   3.157   7.338  0.3616  0.3986  0.7716
   10MOL   C288 4806   7.286   3.164   7.462  0.0670 -0.4794  0.7262
   10MOL   C289 4807   7.145   3.178   7.457 -1.1778 -0.1209  0.6448
   10MOL   H290 4808   6.854   2.952   7.579 -0.0924  0.8191  0.4795
   10MOL   H291 4809   6.718   2.877   7.628  0.0778 -0.9523  1.1149
   10MOL   H292 4810   6.775   2.677   7.342 -0.0268 -0.1906  1.4761
   10MOL   H293 4811   6.683   2.772   7.226 -1.9392 -0.1166  0.2758
   10MOL   H294 4812   6.606   2.711   7.374 -0.5273 -2.4450 -4.2107
   10MOL   H295 4813   6.896   3.220   7.221  2.8764 -1.7434 -1.0107
   10MOL   H296 4814   6.905   3.293   7.376  0.4937  1.1774 -0.5261
   10MOL   H297 4815   7.107   3.158   7.117 -0.0805  0.5985  0.6641
   10MOL   H298 4816   7.348   3.143   7.127 -0.8343  1.1117 -1.4379
   10MOL   H299 4817   7.468   3.153   7.338  0.4518  2.3560  0.9070
   10MOL   H300 4818   7.348   3.157   7.551  0.8953  0.3026  0.2181
   10MOL   H301 4819   7.089   3.188   7.549  0.2101 -1.7107  1.6935
   10MOL   C302 4820   6.597   2.959   7.434 -0.1854 -0.3506  0.2477
   10MOL   C303 4821   6.497   3.011   7.325  0.6100 -0.0857  0.1692
   10MOL   C304 4822   6.542   3.150   7.273 -0.3854  0.4733 -0.3935
   10MOL   C305 4823   6.366   3.026   7.404  0.1588  0.1589  0.6382
   10MOL   O306 4824   6.327   3.129   7.452 -0.0224 -0.2168 -0.6214
   10MOL   O307 4825   6.306   2.905   7.430  0.2070  0.6462 -0.4477
   10MOL   C308 4826   6.178   2.903   7.492  0.0155  0.1772 -0.1126
   10MOL   C309 4827   6.132   2.767   7.523 -0.0065 -0.1505 -0.2967
   10MOL   C310 4828   6.104   2.677   7.415  0.1876 -0.2157  0.1588
   10MOL   C311 4829   6.053   2.553   7.449 -0.1241 -0.4900 -0.5485
   10MOL   C312 4830   6.015   2.518   7.579 -0.2739 -0.0417 -0.1081
   10MOL   C313 4831   6.037   2.607   7.683 -0.1139  0.2977 -0.5739
   10MOL   C314 4832   6.099   2.735   7.655 -0.1800 -0.1012 -0.3905
   10MOL   H315 4833   6.620   3.039   7.503  1.3069  0.3848 -1.0569
   10MOL   H316 4834   6.546   2.882   7.491 -0.8040  0.4368  0.7676
   10MOL   H317 4835   6.604   3.156   7.184 -0.5771  1.2309 -0.4833
   10MOL   H318 4836   6.597   3.206   7.347 -0.7631  0.6287 -0.2273
   10MOL   H319 4837   6.451   3.204   7.245 -1.1724 -1.3094 -1.4327
   10MOL   H320 4838   6.193   2.942   7.593 -1.3498 -0.8616  0.5031
   10MOL   H321 4839   6.108   2.963   7.433 -1.9126 -0.9206  0.9976
   10MOL   H322 4840   6.122   2.714   7.316  0.0306  0.3492  0.3393
   10MOL   H323 4841   6.036   2.485   7.367  0.1536 -0.8888 -0.2723
   10MOL   H324 4842   5.980   2.417   7.595  1.1142 -0.1679  2.2666
   10MOL   H325 4843   6.006   2.578   7.782  1.1113  0.7322 -0.0440
   10MOL   H326 4844   6.115   2.799   7.740  0.6934 -0.2483 -0.4375
   10MOL   C327 4845   6.466   2.903   7.206  0.2238 -0.1692  0.1636
   10MOL   C328 4846   6.361   2.924   7.088  0.0317  0.3680  0.2273
   10MOL   C329 4847   6.221   2.962   7.124 -0.1665 -0.0187 -0.5910
   10MOL   C330 4848   6.365   2.784   7.023 -0.8530 -0.2757  0.3639
   10MOL   O331 4849   6.269   2.714   7.025  0.1011 -0.0109  0.1462
   10MOL   O332 4850   6.485   2.759   6.973  0.2607  0.3076  0.4317
   10MOL   C333 4851   6.506   2.634   6.916  0.8550 -0.0850  0.0326
   10MOL   C334 4852   6.653   2.602   6.921  0.0745 -0.6508 -0.1675
   10MOL   C335 4853   6.750   2.698   6.886  0.6450  0.4984  0.2731
   10MOL   C336 4854   6.887   2.675   6.885  0.4279 -0.2438  0.5206
   10MOL   C337 4855   6.929   2.547   6.918 -0.8712  0.4337  0.6266
   10MOL   C338 4856   6.838   2.442   6.952 -0.2870 -1.1161  0.2752
   10MOL   C339 4857   6.698   2.475   6.965  0.7968 -0.1787  0.2006
   10MOL   H340 4858   6.463   2.803   7.250  1.3594 -0.1094  0.3936
   10MOL   H341 4859   6.563   2.912   7.157  0.6242 -0.8730  0.8129
   10MOL   H342 4860   6.200   2.901   7.212  0.1737  0.0448 -0.4653
   10MOL   H343 4861   6.142   2.927   7.057  0.1239 -1.5488 -0.1677
   10MOL   H344 4862   6.215   3.063   7.163 -0.5061 -0.5664  0.8250
   10MOL   H345 4863   6.457   2.552   6.970  1.2192  0.3843  1.0964
   10MOL   H346 4864   6.461   2.630   6.817 -0.5044  1.7932  0.5304
   10MOL   H347 4865   6.724   2.798   6.857  0.1760  0.4755  0.6123
   10MOL   H348 4866   6.969   2.743   6.866 -0.7870  0.5808 -1.9404
   10MOL   H349 4867   7.033   2.524   6.907 -1.1118  0.3886 -1.7263
   10MOL   H350 4868   6.875   2.345   6.980 -0.2809 -1.6356 -1.4579
   10MOL   H351 4869   6.620   2.406   6.994  0.9289  0.3778  1.9865
   10MOL   C352 4870   6.422   3.036   6.988 -0.5943  0.0769 -0.0602
   10MOL   C353 4871   6.350   3.073   6.850  0.4107  0.1904 -0.6224
   10MOL   C354 4872   6.308   2.946   6.760  0.1430  0.1079  0.1876
   10MOL   C355 4873   6.465   3.149   6.776  0.2401 -0.6073 -0.4855
   10MOL   O356 4874   6.480   3.270   6.788  0.2026  0.1935  0.4228
   10MOL   O357 4875   6.551   3.067   6.715  0.5778 -0.0117  0.4058
   10MOL   C358 4876   6.661   3.112   6.638 -0.1312 -0.4280  0.4111
   10MOL   C359 4877   6.795   3.072   6.692  0.1728 -0.4325 -0.1957
   10MOL   C360 4878   6.904   3.066   6.607 -0.2859 -0.1405  0.3323
   10MOL   C361 4879   7.036   3.038   6.658 -0.2609 -0.0168 -0.8084
   10MOL   C362 4880   7.055   3.012   6.789 -0.6349 -0.3347  0.0928
   10MOL   C363 4881   6.942   3.020   6.878  0.3466 -0.4165  1.2827
   10MOL   C364 4882   6.812   3.060   6.832  0.2758  0.2058  0.4416
   10MOL   H365 4883   6.524   3.001   6.979 -0.2158 -0.3874  4.5901
   10MOL   H366 4884   6.413   3.126   7.050 -0.3023  0.1514 -0.1262
   10MOL   H367 4885   6.213   2.907   6.799  0.2199  0.2315  0.5001
   10MOL   H368 4886   6.375   2.860   6.769 -1.6753 -1.3768 -0.1430
   10MOL   H369 4887   6.295   2.961   6.653  0.5044  0.7325  0.2291
   10MOL   H370 4888   6.651   3.059   6.543  3.1004 -1.6659  0.6843
   10MOL   H371 4889   6.662   3.218   6.615 -0.5051 -0.8662 -1.7778
   10MOL   H372 4890   6.887   3.078   6.501  0.6980  2.0458  0.3822
   10MOL   H373 4891   7.114   3.014   6.587  0.0278  1.6467 -1.0690
   10MOL   H374 4892   7.155   2.989   6.823  0.9307  1.2011 -3.3006
   10MOL   H375 4893   6.955   3.020   6.985 -0.8384 -1.0017  1.4316
   10MOL   H376 4894   6.724   3.073   6.894 -1.4739 -0.1799 -1.9040
   10MOL   C377 4895   6.227   3.178   6.878 -0.0698 -0.7198  0.3062
   10MOL   C378 4896   6.126   3.246   6.774  0.3417  0.1183 -0.6522
   10MOL   C379 4897   6.196   3.307   6.649  0.1543 -0.0021 -0.2148
   10MOL   C380 4898   6.059   3.363   6.848  0.2844 -0.3693 -0.0276
   10MOL   O381 4899   6.062   3.479   6.809  0.0498  0.6818 -0.1396
   10MOL   O382 4900   6.002   3.323   6.965  0.2056 -0.8540  0.3416
   10MOL   C383 4901   5.926   3.408   7.053  0.5253  0.4200  0.2357
   10MOL   C384 4902   6.013   3.460   7.167  0.7394 -0.2038  0.2220
   10MOL   C385 4903   6.112   3.380   7.233 -0.2166 -0.3573 -0.0536
   10MOL   C386 4904   6.200   3.440   7.329 -0.2478 -0.1037  0.1812
   10MOL   C387 4905   6.186   3.579   7.363  0.0132 -0.5829 -0.5822
   10MOL   C388 4906   6.091   3.653   7.296 -0.2308 -0.0070 -0.0211
   10MOL   C389 4907   6.010   3.598   7.196 -0.3926 -0.2924 -0.1449
   10MOL   H390 4908   6.264   3.254   6.947  0.7840 -1.4277  0.6409
   10MOL   H391 4909   6.162   3.118   6.941 -1.1395 -0.3702 -0.4417
   10MOL   H392 4910   6.124   3.352   6.581  0.7787  0.7925 -0.3539
   10MOL   H393 4911   6.259   3.233   6.600  1.4124  2.1675 -1.9545
   10MOL   H394 4912   6.261   3.382   6.694  0.7197 -0.3133 -0.5102
   10MOL   H395 4913   5.877   3.488   6.997 -1.4223 -0.2269  0.9813
   10MOL   H396 4914   5.861   3.341   7.109 -0.9299  0.8771 -0.8916
   10MOL   H397 4915   6.134   3.277   7.207 -3.5591 -0.8457 -1.2508
   10MOL   H398 4916   6.282   3.382   7.367  0.0897  0.0775 -0.2700
   10MOL   H399 4917   6.261   3.628   7.423 -1.2455 -1.2594  1.6017
   10MOL   H400 4918   6.088   3.760   7.315 -1.7504  0.0312 -0.3916
   10MOL   H401 4919   5.937   3.662   7.150  0.2949 -1.2161 -2.6024
   10MOL   C402 4920   6.017   3.134   6.736 -0.1731 -0.5368 -1.0134
   10MOL   C403 4921   5.938   3.132   6.595  0.8123  0.2218 -0.0409
   10MOL   C404 4922   6.042   3.104   6.476 -0.0983 -0.6803 -0.2466
   10MOL   C405 4923   5.869   3.271   6.573  0.2785  0.3063 -0.1368
   10MOL   O406 4924   5.840   3.349   6.664  0.0234  0.0818 -0.6055
   10MOL   O407 4925   5.839   3.288   6.443 -0.1560 -0.3799 -0.1896
   10MOL   C408 4926   5.789   3.413   6.402 -0.4364 -0.3193  0.4543
   10MOL   C409 4927   5.904   3.510   6.364 -0.0756  0.8426  0.1337
   10MOL   C410 4928   5.961   3.597   6.455  0.3923 -0.8502  0.1360
   10MOL   C411 4929   6.065   3.682   6.415  0.0389 -0.6132  0.2400
   10MOL   C412 4930   6.121   3.675   6.281  0.2680 -0.3045 -0.2860
   10MOL   C413 4931   6.064   3.580   6.195  1.2343 -0.5111  0.4580
   10MOL   C414 4932   5.958   3.499   6.236 -0.6409  0.1177  0.2394
   10MOL   H415 4933   5.932   3.148   6.803 -0.4857  0.3272 -1.5761
   10MOL   H416 4934   6.057   3.034   6.748 -0.4687 -0.8453 -2.4739
   10MOL   H417 4935   6.097   3.191   6.440 -0.3991 -0.4529 -0.1461
   10MOL   H418 4936   6.007   3.051   6.388 -1.4532  0.4492 -0.4005
   10MOL   H419 4937   6.120   3.045   6.525 -2.7976 -1.8459  2.7566
   10MOL   H420 4938   5.732   3.412   6.309  1.5989 -0.1405 -0.8362
   10MOL   H421 4939   5.723   3.463   6.472 -0.9884  0.3342 -0.5265
   10MOL   H422 4940   5.933   3.600   6.559  0.9752  1.0842  0.2455
   10MOL   H423 4941   6.108   3.757   6.480 -2.2092 -0.5404  1.7315
   10MOL   H424 4942   6.200   3.744   6.258 -0.7700  1.5360  1.4668
   10MOL   H425 4943   6.090   3.556   6.093 -1.6160  0.8943 -0.6392
   10MOL   H426 4944   5.919   3.415   6.179 -1.9183 -1.3300  3.1284
   10MOL   C427 4945   5.823   3.026   6.591  0.7572 -0.2465  0.0830
   10MOL   C428 4946   5.828   2.882   6.658 -0.1094  0.3398 -0.1576
   10MOL   C429 4947   5.688   2.814   6.620  0.3547 -0.6392  0.4188
   10MOL   C430 4948   5.825   2.893   6.816  0.2612 -0.1531  0.3082
   10MOL   O431 4949   5.922   2.872   6.896  0.2429  0.0319  0.1285
   10MOL   O432 4950   5.714   2.953   6.857 -0.0813 -0.8253 -0.2028
   10MOL   C433 4951   5.703   2.997   6.991  0.0966 -0.0511 -0.4879
   10MOL   C434 4952   5.591   3.090   7.010 -0.0687  0.0901 -0.0844
   10MOL   C435 4953   5.588   3.221   6.953  0.0800  0.8331  0.6137
   10MOL   C436 4954   5.478   3.312   6.972  0.4255 -0.1245  0.0780
   10MOL   C437 4955   5.367   3.262   7.042  0.1778 -0.2577  0.2812
   10MOL   C438 4956   5.370   3.124   7.091 -0.2835  0.6029  0.0129
   10MOL   C439 4957   5.480   3.047   7.085 -0.0285 -0.3883  0.2780
   10MOL   H440 4958   5.809   3.004   6.485  1.9440 -1.4579  0.1755
   10MOL   H441 4959   5.731   3.075   6.624  1.3490  0.6225  0.4284
   10MOL   H442 4960   5.595   2.867   6.635 -0.1488 -1.5069  0.3976
   10MOL   H443 4961   5.681   2.718   6.670  0.1489 -1.4013 -1.0300
   10MOL   H444 4962   5.685   2.796   6.512  0.0990  0.6668  0.2035
   10MOL   H445 4963   5.688   2.911   7.057 -0.4527 -0.4277 -1.0993
   10MOL   H446 4964   5.797   3.040   7.026  1.0530 -0.3028 -2.6851
   10MOL   H447 4965   5.683   3.260   6.920 -0.9701 -0.0047 -3.7032
   10MOL   H448 4966   5.468   3.406   6.921  4.1929 -1.6261 -3.6942
   10MOL   H449 4967   5.281   3.326   7.059  0.7131  0.4447  0.3651
   10MOL   H450 4968   5.288   3.088   7.153 -0.4208 -0.9921 -1.0884
   10MOL   H451 4969   5.473   2.959   7.147 -0.6545  1.3264  2.7146
   10MOL   C452 4970   5.947   2.803   6.600  0.5746 -0.5594  0.2058
   10MOL   C453 4971   5.985   2.656   6.614 -0.2569  0.1844 -0.3485
   10MOL   C454 4972   5.949   2.585   6.751  0.1659 -0.3970  0.1789
   10MOL   C455 4973   6.132   2.643   6.582 -0.3303 -0.4150  0.5119
   10MOL   O456 4974   6.214   2.587   6.658 -0.4986 -0.0013 -0.0433
   10MOL   O457 4975   6.159   2.710   6.471 -0.3294 -0.0432 -0.3189
   10MOL   C458 4976   6.287   2.706   6.411  0.3220 -0.1919 -0.4080
   10MOL   C459 4977   6.288   2.776   6.282  0.0970  0.3719 -0.4184
   10MOL   C460 4978   6.366   2.893   6.268  0.0736  0.2123  0.6253
   10MOL   C461 4979   6.360   2.962   6.146  0.5971  0.2056  0.5270
   10MOL   C462 4980   6.283   2.909   6.037  0.0597 -0.4615  0.5841
   10MOL   C463 4981   6.197   2.803   6.056  0.1546 -0.2029 -0.0739
   10MOL   C464 4982   6.193   2.738   6.180  0.3300  0.0235  0.1996
   10MOL   H465 4983   6.030   2.856   6.645  0.7331  0.6212 -1.4398
   10MOL   H466 4984   5.945   2.836   6.496 -2.8954 -1.2352 -0.0217
   10MOL   H467 4985   5.842   2.582   6.773  0.3620  2.2105  1.6901
   10MOL   H468 4986   5.989   2.650   6.829  0.1510  1.2610 -1.1534
   10MOL   H469 4987   5.987   2.484   6.764  0.9623 -0.5045 -2.6339
   10MOL   H470 4988   6.355   2.759   6.478 -1.6543  0.5340  1.0685
   10MOL   H471 4989   6.317   2.604   6.384 -2.4806 -1.0656 -0.3366
   10MOL   H472 4990   6.426   2.930   6.350  0.3521  0.2101  0.4222
   10MOL   H473 4991   6.432   3.039   6.121 -1.8704  2.0849 -0.9761
   10MOL   H474 4992   6.294   2.955   5.940  2.4733 -1.4997  0.3467
   10MOL   H475 4993   6.142   2.765   5.971  0.4225  0.3788 -0.5024
   10MOL   H476 4994   6.137   2.649   6.206 -0.9879  0.9995  0.7203
   10MOL   C477 4995   5.903   2.584   6.505 -0.3275  0.7407  0.8365
   10MOL   C478 4996   5.946   2.444   6.466  0.4033 -0.0047  0.1038
   10MOL   C479 4997   6.008   2.420   6.333 -0.4779  0.0465 -0.2880
   10MOL   C480 4998   5.825   2.344   6.475  0.0492  0.3396  0.0783
   10MOL   O481 4999   5.831   2.239   6.535  0.3238  0.2949 -0.6601
   10MOL   O482 5000   5.722   2.378   6.402 -0.2633 -0.0859  0.2127
   10MOL   C483 5001   5.602   2.296   6.393 -0.4530 -0.3105 -0.0682
   10MOL   C484 5002   5.473   2.372   6.372  0.2126 -0.8380  0.2997
   10MOL   C485 5003   5.478   2.512   6.369 -0.0742 -0.1264  0.0971
   10MOL   C486 5004   5.364   2.589   6.344 -1.0640  0.1809  0.0996
   10MOL   C487 5005   5.240   2.528   6.329 -0.5660  0.0699  0.7220
   10MOL   C488 5006   5.228   2.387   6.345 -0.0326  0.3256  0.1308
   10MOL   C489 5007   5.345   2.310   6.371 -0.5474  0.1521  0.1397
   10MOL   H490 5008   5.898   2.647   6.416  2.1038  1.6959  1.3399
   10MOL   H491 5009   5.801   2.587   6.544 -1.2366  0.2111 -1.4076
   10MOL   H492 5010   5.962   2.475   6.250  0.0391 -0.3779 -0.8565
   10MOL   H493 5011   6.008   2.312   6.320  0.2136  0.2897 -2.4548
   10MOL   H494 5012   6.111   2.453   6.341 -0.6465  0.4636  0.1679
   10MOL   H495 5013   5.618   2.223   6.313 -1.0603 -0.5181 -0.0050
   10MOL   H496 5014   5.589   2.249   6.490  1.0095  0.7365  0.6454
   10MOL   H497 5015   5.569   2.569   6.359  0.3163 -0.2620  2.5520
   10MOL   H498 5016   5.376   2.696   6.335  0.6878 -0.0282 -0.4229
   10MOL   H499 5017   5.153   2.591   6.313 -0.0421  1.1290  1.8940
   10MOL   H500 5018   5.129   2.343   6.339  0.3671 -0.3494 -1.6632
   10MOL   H501 5019   5.332   2.205   6.392  1.2683 -0.3310 -0.9526
   10MOL   H502 5020   6.016   2.409   6.542 -1.6208  0.3646  2.1717
   11MOL     C1 5021   4.046   3.415   2.760  0.1187  0.1146 -0.1270
   11MOL     C2 5022   3.985   3.556   2.727 -1.0227  0.0728 -0.3490
   11MOL     C3 5023   3.988   3.641   2.855 -0.2399  0.4059  0.7044
   11MOL     C4 5024   3.840   3.550   2.675 -0.7120 -0.4879 -0.2278
   11MOL     O5 5025   3.798   3.610   2.573 -0.3070  0.3748 -0.1615
   11MOL     O6 5026   3.762   3.474   2.761  0.0689 -0.3830  0.2684
   11MOL     C7 5027   3.626   3.459   2.744 -0.0645 -0.2793 -0.5546
   11MOL     C8 5028   3.546   3.568   2.815 -0.1962  0.9767 -0.4573
   11MOL     C9 5029   3.590   3.604   2.944  1.0231  0.0556 -0.2564
   11MOL    C10 5030   3.522   3.707   3.012 -0.1686 -0.0918  0.4574
   11MOL    C11 5031   3.410   3.772   2.953  1.1692  0.4815 -0.1771
   11MOL    C12 5032   3.363   3.732   2.822 -0.0393  0.6179 -0.7488
   11MOL    C13 5033   3.428   3.622   2.763  0.6921  0.1175  0.6120
   11MOL    H14 5034   3.977   3.340   2.798  0.2567  0.0938  0.0852
   11MOL    H15 5035   4.104   3.365   2.682 -0.3376  1.2888 -1.2270
   11MOL    H16 5036   3.909   3.613   2.924 -1.4764  1.1689 -0.3844
   11MOL    H17 5037   3.977   3.746   2.827 -0.1931 -0.1429 -1.4862
   11MOL    H18 5038   4.081   3.627   2.911 -1.1315  0.1965  2.1594
   11MOL    H19 5039   3.595   3.473   2.641 -3.2629  2.1126  0.6279
   11MOL    H20 5040   3.597   3.355   2.762 -0.9731  0.2106  0.9223
   11MOL    H21 5041   3.684   3.569   2.985  0.2154 -1.8867  0.0240
   11MOL    H22 5042   3.554   3.746   3.108  0.3792  0.3066  0.1133
   11MOL    H23 5043   3.361   3.850   3.010  1.8721  1.1246 -0.4524
   11MOL    H24 5044   3.281   3.782   2.773  1.4065  1.1555 -2.6718
   11MOL    H25 5045   3.389   3.576   2.674  0.4455  2.1776 -0.3708
   11MOL    H26 5046   4.128   3.431   2.830  1.2915 -0.5517 -1.3222
   11MOL    C27 5047   4.071   3.641   2.627 -0.1983  0.2176 -1.0176
   11MOL    C28 5048   4.144   3.591   2.494  0.5117 -0.6572 -1.0010
   11MOL    C29 5049   4.055   3.494   2.417  0.2535 -0.6956 -0.2771
   11MOL    C30 5050   4.265   3.498   2.525 -0.6897  0.1105 -0.3590
   11MOL    O31 5051   4.306   3.482   2.644 -0.2620 -0.3640  0.1610
   11MOL    O32 5052   4.302   3.424   2.410  0.6840 -1.0137 -0.1383
   11MOL    C33 5053   4.399   3.321   2.421 -0.2723  0.5237 -0.2213
   11MOL    C34 5054   4.536   3.365   2.380 -0.2749  0.5522 -0.3356
   11MOL    C35 5055   4.607   3.297   2.275 -0.2164 -0.7782 -0.0837
   11MOL    C36 5056   4.741   3.342   2.254  0.3506  0.6587 -0.1201
   11MOL    C37 5057   4.806   3.448   2.327  0.6223 -0.3972  0.0084
   11MOL    C38 5058   4.728   3.513   2.421 -0.0931 -0.5244  0.1395
   11MOL    C39 5059   4.599   3.465   2.453 -0.8308  0.0113  0.1288
   11MOL    H40 5060   4.143   3.701   2.682 -0.5812 -1.5123  1.4209
   11MOL    H41 5061   4.001   3.720   2.599 -2.0193 -1.3032 -0.8940
   11MOL    H42 5062   3.957   3.541   2.411  1.0554  0.9557 -0.8428
   11MOL    H43 5063   4.047   3.390   2.448 -1.3135 -0.2449  0.8981
   11MOL    H44 5064   4.083   3.484   2.312 -1.0425  1.6956 -0.8896
   11MOL    H45 5065   4.402   3.306   2.529 -0.8569 -1.3670 -0.4603
   11MOL    H46 5066   4.364   3.233   2.368 -1.6967  0.3310  1.0011
   11MOL    H47 5067   4.564   3.206   2.235 -1.6457  1.0884 -2.9114
   11MOL    H48 5068   4.795   3.297   2.172  2.1837  0.4499  1.1807
   11MOL    H49 5069   4.910   3.475   2.312  0.9345 -0.8082  1.4102
   11MOL    H50 5070   4.752   3.597   2.485 -0.0638 -0.5323  0.1391
   11MOL    H51 5071   4.562   3.524   2.535 -0.6936  1.3957 -0.7840
   11MOL    C52 5072   4.182   3.708   2.399  1.3452 -0.0101 -0.1353
   11MOL    C53 5073   4.252   3.842   2.445 -0.2362 -0.6793  0.0127
   11MOL    C54 5074   4.378   3.801   2.528  0.3623  0.2709 -0.4814
   11MOL    C55 5075   4.172   3.940   2.533  0.7294  0.5923 -0.5840
   11MOL    O56 5076   4.221   3.996   2.628 -0.5253 -0.1950  0.7182
   11MOL    O57 5077   4.053   3.967   2.484  0.5336 -0.7324 -0.2051
   11MOL    C58 5078   3.966   4.062   2.540  0.1535 -0.4065 -0.0251
   11MOL    C59 5079   3.892   4.024   2.668  0.3352 -0.4217 -0.3452
   11MOL    C60 5080   3.907   4.102   2.788 -0.5934  0.4653 -0.3783
   11MOL    C61 5081   3.845   4.062   2.908  0.3630 -0.2442 -0.4275
   11MOL    C62 5082   3.766   3.946   2.913  1.0319  0.5099  0.5537
   11MOL    C63 5083   3.752   3.870   2.799  0.1098  0.0084 -0.3980
   11MOL    C64 5084   3.814   3.910   2.677 -0.0309  0.3271 -0.1588
   11MOL    H65 5085   4.093   3.734   2.342  1.3866  3.3459  1.2262
   11MOL    H66 5086   4.252   3.658   2.331  1.1032  0.4610 -0.7321
   11MOL    H67 5087   4.456   3.739   2.484  0.8560  0.9418 -0.5641
   11MOL    H68 5088   4.348   3.758   2.623  2.0606  0.6669  0.2538
   11MOL    H69 5089   4.430   3.894   2.554  2.7919 -0.9022 -1.0336
   11MOL    H70 5090   4.021   4.155   2.556  0.3841 -0.1745 -1.9499
   11MOL    H71 5091   3.891   4.091   2.465 -1.5608  1.1541  2.2266
   11MOL    H72 5092   3.942   4.204   2.784 -1.3684  0.7203 -0.7325
   11MOL    H73 5093   3.875   4.110   3.000 -3.3635  1.3166  0.0702
   11MOL    H74 5094   3.724   3.906   3.004  1.6514  1.2543  1.1722
   11MOL    H75 5095   3.693   3.780   2.796  0.9342 -0.5268 -0.6049
   11MOL    H76 5096   3.802   3.848   2.589 -2.7555  0.6728 -0.0871
   11MOL    C77 5097   4.308   3.900   2.306  0.3861  0.5745  0.0672
   11MOL    C78 5098   4.406   4.021   2.274  0.4371  0.3553 -0.2666
   11MOL    C79 5099   4.548   3.991   2.343 -0.5549  0.1117  0.4410
   11MOL    C80 5100   4.350   4.152   2.325 -0.3369  1.0723  0.4480
   11MOL    O81 5101   4.235   4.174   2.365 -0.1479  0.1073 -0.0191
   11MOL    O82 5102   4.447   4.252   2.323  0.0920  0.7762  0.3659
   11MOL    C83 5103   4.413   4.382   2.353  0.5624 -0.1678  0.1614
   11MOL    C84 5104   4.520   4.454   2.443  0.8703  0.1552 -0.9502
   11MOL    C85 5105   4.473   4.552   2.531  0.0714 -0.1542  0.3826
   11MOL    C86 5106   4.564   4.632   2.599  0.3352 -0.3900 -0.1142
   11MOL    C87 5107   4.698   4.623   2.563 -0.5594 -0.4460  0.1622
   11MOL    C88 5108   4.746   4.525   2.474 -0.1326 -0.2879  0.1589
   11MOL    C89 5109   4.652   4.443   2.412 -1.0620 -0.3137  0.5611
   11MOL    H90 5110   4.220   3.920   2.245  0.2584  0.5276  0.2372
   11MOL    H91 5111   4.354   3.817   2.252 -1.1774 -0.6685  0.6133
   11MOL    H92 5112   4.627   4.029   2.278 -1.1768 -0.5149 -0.7049
   11MOL    H93 5113   4.562   3.886   2.368 -0.0368  0.6521  2.5156
   11MOL    H94 5114   4.562   4.045   2.436  1.3561  0.4884 -0.0322
   11MOL    H95 5115   4.380   4.440   2.267 -1.3699 -1.9012 -0.3029
   11MOL    H96 5116   4.329   4.370   2.421  0.4545  0.9887  0.2380
   11MOL    H97 5117   4.368   4.572   2.542  0.1928  1.0724 -0.5249
   11MOL    H98 5118   4.535   4.712   2.665  4.5196  1.6661 -0.5890
   11MOL    H99 5119   4.761   4.699   2.608 -2.7528  1.0784  0.7186
   11MOL   H100 5120   4.850   4.525   2.446  0.1291  0.5584  1.0958
   11MOL   H101 5121   4.690   4.376   2.336 -0.8364  1.2553 -0.7637
   11MOL   C102 5122   4.436   4.025   2.117 -0.0254  1.3237 -0.1154
   11MOL   C103 5123   4.328   4.009   1.998 -0.1864  0.2742  0.0397
   11MOL   C104 5124   4.216   4.114   2.022 -0.0776 -0.2203  0.1426
   11MOL   C105 5125   4.282   3.857   1.993 -0.2705  0.0957 -0.3828
   11MOL   O106 5126   4.177   3.817   2.037  0.1868  0.0789 -0.2213
   11MOL   O107 5127   4.382   3.773   1.950  0.0075 -0.0891  0.3453
   11MOL   C108 5128   4.370   3.636   1.926 -0.2303  0.2083 -0.4603
   11MOL   C109 5129   4.483   3.571   1.844  0.1598  0.0197  0.5253
   11MOL   C110 5130   4.580   3.490   1.906  0.6181 -0.9335 -0.4599
   11MOL   C111 5131   4.687   3.430   1.830  0.2285 -0.1116  0.2105
   11MOL   C112 5132   4.709   3.465   1.695  0.3735  0.8103 -0.3617
   11MOL   C113 5133   4.610   3.546   1.637 -0.0556  0.1821  0.0927
   11MOL   C114 5134   4.500   3.596   1.707 -0.9733  1.2670  0.3821
   11MOL   H115 5135   4.517   3.956   2.095 -0.4158  0.5780  0.7415
   11MOL   H116 5136   4.479   4.123   2.098  0.6515  1.0015 -0.2819
   11MOL   H117 5137   4.262   4.213   2.021 -0.3283 -0.0945  0.8634
   11MOL   H118 5138   4.172   4.102   2.121  1.8010 -3.0126  0.6941
   11MOL   H119 5139   4.141   4.101   1.943  2.9558 -1.1249 -2.7073
   11MOL   H120 5140   4.363   3.575   2.016  0.9116  0.1368 -0.4250
   11MOL   H121 5141   4.286   3.624   1.857 -1.8375  1.9811  1.0943
   11MOL   H122 5142   4.582   3.471   2.012 -0.7148  0.2464 -0.2102
   11MOL   H123 5143   4.752   3.371   1.893 -0.3749  0.5154  1.4384
   11MOL   H124 5144   4.793   3.431   1.638 -0.3596 -0.1570 -0.8664
   11MOL   H125 5145   4.638   3.582   1.539 -1.6830  0.1350 -0.4094
   11MOL   H126 5146   4.432   3.673   1.674 -0.7846  0.7420 -1.2582
   11MOL   C127 5147   4.404   4.035   1.862 -0.0540 -0.5863 -0.6395
   11MOL   C128 5148   4.338   4.073   1.725 -0.8465  0.6413  0.5409
   11MOL   C129 5149   4.342   4.223   1.697  0.3726  0.4397 -0.3310
   11MOL   C130 5150   4.197   4.012   1.700 -0.4325  0.0148 -0.2257
   11MOL   O131 5151   4.096   4.082   1.686 -0.0588  0.4932  0.2500
   11MOL   O132 5152   4.188   3.877   1.713  0.2110 -0.6875  0.3472
   11MOL   C133 5153   4.057   3.822   1.700 -0.2115  0.3856  0.5575
   11MOL   C134 5154   4.060   3.674   1.669  0.0161  0.3826 -0.3928
   11MOL   C135 5155   3.968   3.575   1.719 -0.4140 -0.3312 -0.4039
   11MOL   C136 5156   3.972   3.441   1.684  0.1235  0.1312 -0.5585
   11MOL   C137 5157   4.063   3.401   1.582  0.3964  0.1165  0.0140
   11MOL   C138 5158   4.153   3.491   1.532 -0.1395 -0.3453 -0.5288
   11MOL   C139 5159   4.152   3.627   1.570 -0.8015 -0.1572 -0.5032
   11MOL   H140 5160   4.487   3.965   1.852 -1.8720 -3.0579  1.2462
   11MOL   H141 5161   4.462   4.128   1.863 -0.7683 -0.1190 -1.7543
   11MOL   H142 5162   4.289   4.278   1.776  2.5781  2.9924 -0.5467
   11MOL   H143 5163   4.284   4.247   1.608 -1.5718  1.1456  1.0953
   11MOL   H144 5164   4.444   4.262   1.689  0.9294 -1.1211 -0.9727
   11MOL   H145 5165   3.992   3.839   1.785 -1.5448  0.0448 -0.3786
   11MOL   H146 5166   4.006   3.858   1.610 -0.4009 -1.9089 -0.2846
   11MOL   H147 5167   3.897   3.604   1.794  0.2181 -0.7715  0.3726
   11MOL   H148 5168   3.894   3.379   1.727  0.2758 -0.4179 -1.0654
   11MOL   H149 5169   4.073   3.298   1.551 -1.5066 -0.7048  2.0097
   11MOL   H150 5170   4.226   3.457   1.460 -0.0486  0.7320 -0.9438
   11MOL   H151 5171   4.222   3.698   1.528 -1.2111 -0.6422 -2.0304
   11MOL   C152 5172   4.435   4.006   1.622 -0.2867  0.0214  0.3382
   11MOL   C153 5173   4.423   4.026   1.464  0.1949 -0.0094 -0.1077
   11MOL   C154 5174   4.275   4.029   1.415  0.0210 -0.1812  0.3241
   11MOL   C155 5175   4.484   3.898   1.397 -1.0280 -0.0346 -0.1372
   11MOL   O156 5176   4.555   3.821   1.459 -0.1715 -0.4078 -0.4366
   11MOL   O157 5177   4.447   3.888   1.262 -0.4680 -0.1590 -0.0232
   11MOL   C158 5178   4.518   3.797   1.186 -0.1512  0.2344 -0.0450
   11MOL   C159 5179   4.442   3.672   1.139  0.4161  0.5904  0.7696
   11MOL   C160 5180   4.300   3.679   1.121 -0.3022  0.1192  0.1513
   11MOL   C161 5181   4.233   3.564   1.075 -0.0135 -0.3141  0.4821
   11MOL   C162 5182   4.303   3.447   1.039 -0.5233  0.0335 -0.2708
   11MOL   C163 5183   4.442   3.438   1.068 -0.1181  0.2605  0.5128
   11MOL   C164 5184   4.514   3.551   1.116  0.4983  0.1004  0.4815
   11MOL   H165 5185   4.436   3.900   1.647  0.9256 -0.3134 -1.0544
   11MOL   H166 5186   4.537   4.027   1.655  0.4305 -3.3987  0.5279
   11MOL   H167 5187   4.271   4.040   1.307  0.1988  0.5638  0.3864
   11MOL   H168 5188   4.209   4.106   1.455  0.9617  1.3425 -0.9794
   11MOL   H169 5189   4.223   3.935   1.429 -0.1781 -0.5573 -2.6574
   11MOL   H170 5190   4.544   3.850   1.094  0.6830  0.0525  0.0787
   11MOL   H171 5191   4.610   3.769   1.238 -0.3273  2.5417  1.5692
   11MOL   H172 5192   4.236   3.760   1.153  0.9949  0.7945  1.0578
   11MOL   H173 5193   4.126   3.557   1.076  0.0237 -0.9414  0.1478
   11MOL   H174 5194   4.263   3.349   1.016  0.3841 -0.1037 -1.3616
   11MOL   H175 5195   4.490   3.341   1.064 -1.5929 -0.5006  1.0866
   11MOL   H176 5196   4.621   3.563   1.131  0.5076  0.4685  0.1347
   11MOL   C177 5197   4.490   4.154   1.405  0.3347 -0.1696 -0.4233
   11MOL   C178 5198   4.642   4.176   1.377  0.3482 -0.1291  0.5526
   11MOL   C179 5199   4.724   4.126   1.491  0.0033 -0.4358 -0.1122
   11MOL   C180 5200   4.656   4.335   1.385 -0.2240 -0.8129  0.3905
   11MOL   O181 5201   4.734   4.394   1.462  0.2663 -0.2176  0.2954
   11MOL   O182 5202   4.584   4.403   1.301 -0.3382 -0.3875 -0.1094
   11MOL   C183 5203   4.623   4.534   1.262 -0.5420 -0.3792 -0.2607
   11MOL   C184 5204   4.541   4.597   1.148 -0.0367  0.0016  0.0917
   11MOL   C185 5205   4.436   4.689   1.181  0.1020  0.7861  0.1055
   11MOL   C186 5206   4.377   4.756   1.077  0.1249 -0.0064 -0.4915
   11MOL   C187 5207   4.408   4.730   0.942 -0.8033  0.1326  0.4898
   11MOL   C188 5208   4.508   4.632   0.909 -0.6686  0.1028  0.0755
   11MOL   C189 5209   4.570   4.564   1.013 -0.2792 -0.3987 -0.5319
   11MOL   H190 5210   4.444   4.226   1.473 -1.0127 -2.9934  1.7707
   11MOL   H191 5211   4.451   4.183   1.307  2.3553 -1.0467 -1.5180
   11MOL   H192 5212   4.689   4.169   1.585  1.0607  1.3913 -0.5304
   11MOL   H193 5213   4.829   4.150   1.477  0.1315 -0.1367  1.2802
   11MOL   H194 5214   4.728   4.018   1.505 -0.7232 -0.4657 -0.1361
   11MOL   H195 5215   4.615   4.596   1.351 -3.2424 -3.4614  1.7805
   11MOL   H196 5216   4.730   4.545   1.244 -0.1792 -0.6203  1.6384
   11MOL   H197 5217   4.408   4.701   1.285 -1.6137 -0.6501 -0.1750
   11MOL   H198 5218   4.297   4.824   1.102  1.2158  0.4875  1.7288
   11MOL   H199 5219   4.358   4.787   0.865 -0.9340  3.0251  2.6385
   11MOL   H200 5220   4.525   4.610   0.804 -1.8418 -0.2790 -0.0518
   11MOL   H201 5221   4.641   4.486   0.992  0.4311  0.0922  0.0368
   11MOL   C202 5222   4.682   4.125   1.233 -0.2185 -0.4250 -0.1321
   11MOL   C203 5223   4.824   4.078   1.181  0.3043 -0.5584 -0.1206
   11MOL   C204 5224   4.868   3.965   1.271 -0.2982  0.7981  0.3128
   11MOL   C205 5225   4.925   4.193   1.177  0.1566  0.1329 -0.2002
   11MOL   O206 5226   4.896   4.303   1.216 -0.7179 -0.3482  0.1915
   11MOL   O207 5227   5.047   4.156   1.134  0.2763 -0.0192 -0.3021
   11MOL   C208 5228   5.156   4.243   1.103 -0.4271  0.1519  0.1936
   11MOL   C209 5229   5.282   4.168   1.063  0.6207  0.2100  0.0062
   11MOL   C210 5230   5.289   4.037   1.001  0.7047 -0.2733 -0.0269
   11MOL   C211 5231   5.414   3.977   0.962  0.1546  0.5843  0.7280
   11MOL   C212 5232   5.538   4.049   0.990 -0.1965 -0.0668  0.2976
   11MOL   C213 5233   5.522   4.177   1.052 -0.3177  0.8240 -0.5720
   11MOL   C214 5234   5.400   4.235   1.084 -0.1245 -0.1114  0.2969
   11MOL   H215 5235   4.656   4.202   1.161  0.0297 -0.5333 -0.3422
   11MOL   H216 5236   4.621   4.040   1.203  0.1495 -0.7548  0.0393
   11MOL   H217 5237   4.914   3.994   1.366 -0.1555  0.1367  0.4475
   11MOL   H218 5238   4.946   3.902   1.227 -0.7219 -1.2672  2.4201
   11MOL   H219 5239   4.780   3.903   1.288  0.9785 -1.3114 -0.5926
   11MOL   H220 5240   5.132   4.305   1.017  3.9527  0.7046 -0.6985
   11MOL   H221 5241   5.163   4.309   1.189 -1.3601 -0.5049  0.7890
   11MOL   H222 5242   5.201   3.981   0.972  0.0734  0.5669  0.2672
   11MOL   H223 5243   5.419   3.878   0.920 -0.8372  0.2317  1.4385
   11MOL   H224 5244   5.638   4.010   0.977 -1.4592 -3.3757 -0.1736
   11MOL   H225 5245   5.608   4.235   1.081  0.2501  0.5312 -1.6468
   11MOL   H226 5246   5.396   4.332   1.130  2.2475 -0.5608  1.5497
   11MOL   C227 5247   4.819   4.015   1.037  0.4493  0.7943  0.2162
   11MOL   C228 5248   4.771   4.088   0.902  0.2592  0.2303  0.3438
   11MOL   C229 5249   4.813   4.239   0.897 -0.2516  0.1865 -0.5852
   11MOL   C230 5250   4.615   4.098   0.887  0.0144 -0.3913  0.3924
   11MOL   O231 5251   4.538   4.054   0.973 -0.3026  0.5155  0.2138
   11MOL   O232 5252   4.574   4.161   0.776 -0.1907  0.7306  0.0040
   11MOL   C233 5253   4.431   4.158   0.742  0.4152 -0.6591 -0.3713
   11MOL   C234 5254   4.392   4.213   0.608 -0.0558  0.6570 -0.5340
   11MOL   C235 5255   4.286   4.297   0.594 -0.5689 -0.8346  0.6151
   11MOL   C236 5256   4.238   4.336   0.467 -0.1678  0.8614  0.4711
   11MOL   C237 5257   4.303   4.286   0.350 -0.1344  0.1112 -0.2866
   11MOL   C238 5258   4.413   4.204   0.363  0.8882  0.4174  0.9040
   11MOL   C239 5259   4.452   4.160   0.492 -0.0602 -0.2604  0.3246
   11MOL   H240 5260   4.759   3.926   1.052  1.2987  0.0785 -0.5927
   11MOL   H241 5261   4.919   3.989   1.003  0.4380  1.5514 -0.4383
   11MOL   H242 5262   4.922   4.240   0.894 -0.1897 -0.4539  0.7455
   11MOL   H243 5263   4.768   4.298   0.977 -2.1119  0.1971 -1.6109
   11MOL   H244 5264   4.782   4.276   0.800 -0.6676 -0.1610 -0.5867
   11MOL   H245 5265   4.388   4.059   0.756  1.4351 -1.1507 -0.6545
   11MOL   H246 5266   4.389   4.217   0.824 -1.1322 -1.0032 -0.9116
   11MOL   H247 5267   4.235   4.336   0.682  1.7089 -0.2813  1.7404
   11MOL   H248 5268   4.156   4.405   0.465  0.6508  1.8342 -0.2469
   11MOL   H249 5269   4.263   4.313   0.253  1.5161  2.0692 -0.4412
   11MOL   H250 5270   4.480   4.179   0.282 -0.9386  2.3740 -1.2838
   11MOL   H251 5271   4.529   4.088   0.513  0.1917 -0.8492 -2.3530
   11MOL   C252 5272   4.843   4.024   0.777  1.6652  0.6545 -0.5136
   11MOL   C253 5273   4.827   3.879   0.726  0.5882  0.0513 -0.5828
   11MOL   C254 5274   4.673   3.854   0.710 -0.5142  0.1739  0.1464
   11MOL   C255 5275   4.875   3.774   0.828  0.0975  0.7399 -0.3092
   11MOL   O256 5276   4.813   3.668   0.841  0.4031  0.5488 -0.2758
   11MOL   O257 5277   4.984   3.800   0.899  0.0058 -0.4844 -0.8538
   11MOL   C258 5278   5.054   3.708   0.984  0.3773  0.7999 -0.2604
   11MOL   C259 5279   5.134   3.604   0.903 -0.6074  0.0697 -0.9666
   11MOL   C260 5280   5.065   3.489   0.859 -0.5595  0.1250  0.2506
   11MOL   C261 5281   5.131   3.389   0.789  0.5080  0.3759 -0.0389
   11MOL   C262 5282   5.259   3.406   0.741 -0.0496 -0.1535  0.4765
   11MOL   C263 5283   5.329   3.522   0.776 -0.5122  0.0962  0.4201
   11MOL   C264 5284   5.266   3.615   0.863 -0.0401 -0.2290 -0.3601
   11MOL   H265 5285   4.947   4.050   0.793  1.5259  1.1115 -0.3544
   11MOL   H266 5286   4.817   4.082   0.688 -0.6566  0.9633  0.3252
   11MOL   H267 5287   4.617   3.941   0.675 -1.3509 -0.0643  0.8764
   11MOL   H268 5288   4.619   3.816   0.797 -0.6554 -0.6339 -0.2859
   11MOL   H269 5289   4.641   3.778   0.638 -0.7617  0.9813 -0.6074
   11MOL   H270 5290   5.124   3.772   1.038  1.9615 -1.3979  0.3459
   11MOL   H271 5291   4.996   3.677   1.070 -0.3363  2.3797 -0.1585
   11MOL   H272 5292   4.961   3.472   0.885 -0.3148 -2.3774 -0.2363
   11MOL   H273 5293   5.071   3.302   0.765 -0.8487  0.9390  1.2211
   11MOL   H274 5294   5.300   3.323   0.685  1.6085  1.6699 -1.0670
   11MOL   H275 5295   5.434   3.528   0.749 -0.9553  2.2127 -1.0461
   11MOL   H276 5296   5.320   3.704   0.890 -1.6661  0.8037 -0.5086
   11MOL   C277 5297   4.880   3.864   0.580  0.0066 -0.1340  0.2259
   11MOL   C278 5298   5.031   3.866   0.527  0.5168  0.4124 -0.4693
   11MOL   C279 5299   5.083   3.720   0.542  0.0882  0.5159 -0.1430
   11MOL   C280 5300   5.124   3.958   0.613  0.2292  0.5611 -0.5673
   11MOL   O281 5301   5.174   3.925   0.722  0.7618  0.3525 -0.7223
   11MOL   O282 5302   5.152   4.079   0.550  0.2545  0.5760  0.3150
   11MOL   C283 5303   5.257   4.157   0.604 -0.5635  0.4066  0.4126
   11MOL   C284 5304   5.210   4.284   0.682 -0.0415 -0.2034  0.2206
   11MOL   C285 5305   5.303   4.360   0.760 -0.0473 -0.3330 -0.4446
   11MOL   C286 5306   5.261   4.466   0.841 -0.1101 -0.1376 -0.3994
   11MOL   C287 5307   5.128   4.506   0.836 -0.1443 -0.0107 -0.6534
   11MOL   C288 5308   5.033   4.432   0.763  0.1311  0.1134  0.3664
   11MOL   C289 5309   5.076   4.327   0.688  0.3981 -0.4436 -0.0150
   11MOL   H290 5310   4.819   3.934   0.523 -1.1967 -0.7667  0.7215
   11MOL   H291 5311   4.857   3.765   0.540  1.4314 -0.8889  1.1883
   11MOL   H292 5312   5.052   3.654   0.461 -0.4523  0.8398 -0.2056
   11MOL   H293 5313   5.055   3.672   0.635 -0.9459  0.0225 -0.6939
   11MOL   H294 5314   5.191   3.723   0.532  0.1523 -1.8022 -0.3627
   11MOL   H295 5315   5.324   4.103   0.671 -0.5984  1.3602  1.2357
   11MOL   H296 5316   5.318   4.183   0.518 -2.3071 -2.1991 -1.7185
   11MOL   H297 5317   5.406   4.328   0.759 -0.2979 -1.1203 -2.0874
   11MOL   H298 5318   5.325   4.529   0.900 -0.7543  0.3691 -0.2491
   11MOL   H299 5319   5.086   4.582   0.899  1.2195 -0.4332  0.7784
   11MOL   H300 5320   4.932   4.469   0.754  0.0503 -0.5740 -1.7752
   11MOL   H301 5321   4.998   4.278   0.631 -0.8213  1.3324  0.0717
   11MOL   C302 5322   5.033   3.893   0.371  1.1583 -0.2823  0.5447
   11MOL   C303 5323   4.945   3.983   0.286  0.0868  0.0642 -0.0597
   11MOL   C304 5324   4.924   4.124   0.358  0.5577 -0.0663 -0.2309
   11MOL   C305 5325   4.808   3.907   0.265  0.2982 -0.7909 -0.7904
   11MOL   O306 5326   4.701   3.968   0.289 -0.2346 -0.1279  0.5018
   11MOL   O307 5327   4.810   3.776   0.209 -0.3639 -0.6723  0.0590
   11MOL   C308 5328   4.685   3.703   0.184  0.4302  0.4829  0.4031
   11MOL   C309 5329   4.664   3.578   0.260 -0.6173  0.9575 -0.1102
   11MOL   C310 5330   4.690   3.561   0.397  0.1532 -0.1979  0.0958
   11MOL   C311 5331   4.663   3.436   0.462 -0.2133  0.3811  0.4412
   11MOL   C312 5332   4.595   3.335   0.398 -0.0646  0.1317 -0.1028
   11MOL   C313 5333   4.550   3.358   0.263 -0.5398 -0.4685 -0.2220
   11MOL   C314 5334   4.590   3.475   0.196 -0.5799 -0.3869  0.1730
   11MOL   H315 5335   5.040   3.800   0.314  0.9298 -1.1911  1.9521
   11MOL   H316 5336   5.138   3.919   0.355  0.7204  1.0775 -0.1968
   11MOL   H317 5337   5.020   4.174   0.362  0.9205 -0.7715 -0.1602
   11MOL   H318 5338   4.896   4.112   0.463 -0.1973 -3.1180 -0.7250
   11MOL   H319 5339   4.848   4.181   0.305  0.7729  0.7101  0.2910
   11MOL   H320 5340   4.604   3.774   0.198 -1.4287 -1.6728  0.8197
   11MOL   H321 5341   4.691   3.671   0.080 -2.1690  0.0679  0.3656
   11MOL   H322 5342   4.729   3.641   0.459 -0.5399 -1.8476  2.7630
   11MOL   H323 5343   4.686   3.434   0.568 -0.4276  1.3454  0.5118
   11MOL   H324 5344   4.576   3.238   0.440  0.6639  0.2251  0.4432
   11MOL   H325 5345   4.497   3.278   0.212  0.4206 -0.6487 -0.9409
   11MOL   H326 5346   4.562   3.501   0.095  0.0287 -2.6216 -0.6006
   11MOL   C327 5347   5.033   4.001   0.154 -0.6807 -0.2284  0.0435
   11MOL   C328 5348   4.990   4.091   0.029 -0.4378 -0.2777  0.2521
   11MOL   C329 5349   5.020   4.239   0.068 -0.6732  0.5974 -0.0943
   11MOL   C330 5350   4.844   4.072   7.998  0.2950 -0.4041 -0.0127
   11MOL   O331 5351   4.797   3.958   7.960 -0.2841 -0.0528 -0.1157
   11MOL   O332 5352   4.769   4.177   0.008  0.0686 -0.3515 -0.0488
   11MOL   C333 5353   4.627   4.167   8.005 -1.5852  0.3225  0.6442
   11MOL   C334 5354   4.568   4.308   0.011  0.7029 -0.1423  0.4230
   11MOL   C335 5355   4.644   4.427   7.998 -0.7813  0.6363  0.5869
   11MOL   C336 5356   4.579   4.551   7.987 -0.0251  0.1237  0.1058
   11MOL   C337 5357   4.440   4.558   8.003  0.6910  0.8872 -0.5510
   11MOL   C338 5358   4.366   4.444   0.036  0.7478 -0.3726 -0.1154
   11MOL   C339 5359   4.432   4.320   0.029 -0.0099  0.2680 -0.4653
   11MOL   H340 5360   5.068   3.900   0.131  0.4369 -0.6667  3.4493
   11MOL   H341 5361   5.132   4.038   0.182 -1.0348  0.8274 -0.0816
   11MOL   H342 5362   4.996   4.321   8.007  0.2183  1.7326  0.9462
   11MOL   H343 5363   5.125   4.250   0.096  0.1752 -1.2967 -2.3181
   11MOL   H344 5364   4.954   4.273   0.147  0.0266  0.7969  0.4007
   11MOL   H345 5365   4.612   4.128   7.905  0.3239 -0.4847  0.6423
   11MOL   H346 5366   4.596   4.095   0.074  3.0496  0.4659  2.9098
   11MOL   H347 5367   4.749   4.405   7.982 -1.4755 -1.7906 -1.0805
   11MOL   H348 5368   4.639   4.638   7.967 -1.6747  1.4795  0.8886
   11MOL   H349 5369   4.394   4.654   0.009  0.3074  0.6697 -0.2683
   11MOL   H350 5370   4.261   4.448   0.062  0.5805  1.4999 -1.0049
   11MOL   H351 5371   4.373   4.230   0.042  0.3549  0.2517  1.1671
   11MOL   C352 5372   5.085   4.049   7.909 -0.0741  0.2319  0.1243
   11MOL   C353 5373   5.107   4.127   7.774  0.0515 -0.7677  0.2133
   11MOL   C354 5374   5.171   4.272   7.798  0.1590  0.4518 -0.5513
   11MOL   C355 5375   4.972   4.129   7.708 -0.1342  0.1167  0.0700
   11MOL   O356 5376   4.914   4.234   7.675 -0.1781 -0.3572 -0.2167
   11MOL   O357 5377   4.927   4.006   7.687 -0.0669 -0.2520 -0.0611
   11MOL   C358 5378   4.811   3.977   7.605  0.7259 -0.2281 -0.3219
   11MOL   C359 5379   4.775   3.829   7.589  0.2626  0.2373 -0.8285
   11MOL   C360 5380   4.772   3.735   7.697 -0.0137  0.3722 -0.4966
   11MOL   C361 5381   4.761   3.603   7.670  0.1226  0.8658 -0.3450
   11MOL   C362 5382   4.736   3.555   7.535  0.3512 -0.5284  0.4554
   11MOL   C363 5383   4.738   3.650   7.430 -0.4182 -1.4644  0.5984
   11MOL   C364 5384   4.750   3.786   7.457 -0.3841 -0.6142 -0.1616
   11MOL   H365 5385   5.055   3.946   7.889 -1.9309  0.6501  0.6125
   11MOL   H366 5386   5.186   4.034   7.945  0.5033 -0.8195 -1.8287
   11MOL   H367 5387   5.101   4.353   7.818 -3.0125 -1.9855 -1.2376
   11MOL   H368 5388   5.253   4.312   7.739 -0.5536  1.0842 -1.1249
   11MOL   H369 5389   5.222   4.266   7.894 -0.4513 -0.4930 -0.2748
   11MOL   H370 5390   4.727   4.027   7.655  0.8530  0.9506 -1.2677
   11MOL   H371 5391   4.818   4.026   7.508  0.7423 -0.7578 -0.5883
   11MOL   H372 5392   4.795   3.767   7.798 -1.0690 -0.1669 -0.0713
   11MOL   H373 5393   4.758   3.520   7.740  1.0123 -0.2637 -1.6225
   11MOL   H374 5394   4.724   3.448   7.524 -1.0041 -0.4793  1.4873
   11MOL   H375 5395   4.729   3.609   7.330  0.1322 -0.6960  0.2291
   11MOL   H376 5396   4.751   3.852   7.371  0.2924 -1.7025 -1.0007
   11MOL   C377 5397   5.212   4.039   7.685 -0.3414  0.3219  0.2121
   11MOL   C378 5398   5.255   4.064   7.534 -0.1448  0.0507  0.4854
   11MOL   C379 5399   5.346   3.933   7.506 -0.3021  0.0367  0.1090
   11MOL   C380 5400   5.340   4.189   7.514  0.0189  1.0724  0.3525
   11MOL   O381 5401   5.463   4.174   7.492 -0.9889  0.3650  0.0972
   11MOL   O382 5402   5.278   4.311   7.512 -0.1898 -0.2328  0.1158
   11MOL   C383 5403   5.357   4.427   7.493 -0.3423 -0.4140  0.1394
   11MOL   C384 5404   5.282   4.555   7.463 -0.5552  0.2368 -0.6364
   11MOL   C385 5405   5.346   4.667   7.411  0.2205 -0.1337 -0.0440
   11MOL   C386 5406   5.282   4.789   7.409  1.2247  0.7357  0.1408
   11MOL   C387 5407   5.144   4.805   7.440 -0.7322 -0.0215 -0.9714
   11MOL   C388 5408   5.074   4.686   7.475  0.0624  0.0554  0.6381
   11MOL   C389 5409   5.143   4.563   7.483  0.7732  0.4262 -0.5003
   11MOL   H390 5410   5.189   3.934   7.699 -0.1725  0.8348  5.4006
   11MOL   H391 5411   5.310   4.055   7.732 -0.6862  1.6833  0.4970
   11MOL   H392 5412   5.286   3.842   7.505  1.7035 -1.3116 -1.3024
   11MOL   H393 5413   5.420   3.915   7.584 -1.8017 -0.2920  1.4831
   11MOL   H394 5414   5.405   3.944   7.415  1.1933  0.3497  1.0910
   11MOL   H395 5415   5.416   4.432   7.584  2.0159 -3.0349 -1.1744
   11MOL   H396 5416   5.437   4.422   7.419  0.2996  0.9730  0.7238
   11MOL   H397 5417   5.449   4.654   7.380  0.4759 -2.6502  1.7571
   11MOL   H398 5418   5.339   4.879   7.389 -0.4224  2.3662  2.5136
   11MOL   H399 5419   5.095   4.900   7.448 -2.0231 -0.9127  2.3043
   11MOL   H400 5420   4.969   4.686   7.498 -0.2337 -0.1799 -0.6806
   11MOL   H401 5421   5.079   4.492   7.534 -0.6458  1.5721 -0.6438
   11MOL   C402 5422   5.132   4.058   7.442  0.2627  0.2642 -0.3137
   11MOL   C403 5423   5.144   4.017   7.287 -0.4204  0.2108  0.1401
   11MOL   C404 5424   4.998   4.031   7.241 -0.2657  0.0551 -0.0374
   11MOL   C405 5425   5.174   3.868   7.262  0.4757  0.0182  0.2717
   11MOL   O406 5426   5.278   3.827   7.211  0.4279  0.1420 -0.0882
   11MOL   O407 5427   5.073   3.794   7.308 -0.2741 -0.1788  0.4253
   11MOL   C408 5428   5.080   3.652   7.292 -0.0117 -0.2318 -0.1287
   11MOL   C409 5429   5.151   3.589   7.411 -0.2368 -0.1687 -0.3229
   11MOL   C410 5430   5.089   3.593   7.535 -0.9943 -0.5709  0.0084
   11MOL   C411 5431   5.152   3.532   7.648 -0.1705 -0.1435 -0.1914
   11MOL   C412 5432   5.262   3.450   7.627 -0.1649  0.4162 -0.1724
   11MOL   C413 5433   5.336   3.449   7.511  0.7948 -0.1105  0.0504
   11MOL   C414 5434   5.282   3.519   7.397 -0.0390 -0.2828 -0.1683
   11MOL   H415 5435   5.083   4.153   7.462  3.2535  1.9461 -0.6065
   11MOL   H416 5436   5.068   3.981   7.486 -1.4834  1.8106 -0.1000
   11MOL   H417 5437   4.990   3.991   7.140  0.0524 -1.7788  0.6463
   11MOL   H418 5438   4.965   4.135   7.235 -2.3324 -0.5513  0.4945
   11MOL   H419 5439   4.911   4.005   7.300 -1.8613  0.1354 -2.2685
   11MOL   H420 5440   4.976   3.623   7.303 -0.4436  2.1561  2.7879
   11MOL   H421 5441   5.120   3.611   7.199  1.8292  0.6176  0.2686
   11MOL   H422 5442   4.993   3.643   7.543 -0.0881  1.1088  0.5945
   11MOL   H423 5443   5.105   3.528   7.745 -0.1163  0.7809 -0.1284
   11MOL   H424 5444   5.293   3.390   7.712 -0.7599  0.7548  0.2941
   11MOL   H425 5445   5.432   3.399   7.501 -0.5953 -2.6766 -0.8347
   11MOL   H426 5446   5.325   3.520   7.298 -2.5876 -0.3766 -1.3236
   11MOL   C427 5447   5.233   4.127   7.210 -0.4355 -0.5216  0.8950
   11MOL   C428 5448   5.238   4.158   7.051  0.3185  0.0315  0.5830
   11MOL   C429 5449   5.110   4.220   6.993 -0.0501  0.9004 -0.1797
   11MOL   C430 5450   5.267   4.017   6.982 -0.1285  0.2238 -0.6187
   11MOL   O431 5451   5.186   3.961   6.907 -0.3563 -0.3607  0.0591
   11MOL   O432 5452   5.395   3.967   6.999  0.0118 -0.4190  0.5067
   11MOL   C433 5453   5.439   3.849   6.934  0.0639 -0.9860 -0.2800
   11MOL   C434 5454   5.593   3.840   6.918 -0.4933 -0.2801  0.6672
   11MOL   C435 5455   5.684   3.945   6.938 -0.4054  0.7205  0.4691
   11MOL   C436 5456   5.817   3.935   6.898  0.0864  0.0407 -0.4566
   11MOL   C437 5457   5.865   3.808   6.857 -0.4882 -0.4196 -0.2735
   11MOL   C438 5458   5.782   3.696   6.854 -0.6997  0.3669  0.4176
   11MOL   C439 5459   5.645   3.715   6.875 -0.0090 -0.3042  0.4893
   11MOL   H440 5460   5.336   4.114   7.242 -0.5566 -1.3395  0.9771
   11MOL   H441 5461   5.202   4.226   7.245  0.6558  0.5668 -1.1647
   11MOL   H442 5462   5.123   4.214   6.885  1.0036  1.9245 -0.1252
   11MOL   H443 5463   5.088   4.324   7.013 -0.7240  0.9173 -1.0304
   11MOL   H444 5464   5.019   4.168   7.023 -0.9828  1.9524 -1.1700
   11MOL   H445 5465   5.389   3.765   6.982 -0.2103 -1.0196 -0.6221
   11MOL   H446 5466   5.394   3.854   6.834  0.2164 -0.2516 -0.3147
   11MOL   H447 5467   5.643   4.039   6.973  0.5624  0.4608  2.3905
   11MOL   H448 5468   5.879   4.022   6.913 -1.2288  0.7783  0.7090
   11MOL   H449 5469   5.970   3.797   6.833 -0.4918  1.5239 -1.3249
   11MOL   H450 5470   5.821   3.603   6.817 -1.3294  0.7541 -1.2584
   11MOL   H451 5471   5.582   3.629   6.858 -1.9466  1.0067  0.8573
   11MOL   C452 5472   5.355   4.256   7.025 -0.5128  0.3855 -0.6812
   11MOL   C453 5473   5.392   4.329   6.883 -0.5596 -0.2703 -0.6439
   11MOL   C454 5474   5.390   4.227   6.774 -0.0969  0.3873 -0.0774
   11MOL   C455 5475   5.534   4.386   6.894 -0.3020  0.9038  0.3763
   11MOL   O456 5476   5.563   4.501   6.860  0.1904  0.4067  0.2162
   11MOL   O457 5477   5.626   4.292   6.940 -0.7406 -0.0164 -0.2860
   11MOL   C458 5478   5.755   4.339   6.981  1.1698  0.2401 -0.1425
   11MOL   C459 5479   5.757   4.397   7.121  0.1141 -0.0935 -0.3724
   11MOL   C460 5480   5.725   4.311   7.234 -0.0730 -0.4502 -0.6664
   11MOL   C461 5481   5.735   4.358   7.365  0.0086  0.1437  0.7887
   11MOL   C462 5482   5.765   4.491   7.390  0.0761  0.4124  0.2382
   11MOL   C463 5483   5.780   4.577   7.279  0.2771  0.4431 -0.0460
   11MOL   C464 5484   5.773   4.535   7.144 -0.1895  0.1135 -0.1302
   11MOL   H465 5485   5.444   4.208   7.065 -0.9870  1.6546  2.0234
   11MOL   H466 5486   5.349   4.338   7.096 -2.3134 -0.3912  0.1144
   11MOL   H467 5487   5.449   4.265   6.691  1.0804  0.0965  0.6122
   11MOL   H468 5488   5.296   4.196   6.730 -0.7171 -1.4168  2.3582
   11MOL   H469 5489   5.437   4.131   6.799  0.5957  1.1380  1.6209
   11MOL   H470 5490   5.827   4.258   6.973  1.9260  0.7306  1.5287
   11MOL   H471 5491   5.788   4.421   6.917  1.8283  0.6846  0.7596
   11MOL   H472 5492   5.703   4.209   7.208 -2.3872 -0.2599  0.3894
   11MOL   H473 5493   5.726   4.301   7.457 -1.2425 -0.1869  0.4671
   11MOL   H474 5494   5.776   4.527   7.491 -2.2761  0.9244  0.3235
   11MOL   H475 5495   5.795   4.679   7.310 -2.3365  0.5755  0.9189
   11MOL   H476 5496   5.789   4.593   7.054 -0.4185  0.9477  0.3648
   11MOL   C477 5497   5.297   4.444   6.852 -0.1246  0.0133 -0.7661
   11MOL   C478 5498   5.308   4.520   6.708  0.6466  0.7096  0.2320
   11MOL   C479 5499   5.254   4.662   6.720 -0.4962  0.1101  0.0401
   11MOL   C480 5500   5.221   4.447   6.605 -0.0130  0.5410 -0.2422
   11MOL   O481 5501   5.270   4.375   6.520 -0.3382 -0.2579 -0.0260
   11MOL   O482 5502   5.081   4.466   6.617  0.0500 -0.6413  0.2008
   11MOL   C483 5503   4.989   4.394   6.547 -0.0853  0.5073  0.0842
   11MOL   C484 5504   4.939   4.279   6.633  0.0032 -0.0179  0.3054
   11MOL   C485 5505   4.827   4.293   6.722  0.0791 -0.0270  0.6483
   11MOL   C486 5506   4.779   4.188   6.798  0.0320 -0.2416  0.5141
   11MOL   C487 5507   4.851   4.067   6.787 -0.0240  0.3741 -0.2173
   11MOL   C488 5508   4.966   4.057   6.711  0.8063  0.1682 -0.6266
   11MOL   C489 5509   5.008   4.159   6.635  0.7961 -0.1455  0.3433
   11MOL   H490 5510   5.316   4.521   6.927 -2.1202  0.5756 -0.8094
   11MOL   H491 5511   5.196   4.417   6.879 -0.1137 -0.0824 -0.8247
   11MOL   H492 5512   5.330   4.732   6.754  0.9181 -2.1385  1.6832
   11MOL   H493 5513   5.168   4.663   6.787 -0.8430  0.1668 -0.4097
   11MOL   H494 5514   5.223   4.697   6.622 -0.9407 -0.6632 -0.1037
   11MOL   H495 5515   4.905   4.455   6.516  0.1870 -0.5395 -2.8365
   11MOL   H496 5516   5.029   4.342   6.460 -1.4398  0.0429 -0.2730
   11MOL   H497 5517   4.770   4.385   6.723  0.3743  0.1634  0.0997
   11MOL   H498 5518   4.696   4.200   6.866  0.4494  1.4383  0.7452
   11MOL   H499 5519   4.818   3.981   6.844 -0.9977  0.6232 -0.3982
   11MOL   H500 5520   5.012   3.959   6.706  1.0930  0.1647  1.4894
   11MOL   H501 5521   5.088   4.140   6.565 -0.9490 -2.8908 -0.9765
   11MOL   H502 5522   5.407   4.536   6.666  0.7868  1.5468  0.8749
   12MOL     C1 5523   2.463   3.623   0.108  0.2406  0.2197 -0.3334
   12MOL     C2 5524   2.601   3.647   0.046 -0.2390 -0.2702 -0.0506
   12MOL     C3 5525   2.584   3.593   7.900 -0.1130 -0.2204  0.0794
   12MOL     C4 5526   2.699   3.555   0.112  0.7749 -0.3055  0.1090
   12MOL     O5 5527   2.664   3.479   0.208 -0.5510 -0.2162 -0.1039
   12MOL     O6 5528   2.820   3.564   0.069 -0.0357  0.7640  0.0054
   12MOL     C7 5529   2.918   3.468   0.105  0.3535 -0.2549 -0.4860
   12MOL     C8 5530   3.054   3.524   0.069 -0.9363  0.4423 -0.3504
   12MOL     C9 5531   3.161   3.429   0.049  0.1570 -0.0011  0.1907
   12MOL    C10 5532   3.285   3.475   0.009  0.3280 -0.2414 -0.8732
   12MOL    C11 5533   3.309   3.614   8.001  0.2788 -0.5522 -0.3678
   12MOL    C12 5534   3.207   3.710   0.017  0.5523  0.1470  0.6669
   12MOL    C13 5535   3.081   3.663   0.051  0.1729  0.5316 -0.5287
   12MOL    H14 5536   2.393   3.698   0.070 -3.0371 -1.4577  2.1269
   12MOL    H15 5537   2.411   3.532   0.078 -1.0136  0.7330  0.2428
   12MOL    H16 5538   2.546   3.491   7.899  0.7536 -0.5409 -0.5132
   12MOL    H17 5539   2.668   3.608   7.832  0.9206 -0.2952  1.3150
   12MOL    H18 5540   2.493   3.644   7.870 -1.1259 -1.5948  0.7878
   12MOL    H19 5541   2.922   3.453   0.212 -2.3098 -1.4900 -0.5056
   12MOL    H20 5542   2.891   3.370   0.067  1.3248 -0.7339  0.0692
   12MOL    H21 5543   3.149   3.324   0.067  2.4297  0.1088  2.5597
   12MOL    H22 5544   3.372   3.412   0.007  0.3956 -0.1201 -1.7045
   12MOL    H23 5545   3.405   3.651   7.968  1.0150 -0.4128  1.8753
   12MOL    H24 5546   3.219   3.818   0.012 -1.4843  0.3599 -0.2640
   12MOL    H25 5547   3.003   3.737   0.058 -1.4493 -1.0521 -1.4621
   12MOL    H26 5548   2.456   3.626   0.217  1.6340  0.1005 -0.2376
   12MOL    C27 5549   2.639   3.801   0.056 -0.1188  0.2824  0.0043
   12MOL    C28 5550   2.639   3.891   0.185 -0.1238 -0.0224 -0.9326
   12MOL    C29 5551   2.689   3.804   0.306  0.3222 -0.4380  0.4003
   12MOL    C30 5552   2.504   3.936   0.226 -0.3108 -0.0146  0.2134
   12MOL    O31 5553   2.475   3.968   0.343  0.2691  0.7950  0.0125
   12MOL    O32 5554   2.415   3.947   0.124  0.3371  0.5598 -0.1830
   12MOL    C33 5555   2.279   3.962   0.154  0.5443  0.5524 -0.5379
   12MOL    C34 5556   2.218   4.068   0.066 -0.3023 -0.3653  0.3421
   12MOL    C35 5557   2.171   4.185   0.124 -0.0992  0.1375  0.1418
   12MOL    C36 5558   2.093   4.274   0.049  0.1418  1.1690 -0.3051
   12MOL    C37 5559   2.062   4.239   7.920 -0.3781 -0.2325  0.0075
   12MOL    C38 5560   2.111   4.124   7.855 -0.3897  0.3627 -0.1347
   12MOL    C39 5561   2.195   4.038   7.934  0.4488  0.4315 -0.0138
   12MOL    H40 5562   2.580   3.848   7.984  2.0569 -0.0602 -1.8848
   12MOL    H41 5563   2.735   3.816   0.007 -0.6164  0.1128 -1.0340
   12MOL    H42 5564   2.790   3.772   0.284  1.0961  0.4606  2.5603
   12MOL    H43 5565   2.630   3.714   0.321 -0.6473  0.1820  0.3567
   12MOL    H44 5566   2.677   3.856   0.401 -0.1053  0.8980 -0.3664
   12MOL    H45 5567   2.238   3.863   0.132  1.2032  0.4267 -1.1993
   12MOL    H46 5568   2.256   3.982   0.259 -0.8317 -0.1254 -0.6938
   12MOL    H47 5569   2.188   4.197   0.230 -0.6973 -1.2480  0.4175
   12MOL    H48 5570   2.065   4.364   0.102  1.4842  1.5238 -0.1628
   12MOL    H49 5571   1.995   4.307   7.869  0.2359 -0.0206 -0.5298
   12MOL    H50 5572   2.086   4.088   7.757  0.9436 -0.0099 -0.3439
   12MOL    H51 5573   2.226   3.945   7.888  0.1716  0.4445 -0.2293
   12MOL    C52 5574   2.744   4.010   0.193  0.7679  0.6033  0.1331
   12MOL    C53 5575   2.734   4.146   0.116  0.7276  0.0480 -0.2337
   12MOL    C54 5576   2.677   4.122   7.982  0.0229 -0.5333  0.5824
   12MOL    C55 5577   2.874   4.209   0.104  0.1737 -0.0034  1.2772
   12MOL    O56 5578   2.930   4.205   8.003  0.0090 -0.6402 -0.2530
   12MOL    O57 5579   2.924   4.251   0.228  0.4015 -0.6100 -0.4406
   12MOL    C58 5580   3.058   4.305   0.225  0.1162  0.2915  0.0518
   12MOL    C59 5581   3.143   4.269   0.342  0.3345 -0.2019  0.2250
   12MOL    C60 5582   3.288   4.288   0.334  0.1701 -1.0863  0.3791
   12MOL    C61 5583   3.364   4.272   0.447  0.1240  0.0076 -0.1983
   12MOL    C62 5584   3.300   4.229   0.572  0.3736 -0.0053 -0.7281
   12MOL    C63 5585   3.162   4.219   0.580 -1.1046  0.6095 -0.9158
   12MOL    C64 5586   3.079   4.243   0.468 -0.4797  0.1921  0.1534
   12MOL    H65 5587   2.843   3.968   0.176  0.0577 -1.2556  0.4861
   12MOL    H66 5588   2.749   4.036   0.299 -1.0786 -1.2153  0.7101
   12MOL    H67 5589   2.727   4.039   7.931 -0.5111 -2.1985  2.6781
   12MOL    H68 5590   2.690   4.207   7.915  0.7537 -0.0947  1.2668
   12MOL    H69 5591   2.572   4.095   7.981 -0.4358  1.1795 -1.2615
   12MOL    H70 5592   3.114   4.266   0.139 -1.5224 -1.3374 -0.3203
   12MOL    H71 5593   3.048   4.413   0.212  0.1129  0.0494 -2.2917
   12MOL    H72 5594   3.336   4.313   0.241  0.4133  0.3857  0.8932
   12MOL    H73 5595   3.470   4.288   0.440  0.2773 -0.7260  0.4684
   12MOL    H74 5596   3.364   4.219   0.658  2.0334  1.1976 -1.7868
   12MOL    H75 5597   3.113   4.188   0.671  0.8367 -0.4480 -0.1863
   12MOL    H76 5598   2.972   4.229   0.474 -1.0221  3.4670 -0.7976
   12MOL    C77 5599   2.642   4.245   0.196 -0.2676 -0.8328  0.8427
   12MOL    C78 5600   2.583   4.393   0.151  0.1182 -0.1106 -0.3531
   12MOL    C79 5601   2.455   4.371   0.082 -0.1000 -0.7999 -0.3979
   12MOL    C80 5602   2.678   4.474   0.068 -1.1911 -0.4973  0.5456
   12MOL    O81 5603   2.652   4.498   7.959  0.0402 -0.7219  0.1783
   12MOL    O82 5604   2.784   4.523   0.138  0.3478 -0.0760  0.2120
   12MOL    C83 5605   2.871   4.606   0.068 -0.1620 -0.5655 -0.6042
   12MOL    C84 5606   2.834   4.755   0.054 -0.3747  0.1825 -0.3677
   12MOL    C85 5607   2.752   4.816   0.157  0.7467 -0.1099 -0.0658
   12MOL    C86 5608   2.712   4.954   0.140  0.1998  0.1944 -0.1647
   12MOL    C87 5609   2.747   5.026   0.021 -0.1487  0.3660 -0.0153
   12MOL    C88 5610   2.828   4.960   7.930  0.4164 -0.1434 -0.4863
   12MOL    C89 5611   2.877   4.828   7.952 -0.1008 -0.5748  0.8541
   12MOL    H90 5612   2.695   4.272   0.287 -0.7074  2.2705  0.2362
   12MOL    H91 5613   2.559   4.184   0.234 -0.1554  0.6752  3.6517
   12MOL    H92 5614   2.400   4.462   0.063  2.0324  1.4499  3.5819
   12MOL    H93 5615   2.381   4.313   0.137 -1.1042  0.5927 -0.2782
   12MOL    H94 5616   2.474   4.326   7.992 -3.0884  0.9194 -1.8301
   12MOL    H95 5617   2.963   4.609   0.127 -0.9751 -0.0542  0.6517
   12MOL    H96 5618   2.909   4.563   7.982  1.4972 -1.9075  0.6700
   12MOL    H97 5619   2.736   4.767   0.251  2.0166  0.6223  0.5367
   12MOL    H98 5620   2.650   5.008   0.210 -0.9972 -1.8912  0.4149
   12MOL    H99 5621   2.699   5.123   0.011 -0.4973  0.2657  0.6972
   12MOL   H100 5622   2.862   5.014   7.843 -2.4093  1.3806 -0.7040
   12MOL   H101 5623   2.942   4.782   7.879  0.0845 -2.0663  1.9320
   12MOL   C102 5624   2.555   4.484   0.283 -0.4688  0.4907 -0.1726
   12MOL   C103 5625   2.438   4.462   0.385 -0.7689 -0.4239  0.9212
   12MOL   C104 5626   2.426   4.316   0.430 -0.3248 -0.0919 -0.2613
   12MOL   C105 5627   2.305   4.507   0.315 -0.4343 -0.4463  0.0943
   12MOL   O106 5628   2.207   4.433   0.309  0.5666 -0.3288  0.3844
   12MOL   O107 5629   2.310   4.635   0.266 -0.4740  0.2224 -0.4424
   12MOL   C108 5630   2.217   4.683   0.176 -0.4679  0.3811  0.2290
   12MOL   C109 5631   2.253   4.815   0.096  0.1500  0.0561 -0.0461
   12MOL   C110 5632   2.147   4.905   0.056 -0.3898  0.3798 -0.4591
   12MOL   C111 5633   2.180   5.016   7.987 -0.5732 -0.3381  0.8553
   12MOL   C112 5634   2.310   5.036   7.936 -0.6561 -0.0275 -0.0130
   12MOL   C113 5635   2.408   4.940   7.968 -0.1194 -0.3456 -0.1807
   12MOL   C114 5636   2.387   4.828   0.045  0.0860  0.6366  0.3353
   12MOL   H115 5637   2.552   4.586   0.248 -1.7631 -0.0476 -1.6968
   12MOL   H116 5638   2.646   4.471   0.342 -0.0739  1.2130 -0.6218
   12MOL   H117 5639   2.384   4.244   0.360 -1.1976  0.2981 -0.1363
   12MOL   H118 5640   2.374   4.291   0.522 -0.5234 -0.9990 -0.6091
   12MOL   H119 5641   2.528   4.288   0.456 -0.3458  0.9162  0.9391
   12MOL   H120 5642   2.178   4.604   0.112 -1.0256 -0.9784  2.2151
   12MOL   H121 5643   2.134   4.707   0.244 -1.1156  0.5624 -0.6167
   12MOL   H122 5644   2.047   4.886   0.093 -0.3034 -2.1668 -1.4228
   12MOL   H123 5645   2.102   5.086   7.962 -0.3737 -0.1234  0.8313
   12MOL   H124 5646   2.337   5.115   7.868  1.1199 -1.1442 -0.6457
   12MOL   H125 5647   2.506   4.962   7.929 -0.3478  1.5331  0.2570
   12MOL   H126 5648   2.462   4.750   0.048 -2.2735 -1.7619 -0.2950
   12MOL   C127 5649   2.474   4.554   0.504 -0.3125 -0.3372 -0.4862
   12MOL   C128 5650   2.403   4.563   0.652  0.8520  0.9371 -0.0610
   12MOL   C129 5651   2.415   4.437   0.738  0.4706 -0.4316 -0.0948
   12MOL   C130 5652   2.250   4.595   0.641 -1.0828  0.0254  0.6748
   12MOL   O131 5653   2.158   4.527   0.673  0.0240  0.3117 -0.2735
   12MOL   O132 5654   2.240   4.715   0.574  0.1818  0.5952  0.3176
   12MOL   C133 5655   2.107   4.767   0.573  0.0741 -0.2237  0.5982
   12MOL   C134 5656   2.101   4.919   0.562  0.4820 -0.5118 -0.5558
   12MOL   C135 5657   2.026   4.975   0.448 -0.3611 -0.7631 -0.2581
   12MOL   C136 5658   2.021   5.118   0.443 -0.3449  0.3003 -0.0344
   12MOL   C137 5659   2.077   5.199   0.541  0.5071  0.0895 -0.2441
   12MOL   C138 5660   2.142   5.136   0.654 -0.5034 -0.0105 -0.4434
   12MOL   C139 5661   2.148   4.997   0.668  0.0840 -0.4361 -0.2875
   12MOL   H140 5662   2.460   4.654   0.465  0.8399  1.0743  2.5990
   12MOL   H141 5663   2.583   4.560   0.514 -0.3470  1.1634 -0.9431
   12MOL   H142 5664   2.515   4.393   0.737  0.5375 -0.3527  2.2282
   12MOL   H143 5665   2.350   4.353   0.711 -2.4104  1.3493  0.9959
   12MOL   H144 5666   2.394   4.477   0.837  0.2718  0.2926 -0.4285
   12MOL   H145 5667   2.060   4.731   0.481  1.1560  0.0030 -0.0584
   12MOL   H146 5668   2.048   4.730   0.657 -1.9034 -0.1855 -0.7503
   12MOL   H147 5669   1.982   4.917   0.368 -2.4227 -0.1524  0.3964
   12MOL   H148 5670   1.976   5.154   0.352 -1.6212  1.2749  0.9678
   12MOL   H149 5671   2.083   5.305   0.521 -0.5905  0.5122  1.5249
   12MOL   H150 5672   2.191   5.202   0.724  1.0857 -0.9683 -0.6204
   12MOL   H151 5673   2.205   4.950   0.747 -3.0161 -0.8992  1.7516
   12MOL   C152 5674   2.468   4.681   0.737 -0.5456 -0.7460 -0.6103
   12MOL   C153 5675   2.611   4.672   0.811 -0.7546 -0.7043  0.6162
   12MOL   C154 5676   2.723   4.646   0.707  0.3013 -0.4094 -0.2968
   12MOL   C155 5677   2.612   4.566   0.924  0.3268  0.7564  0.1117
   12MOL   O156 5678   2.682   4.463   0.909  0.3832  0.0511 -0.6424
   12MOL   O157 5679   2.537   4.595   1.027  0.5067  0.3487  0.0355
   12MOL   C158 5680   2.533   4.503   1.134  0.2332  0.2189 -0.5407
   12MOL   C159 5681   2.478   4.556   1.264 -0.1654 -0.1359  0.3106
   12MOL   C160 5682   2.498   4.493   1.387  0.2642 -0.1653  0.0884
   12MOL   C161 5683   2.447   4.550   1.507 -0.4022 -0.0108 -0.3888
   12MOL   C162 5684   2.366   4.664   1.505  0.0862  0.1462  0.3801
   12MOL   C163 5685   2.344   4.727   1.378 -0.3514  0.1566 -0.0044
   12MOL   C164 5686   2.403   4.676   1.258 -0.3322  0.6118 -0.3658
   12MOL   H165 5687   2.403   4.710   0.819  1.5231 -0.6221  1.0492
   12MOL   H166 5688   2.469   4.763   0.665 -1.2284 -1.1250 -1.0569
   12MOL   H167 5689   2.820   4.666   0.753  0.7727  0.1033 -1.4813
   12MOL   H168 5690   2.726   4.704   0.615 -0.8346 -1.0870 -0.7728
   12MOL   H169 5691   2.720   4.540   0.682 -0.1696  0.0190 -2.1376
   12MOL   H170 5692   2.463   4.424   1.106  1.0273 -0.5335 -0.4327
   12MOL   H171 5693   2.630   4.452   1.144 -0.3214 -0.9311 -0.9150
   12MOL   H172 5694   2.549   4.398   1.387  0.3382 -0.1260  0.4519
   12MOL   H173 5695   2.467   4.506   1.603  0.6173  0.7590 -0.2425
   12MOL   H174 5696   2.327   4.701   1.599 -2.8874  0.6589 -0.9858
   12MOL   H175 5697   2.294   4.822   1.387 -0.9415  0.0096 -1.5615
   12MOL   H176 5698   2.383   4.740   1.173  1.6291  0.6258 -0.8359
   12MOL   C177 5699   2.633   4.822   0.870  0.2843  0.5916 -0.1399
   12MOL   C178 5700   2.767   4.886   0.914  0.1564  0.0438  0.3341
   12MOL   C179 5701   2.843   4.948   0.791  0.7204  0.1048 -0.2013
   12MOL   C180 5702   2.862   4.792   0.987  0.8043 -0.1108 -0.4266
   12MOL   O181 5703   2.974   4.772   0.941  0.2095  0.9769 -0.8628
   12MOL   O182 5704   2.811   4.735   1.101  0.1556  0.1221 -0.1906
   12MOL   C183 5705   2.890   4.647   1.171 -0.7102 -0.3964 -0.4665
   12MOL   C184 5706   2.852   4.611   1.311 -0.6914  0.0827  0.6530
   12MOL   C185 5707   2.805   4.712   1.397 -0.0179 -0.4202  0.2450
   12MOL   C186 5708   2.784   4.689   1.536  0.2333  0.1038  0.1919
   12MOL   C187 5709   2.812   4.559   1.583 -0.3388  0.2968 -0.3732
   12MOL   C188 5710   2.871   4.462   1.498  0.1312  0.5650  0.2294
   12MOL   C189 5711   2.882   4.485   1.363  0.1311 -0.2088 -0.1816
   12MOL   H190 5712   2.550   4.839   0.939 -0.4783  0.9385 -1.1291
   12MOL   H191 5713   2.608   4.889   0.787 -0.8610 -0.8938 -1.0314
   12MOL   H192 5714   2.833   4.890   0.700 -1.7661  0.4512 -0.1829
   12MOL   H193 5715   2.950   4.964   0.803  0.8496 -0.4623 -0.5805
   12MOL   H194 5716   2.789   5.035   0.755  0.6027 -0.3973 -1.2463
   12MOL   H195 5717   2.891   4.551   1.119  0.2727 -0.3778 -0.4848
   12MOL   H196 5718   2.991   4.687   1.179 -1.4851  1.2991  0.9865
   12MOL   H197 5719   2.798   4.813   1.360  2.4191  0.1271  1.1986
   12MOL   H198 5720   2.742   4.772   1.591 -2.1163 -1.5874  1.0182
   12MOL   H199 5721   2.795   4.533   1.687 -0.1900 -1.2025 -0.7021
   12MOL   H200 5722   2.898   4.360   1.521  0.7564  0.7878  0.4943
   12MOL   H201 5723   2.905   4.411   1.287  1.4674  0.2735 -0.2672
   12MOL   C202 5724   2.726   5.001   1.013  0.2389 -0.8241 -0.0003
   12MOL   C203 5725   2.819   5.118   1.056 -0.2465 -0.0393 -0.1645
   12MOL   C204 5726   2.747   5.173   1.182  0.2414  0.1901 -0.3389
   12MOL   C205 5727   2.821   5.220   0.947 -0.5463 -0.5657 -0.0291
   12MOL   O206 5728   2.921   5.242   0.879  0.7235  0.7330 -0.1541
   12MOL   O207 5729   2.698   5.288   0.935 -0.2476 -0.0727 -0.4946
   12MOL   C208 5730   2.688   5.404   0.843 -0.8538  0.5062  0.4854
   12MOL   C209 5731   2.724   5.535   0.914  0.1718 -1.2007  0.0641
   12MOL   C210 5732   2.769   5.545   1.042  0.0276  0.4215  0.2284
   12MOL   C211 5733   2.821   5.665   1.098  0.0588  0.1476  0.0957
   12MOL   C212 5734   2.805   5.784   1.020 -0.6035  0.1386 -0.6323
   12MOL   C213 5735   2.749   5.781   0.893  0.3297  0.0663 -0.8683
   12MOL   C214 5736   2.713   5.659   0.836 -0.0824  0.1916  0.3922
   12MOL   H215 5737   2.670   4.961   1.096  1.9728 -0.6637  1.2758
   12MOL   H216 5738   2.645   5.058   0.968 -0.2802 -2.0955 -0.7088
   12MOL   H217 5739   2.641   5.190   1.166  0.1116 -1.2618 -1.0790
   12MOL   H218 5740   2.784   5.269   1.219 -0.4975  0.2134  0.3575
   12MOL   H219 5741   2.753   5.104   1.266 -0.5560  0.1000 -0.3603
   12MOL   H220 5742   2.755   5.388   0.759 -0.2553 -0.8999  1.2086
   12MOL   H221 5743   2.588   5.433   0.812 -1.0399  1.9022  2.2709
   12MOL   H222 5744   2.771   5.457   1.105 -1.8809  0.6457  0.6440
   12MOL   H223 5745   2.869   5.674   1.194  1.1959  1.9642 -0.6070
   12MOL   H224 5746   2.829   5.880   1.065  1.9759 -1.6550  1.9556
   12MOL   H225 5747   2.740   5.873   0.837 -1.7485 -0.6345 -1.7577
   12MOL   H226 5748   2.675   5.652   0.735 -2.1077 -1.5704  1.2448
   12MOL   C227 5749   2.962   5.072   1.100  0.3089  0.2533  0.3611
   12MOL   C228 5750   3.072   5.154   1.186 -0.3110  0.3723 -0.0861
   12MOL   C229 5751   3.199   5.070   1.178 -0.2898  0.1648  0.1258
   12MOL   C230 5752   3.031   5.156   1.335 -0.1791 -0.1015 -0.1092
   12MOL   O231 5753   2.966   5.248   1.377  0.0432 -0.1242 -0.0492
   12MOL   O232 5754   3.046   5.042   1.400  0.0799  0.7004 -0.0020
   12MOL   C233 5755   3.026   5.047   1.547 -0.3411 -0.5231 -0.4668
   12MOL   C234 5756   3.074   4.925   1.622  0.3281  0.7514 -0.4373
   12MOL   C235 5757   3.095   4.933   1.763 -0.1841  0.9459  0.1730
   12MOL   C236 5758   3.144   4.824   1.835  0.4921 -0.9303 -0.1242
   12MOL   C237 5759   3.173   4.706   1.760  0.9674  0.6297 -0.2418
   12MOL   C238 5760   3.146   4.693   1.625  0.5410 -0.3962  0.3630
   12MOL   C239 5761   3.092   4.802   1.555  0.7634  0.6540  0.6587
   12MOL   H240 5762   3.017   5.043   1.010 -0.3099  1.6960 -0.4965
   12MOL   H241 5763   2.958   4.978   1.156 -1.7045 -0.4361 -0.8709
   12MOL   H242 5764   3.272   5.114   1.246  0.5125 -0.9176 -0.0145
   12MOL   H243 5765   3.251   5.072   1.082 -1.2445 -0.6711 -0.4126
   12MOL   H244 5766   3.192   4.968   1.215 -2.6484  1.0779  2.2767
   12MOL   H245 5767   3.073   5.134   1.594 -1.6159  0.3162 -0.7035
   12MOL   H246 5768   2.921   5.066   1.569  0.3140 -0.1609  2.5475
   12MOL   H247 5769   3.073   5.028   1.808  0.1090  0.8221  0.5713
   12MOL   H248 5770   3.170   4.832   1.940 -1.1482 -2.2238  0.4099
   12MOL   H249 5771   3.224   4.622   1.804  0.7037  0.0966 -0.9352
   12MOL   H250 5772   3.170   4.595   1.585 -1.3128 -0.9729  0.6472
   12MOL   H251 5773   3.072   4.795   1.449 -0.8586  0.8375  0.9470
   12MOL   C252 5774   3.095   5.299   1.121  0.0109 -0.1960  0.2267
   12MOL   C253 5775   3.221   5.391   1.132 -1.0302 -0.2419 -0.2273
   12MOL   C254 5776   3.336   5.325   1.050 -0.0087 -0.0498  0.0476
   12MOL   C255 5777   3.266   5.414   1.276 -0.2744 -0.4579  0.3359
   12MOL   O256 5778   3.383   5.388   1.313  0.0672 -0.5410  0.0939
   12MOL   O257 5779   3.165   5.469   1.350 -0.6187  0.1963  0.5059
   12MOL   C258 5780   3.188   5.496   1.485 -0.4791 -0.7655 -0.2755
   12MOL   C259 5781   3.092   5.566   1.572  0.2966 -0.3304  0.6325
   12MOL   C260 5782   3.121   5.692   1.626  0.5767 -0.4735  0.3727
   12MOL   C261 5783   3.030   5.746   1.721 -0.5557  0.6784 -0.1049
   12MOL   C262 5784   2.910   5.682   1.758  0.4192 -0.1064 -0.7603
   12MOL   C263 5785   2.875   5.556   1.699  0.7521 -0.1852 -0.4716
   12MOL   C264 5786   2.972   5.500   1.611  0.4256  0.2049 -1.1365
   12MOL   H265 5787   3.014   5.367   1.147  1.4156  1.1614  1.1352
   12MOL   H266 5788   3.101   5.278   1.014  0.6737  1.9313 -0.1947
   12MOL   H267 5789   3.385   5.244   1.104 -0.3728 -2.0199 -2.4466
   12MOL   H268 5790   3.426   5.384   1.038 -0.3326  0.2794 -0.8078
   12MOL   H269 5791   3.310   5.299   0.947  0.6706  1.4586 -0.5133
   12MOL   H270 5792   3.224   5.400   1.524  2.7440 -1.4992 -4.5732
   12MOL   H271 5793   3.278   5.558   1.478 -2.4443  2.3546  1.4793
   12MOL   H272 5794   3.218   5.738   1.619  1.0224 -1.0985  2.2063
   12MOL   H273 5795   3.053   5.842   1.765  0.6674  1.1918 -1.8182
   12MOL   H274 5796   2.850   5.741   1.826 -0.6239 -0.3512 -1.4613
   12MOL   H275 5797   2.782   5.508   1.724  0.4999  1.0623  1.0886
   12MOL   H276 5798   2.954   5.402   1.568  0.0954  0.4364 -1.5260
   12MOL   C277 5799   3.180   5.529   1.063 -0.5628  0.2075  0.4523
   12MOL   C278 5800   3.277   5.630   1.002  0.4559 -0.0415  0.0182
   12MOL   C279 5801   3.196   5.736   0.929  0.1531 -0.3250  0.0014
   12MOL   C280 5802   3.355   5.567   0.880 -0.2761 -0.1395 -0.4356
   12MOL   O281 5803   3.479   5.574   0.870 -0.1524  0.7772 -0.1081
   12MOL   O282 5804   3.275   5.525   0.786 -0.4808  0.3266  0.8080
   12MOL   C283 5805   3.327   5.487   0.662  0.6496  0.4914  0.1259
   12MOL   C284 5806   3.217   5.438   0.572 -0.9493 -0.1238 -0.0657
   12MOL   C285 5807   3.196   5.497   0.447  0.3032 -0.5910  0.5116
   12MOL   C286 5808   3.097   5.434   0.359  0.0059  0.4975  0.6320
   12MOL   C287 5809   3.023   5.324   0.401  0.0809 -0.2733 -0.6097
   12MOL   C288 5810   3.043   5.275   0.529  0.2489 -0.3927 -0.5031
   12MOL   C289 5811   3.140   5.327   0.614  0.1201  0.0375 -0.2124
   12MOL   H290 5812   3.124   5.578   1.143 -1.3796  0.2006 -0.1103
   12MOL   H291 5813   3.098   5.513   0.993 -0.6290 -0.2373  0.6311
   12MOL   H292 5814   3.122   5.688   0.864 -1.5826  2.1351  0.0954
   12MOL   H293 5815   3.262   5.800   0.870 -0.4830 -0.5608 -0.9966
   12MOL   H294 5816   3.146   5.798   1.004  0.8650  0.5570 -0.2455
   12MOL   H295 5817   3.363   5.577   0.614 -0.5143  0.1844 -1.3941
   12MOL   H296 5818   3.410   5.416   0.666  1.0428  1.0283  1.8557
   12MOL   H297 5819   3.265   5.575   0.419 -2.3757  1.1672 -1.4662
   12MOL   H298 5820   3.084   5.479   0.262 -1.3194 -0.9539  0.1012
   12MOL   H299 5821   2.950   5.276   0.337 -0.1277 -1.7510  0.6935
   12MOL   H300 5822   2.990   5.187   0.563  0.5355 -0.2397  0.3395
   12MOL   H301 5823   3.162   5.274   0.705 -2.2509 -0.7824 -0.0910
   12MOL   C302 5824   3.387   5.690   1.102 -0.0983  0.6875  0.0406
   12MOL   C303 5825   3.356   5.811   1.205  0.1369  0.2324 -0.3435
   12MOL   C304 5826   3.222   5.797   1.279  0.6958 -0.9934 -0.1739
   12MOL   C305 5827   3.346   5.945   1.131 -0.5750  0.0966  0.4027
   12MOL   O306 5828   3.274   6.034   1.176 -0.1809 -0.2621 -0.1585
   12MOL   O307 5829   3.438   5.957   1.032  0.0364  0.0712 -0.1997
   12MOL   C308 5830   3.458   6.079   0.966  0.3005  0.1314  0.9516
   12MOL   C309 5831   3.365   6.116   0.850  0.1380  0.7142  1.0067
   12MOL   C310 5832   3.302   6.242   0.850 -0.0958  0.1041  0.1219
   12MOL   C311 5833   3.213   6.274   0.744  0.0874  0.6440 -0.3279
   12MOL   C312 5834   3.200   6.189   0.625  0.0144 -0.3915 -0.1075
   12MOL   C313 5835   3.272   6.067   0.628  0.6173 -0.4451  0.6346
   12MOL   C314 5836   3.347   6.033   0.740 -0.2508  0.2338  0.0653
   12MOL   H315 5837   3.480   5.715   1.050  0.0629  2.0586  0.9535
   12MOL   H316 5838   3.408   5.606   1.168 -3.8669 -1.3836 -1.2757
   12MOL   H317 5839   3.126   5.783   1.230  0.8281  1.2463 -1.1138
   12MOL   H318 5840   3.203   5.885   1.340  1.4960 -0.9714  0.0562
   12MOL   H319 5841   3.224   5.716   1.353  1.9842 -1.3718 -0.5926
   12MOL   H320 5842   3.469   6.166   1.030  1.3850  0.6648  0.0543
   12MOL   H321 5843   3.557   6.071   0.920  0.8934  3.3131  1.5762
   12MOL   H322 5844   3.315   6.310   0.932  0.8191  0.7359 -0.5354
   12MOL   H323 5845   3.162   6.369   0.739  1.7207  1.5887  0.4281
   12MOL   H324 5846   3.135   6.207   0.541 -0.5018  0.9465  0.5698
   12MOL   H325 5847   3.254   6.003   0.543 -1.7150 -2.5064  2.6295
   12MOL   H326 5848   3.393   5.935   0.744  1.0322  0.8012 -0.6538
   12MOL   C327 5849   3.459   5.819   1.330 -0.4732  0.5658 -0.0627
   12MOL   C328 5850   3.595   5.891   1.333  0.0136  0.3630 -0.8583
   12MOL   C329 5851   3.582   6.047   1.336 -0.0505 -0.0260  0.5241
   12MOL   C330 5852   3.681   5.858   1.212 -0.7846  0.6244 -0.7406
   12MOL   O331 5853   3.734   5.945   1.139  0.1278 -0.1813 -0.1991
   12MOL   O332 5854   3.684   5.724   1.195  0.2802 -0.0834  0.2240
   12MOL   C333 5855   3.776   5.671   1.109  0.3002  0.3076 -0.3395
   12MOL   C334 5856   3.908   5.632   1.172  0.6225  0.1293  0.2889
   12MOL   C335 5857   3.916   5.532   1.276  0.5003  0.4703 -0.3114
   12MOL   C336 5858   4.039   5.492   1.334  1.0909 -0.8278  0.1110
   12MOL   C337 5859   4.160   5.558   1.281  0.6697  0.5370  0.9507
   12MOL   C338 5860   4.145   5.653   1.173  0.2854 -0.0547 -0.8420
   12MOL   C339 5861   4.019   5.694   1.129  0.2015 -0.2020 -0.1124
   12MOL   H340 5862   3.486   5.717   1.357 -0.6195  0.7157  0.6841
   12MOL   H341 5863   3.399   5.843   1.419  1.4314 -0.1687  1.4512
   12MOL   H342 5864   3.517   6.065   1.421 -1.3483  1.1853 -0.6984
   12MOL   H343 5865   3.524   6.086   1.252 -1.4329  0.2193  1.5753
   12MOL   H344 5866   3.679   6.093   1.348  0.8461 -1.6225 -0.3583
   12MOL   H345 5867   3.724   5.576   1.098  0.0248  0.3616  0.5156
   12MOL   H346 5868   3.786   5.735   1.021 -1.8954  2.2589  0.7680
   12MOL   H347 5869   3.816   5.501   1.305  0.0855  0.0849 -2.0920
   12MOL   H348 5870   4.057   5.423   1.414  0.2576 -0.2762  0.7831
   12MOL   H349 5871   4.257   5.542   1.326  0.6355 -2.5434  0.0483
   12MOL   H350 5872   4.234   5.701   1.135  1.8667 -3.8515 -2.2007
   12MOL   H351 5873   4.026   5.770   1.052 -0.4533  2.0440  1.9909
   12MOL   C352 5874   3.666   5.840   1.467  0.9422 -0.7471 -0.2533
   12MOL   C353 5875   3.750   5.920   1.574  0.0037 -0.0826 -0.3036
   12MOL   C354 5876   3.671   6.044   1.632 -0.6073 -0.1659 -0.6644
   12MOL   C355 5877   3.879   5.986   1.516  0.2401  0.1571  0.3742
   12MOL   O356 5878   3.928   5.975   1.401 -0.2645  0.1001  0.6542
   12MOL   O357 5879   3.946   6.072   1.607  0.1505  0.3709 -0.4125
   12MOL   C358 5880   4.079   6.113   1.566 -0.3963 -0.0788  0.2251
   12MOL   C359 5881   4.158   6.172   1.679  1.0390  0.0427  0.1253
   12MOL   C360 5882   4.194   6.092   1.789 -0.0465 -0.5548 -0.6007
   12MOL   C361 5883   4.260   6.151   1.901  0.6667 -0.0542 -0.3569
   12MOL   C362 5884   4.304   6.286   1.895  0.2262 -0.1309 -0.3969
   12MOL   C363 5885   4.277   6.360   1.784  0.5255 -0.7772 -0.3972
   12MOL   C364 5886   4.203   6.305   1.677  0.3769  0.0559  0.2730
   12MOL   H365 5887   3.735   5.758   1.447  1.8096 -0.0074 -0.3440
   12MOL   H366 5888   3.592   5.789   1.529  0.9938 -1.1732 -0.5412
   12MOL   H367 5889   3.669   6.131   1.567  1.6911 -0.0494 -0.6300
   12MOL   H368 5890   3.707   6.065   1.733 -1.3704 -1.7377 -0.0530
   12MOL   H369 5891   3.569   6.009   1.647 -1.3583  1.7056 -1.2664
   12MOL   H370 5892   4.143   6.029   1.539 -0.9678 -0.4807  0.1066
   12MOL   H371 5893   4.078   6.199   1.499 -1.7151 -0.1822  0.1080
   12MOL   H372 5894   4.160   5.990   1.794 -2.4492  0.2666  0.6845
   12MOL   H373 5895   4.275   6.092   1.991 -0.4070 -0.8304 -0.6829
   12MOL   H374 5896   4.351   6.340   1.976  1.7473  2.3590 -2.8730
   12MOL   H375 5897   4.321   6.457   1.766  1.2825 -1.0204  0.1387
   12MOL   H376 5898   4.179   6.359   1.587 -1.4260 -0.0548  0.6630
   12MOL   C377 5899   3.774   5.823   1.696 -0.3184  0.7080 -0.0996
   12MOL   C378 5900   3.855   5.685   1.692  0.1267  0.4742 -1.0675
   12MOL   C379 5901   3.978   5.707   1.605  0.0802  0.2264 -0.1627
   12MOL   C380 5902   3.774   5.567   1.631 -0.0334  0.1778  0.2154
   12MOL   O381 5903   3.832   5.465   1.590  0.5117  0.1286 -0.7132
   12MOL   O382 5904   3.635   5.579   1.640  0.4028  0.1192  0.5493
   12MOL   C383 5905   3.551   5.493   1.559  0.6251  0.2864 -0.3165
   12MOL   C384 5906   3.494   5.381   1.639 -0.1023 -0.3244 -0.2454
   12MOL   C385 5907   3.454   5.406   1.774 -0.0516  0.3048  0.0730
   12MOL   C386 5908   3.383   5.302   1.839 -0.2549 -0.3763  0.6526
   12MOL   C387 5909   3.370   5.174   1.773  0.6064 -0.5822  0.0128
   12MOL   C388 5910   3.422   5.151   1.644  0.5920 -0.3906 -0.1104
   12MOL   C389 5911   3.484   5.258   1.577  0.0720  0.2274 -0.3130
   12MOL   H390 5912   3.675   5.811   1.739 -0.5214 -1.5331 -1.1619
   12MOL   H391 5913   3.833   5.887   1.761 -1.6728  1.4647  0.4086
   12MOL   H392 5914   4.055   5.630   1.603 -1.2914 -1.1481 -0.6386
   12MOL   H393 5915   4.029   5.795   1.644 -0.4910 -0.2263  1.6812
   12MOL   H394 5916   3.967   5.721   1.498 -0.8200 -2.1299 -0.3931
   12MOL   H395 5917   3.472   5.557   1.521  1.2280  1.1580 -0.1084
   12MOL   H396 5918   3.611   5.448   1.480  2.4077  0.8765  0.6503
   12MOL   H397 5919   3.470   5.507   1.810 -2.9693  0.6140  0.6012
   12MOL   H398 5920   3.350   5.313   1.941 -1.8444  0.3029  0.0734
   12MOL   H399 5921   3.312   5.103   1.831 -1.6649  0.0212 -1.4452
   12MOL   H400 5922   3.402   5.054   1.601  1.3343 -0.5045 -0.2075
   12MOL   H401 5923   3.536   5.244   1.483  1.0225 -1.1235  0.3977
   12MOL   C402 5924   3.911   5.643   1.842 -0.6699 -0.4973 -0.4987
   12MOL   C403 5925   3.829   5.632   1.980 -0.4168 -0.7990  0.4315
   12MOL   C404 5926   3.691   5.574   1.951  0.5067  0.6343 -0.4307
   12MOL   C405 5927   3.805   5.772   2.041  0.1134  0.1435 -0.4717
   12MOL   O406 5928   3.837   5.877   2.000 -0.1375  0.0768 -0.2243
   12MOL   O407 5929   3.730   5.767   2.156 -0.0479 -0.0647  0.1323
   12MOL   C408 5930   3.705   5.875   2.234  0.2359 -0.1834  0.1800
   12MOL   C409 5931   3.557   5.913   2.229 -0.2166  0.6783  0.5947
   12MOL   C410 5932   3.479   5.917   2.345 -0.1759 -0.4882  0.6769
   12MOL   C411 5933   3.340   5.948   2.338  0.3605 -0.2907 -0.1746
   12MOL   C412 5934   3.279   5.972   2.210 -0.4732 -0.1264  0.1060
   12MOL   C413 5935   3.362   5.988   2.095 -0.0927  0.5064 -0.3832
   12MOL   C414 5936   3.499   5.957   2.109  0.6827 -0.2761 -0.1682
   12MOL   H415 5937   3.999   5.704   1.862 -1.9191  1.2555 -0.1990
   12MOL   H416 5938   3.955   5.545   1.823 -0.1637 -0.2219 -0.7814
   12MOL   H417 5939   3.622   5.562   2.034  1.3470  1.3409  0.3740
   12MOL   H418 5940   3.702   5.477   1.903  0.8216  0.3127  0.2920
   12MOL   H419 5941   3.645   5.638   1.875  2.1841  1.4607 -0.7657
   12MOL   H420 5942   3.741   5.848   2.333 -1.2100  0.0644  0.7715
   12MOL   H421 5943   3.765   5.963   2.207  0.5697  0.0345  1.5935
   12MOL   H422 5944   3.523   5.890   2.440  1.9847 -1.0278 -0.4307
   12MOL   H423 5945   3.268   5.952   2.418 -0.5383  1.6659 -1.0475
   12MOL   H424 5946   3.172   5.980   2.205 -0.4498  0.4672  0.5173
   12MOL   H425 5947   3.337   6.009   1.992  1.7538 -0.7283 -1.1138
   12MOL   H426 5948   3.559   5.972   2.021  0.5874  3.9593  0.3667
   12MOL   C427 5949   3.888   5.529   2.086  0.5920 -0.9767  0.2616
   12MOL   C428 5950   4.025   5.544   2.162  0.4516  0.7018 -0.3100
   12MOL   C429 5951   4.051   5.402   2.232 -0.6544  0.1647  0.2442
   12MOL   C430 5952   4.018   5.659   2.266 -0.4446  0.5052 -0.2957
   12MOL   O431 5953   4.083   5.762   2.248  0.5642  0.0605  0.2982
   12MOL   O432 5954   3.943   5.637   2.373  0.4190  0.0538 -0.0988
   12MOL   C433 5955   3.941   5.735   2.479 -0.0749 -0.5037  0.6743
   12MOL   C434 5956   3.845   5.710   2.586 -0.0218 -0.2819  0.1195
   12MOL   C435 5957   3.890   5.713   2.720 -0.4695  0.2494  0.0500
   12MOL   C436 5958   3.794   5.708   2.823  0.1836  0.1074 -1.1820
   12MOL   C437 5959   3.655   5.686   2.799  0.5569 -0.1330  0.2605
   12MOL   C438 5960   3.617   5.662   2.664  0.7872 -0.7921 -0.5915
   12MOL   C439 5961   3.705   5.693   2.559  1.8007  0.0104  0.2230
   12MOL   H440 5962   3.884   5.426   2.050 -1.3658  0.0596 -2.6560
   12MOL   H441 5963   3.819   5.535   2.170  1.0090  0.5988  0.4965
   12MOL   H442 5964   4.138   5.403   2.298 -1.2591 -1.3182  1.0861
   12MOL   H443 5965   4.054   5.315   2.167  0.2917  0.0192  0.4819
   12MOL   H444 5966   3.964   5.380   2.294 -0.3160 -0.2190  0.5812
   12MOL   H445 5967   4.036   5.740   2.532 -0.5840  1.4710  1.4712
   12MOL   H446 5968   3.910   5.831   2.436  1.3867 -0.4299 -0.2510
   12MOL   H447 5969   3.990   5.735   2.755  0.1444 -0.4632 -1.2139
   12MOL   H448 5970   3.827   5.718   2.925 -0.0536  0.9330 -1.1846
   12MOL   H449 5971   3.572   5.683   2.868 -1.3029 -1.4360 -1.9655
   12MOL   H450 5972   3.512   5.643   2.649 -0.2712  3.0785  1.2462
   12MOL   H451 5973   3.689   5.684   2.453  0.6687 -2.0053  0.5363
   12MOL   C452 5974   4.136   5.573   2.059  0.3741  0.1526 -0.0087
   12MOL   C453 5975   4.287   5.543   2.078 -0.1497  0.3647 -0.2897
   12MOL   C454 5976   4.322   5.397   2.044 -0.2487 -0.5112 -0.8802
   12MOL   C455 5977   4.343   5.576   2.222  0.5561  0.0420  0.2973
   12MOL   O456 5978   4.379   5.485   2.297  0.7723  0.0699 -0.3568
   12MOL   O457 5979   4.356   5.715   2.243 -0.5962  0.6851 -0.2315
   12MOL   C458 5980   4.400   5.756   2.368  0.5093  0.7893  0.5378
   12MOL   C459 5981   4.353   5.892   2.412  0.4580 -0.9270  0.4517
   12MOL   C460 5982   4.381   6.008   2.331 -0.3808  0.3968 -0.4207
   12MOL   C461 5983   4.334   6.134   2.388  0.3595  0.1066 -0.5867
   12MOL   C462 5984   4.254   6.137   2.507 -0.7957 -0.7753  0.5414
   12MOL   C463 5985   4.221   6.016   2.574 -0.2964  0.3322  0.5671
   12MOL   C464 5986   4.272   5.894   2.528  0.4968 -0.3109  0.0966
   12MOL   H465 5987   4.126   5.673   2.015 -0.3837  0.2272  0.3319
   12MOL   H466 5988   4.113   5.509   1.974 -1.0927  0.2700  0.2897
   12MOL   H467 5989   4.412   5.362   2.094 -1.3485 -1.8323  0.2137
   12MOL   H468 5990   4.330   5.389   1.936  0.5077 -1.3726 -0.7655
   12MOL   H469 5991   4.237   5.334   2.069  0.3905 -2.7024 -4.0049
   12MOL   H470 5992   4.364   5.684   2.441  2.2427 -2.3700 -1.5880
   12MOL   H471 5993   4.509   5.744   2.372  0.3112 -1.2947  0.0900
   12MOL   H472 5994   4.444   6.003   2.243  1.2375 -2.6321  0.8151
   12MOL   H473 5995   4.357   6.228   2.341 -1.5393 -0.1685 -2.1422
   12MOL   H474 5996   4.245   6.231   2.560  0.5078 -0.9236  1.0333
   12MOL   H475 5997   4.170   6.030   2.669  1.5559  3.0750  1.2319
   12MOL   H476 5998   4.260   5.799   2.578  1.6865 -0.3344  0.3442
   12MOL   C477 5999   4.363   5.640   1.980 -0.2745 -0.1938  0.3689
   12MOL   C478 6000   4.524   5.643   1.986 -0.3060 -0.5582  0.1289
   12MOL   C479 6001   4.583   5.789   2.017 -0.0778  0.2874 -0.7021
   12MOL   C480 6002   4.587   5.580   1.864 -0.0318 -0.2201  0.1564
   12MOL   O481 6003   4.572   5.457   1.840 -0.1803 -0.1987 -0.0422
   12MOL   O482 6004   4.635   5.669   1.768 -0.1430  0.1253  0.0507
   12MOL   C483 6005   4.667   5.632   1.630 -0.6403  0.0771  0.2561
   12MOL   C484 6006   4.572   5.682   1.530  0.4031 -0.8490  0.1495
   12MOL   C485 6007   4.443   5.711   1.571 -0.0735 -0.2241 -0.4200
   12MOL   C486 6008   4.347   5.781   1.493  0.4709  0.2718 -0.3856
   12MOL   C487 6009   4.389   5.834   1.368 -0.6482 -0.5732  1.3976
   12MOL   C488 6010   4.522   5.801   1.318  0.3507 -0.5537 -0.2573
   12MOL   C489 6011   4.610   5.727   1.405  0.7944  0.6207  0.0195
   12MOL   H490 6012   4.330   5.743   1.989  1.0069  0.1845  0.8927
   12MOL   H491 6013   4.328   5.603   1.884  0.8627 -0.1850 -0.0524
   12MOL   H492 6014   4.689   5.779   2.042 -0.7776 -0.8707  2.0308
   12MOL   H493 6015   4.554   5.815   2.119 -1.0899 -0.2380 -0.8525
   12MOL   H494 6016   4.558   5.868   1.946  0.2411  1.2099  0.1978
   12MOL   H495 6017   4.766   5.677   1.613 -0.0976 -1.2744 -0.2273
   12MOL   H496 6018   4.684   5.524   1.627 -2.0497 -0.2045  2.2031
   12MOL   H497 6019   4.405   5.679   1.667  1.1761  0.2191  0.2338
   12MOL   H498 6020   4.244   5.800   1.518  0.2110  0.4918 -1.5980
   12MOL   H499 6021   4.315   5.876   1.301  0.1642 -2.4946 -0.7926
   12MOL   H500 6022   4.556   5.838   1.223  2.8364 -0.8368  0.4664
   12MOL   H501 6023   4.707   5.699   1.366  0.5597 -2.9301  1.8344
   12MOL   H502 6024   4.557   5.587   2.073 -2.4941  0.6520  1.7857
   13MOL     C1 6025   7.365   2.259   1.732  0.1774 -1.3077 -1.0633
   13MOL     C2 6026   7.289   2.199   1.613  0.3288 -0.0725 -0.6050
   13MOL     C3 6027   7.343   2.059   1.577  0.2707  0.6441  0.3784
   13MOL     C4 6028   7.305   2.277   1.483 -0.3055 -0.4023  0.0505
   13MOL     O5 6029   7.372   2.381   1.470 -0.2592  0.2250  0.2839
   13MOL     O6 6030   7.238   2.217   1.370  0.2220 -0.9685  0.1399
   13MOL     C7 6031   7.246   2.278   1.241  0.2634  0.1048  0.4632
   13MOL     C8 6032   7.129   2.371   1.209 -0.4474 -0.2935 -0.6024
   13MOL     C9 6033   6.990   2.336   1.244 -0.8115 -0.1059  0.2420
   13MOL    C10 6034   6.887   2.425   1.214 -0.1959  0.2326  0.1178
   13MOL    C11 6035   6.918   2.543   1.148 -0.2609 -1.1694 -0.4781
   13MOL    C12 6036   7.050   2.585   1.123 -0.2049  0.3822  0.4953
   13MOL    C13 6037   7.157   2.497   1.149 -0.5042  0.7466 -0.6224
   13MOL    H14 6038   7.338   2.364   1.733 -0.2174 -1.4040 -1.6637
   13MOL    H15 6039   7.330   2.219   1.827 -1.0211 -1.1462 -1.4332
   13MOL    H16 6040   7.348   1.991   1.661  2.0784  0.7022  0.3363
   13MOL    H17 6041   7.447   2.060   1.542  0.5772  1.8789  1.2915
   13MOL    H18 6042   7.288   2.009   1.497 -0.2420  1.3681  0.2675
   13MOL    H19 6043   7.337   2.332   1.216 -0.4491  1.1324  0.0682
   13MOL    H20 6044   7.246   2.190   1.176 -0.7310 -1.3649  2.3596
   13MOL    H21 6045   6.973   2.251   1.309  3.5611 -0.4553  1.1225
   13MOL    H22 6046   6.790   2.397   1.251  0.4682  0.0531  1.7445
   13MOL    H23 6047   6.846   2.614   1.111  1.1895  0.7865  0.4245
   13MOL    H24 6048   7.067   2.682   1.079  1.3247 -0.5509 -1.0470
   13MOL    H25 6049   7.261   2.514   1.124 -0.1324  2.0939  1.7158
   13MOL    H26 6050   7.473   2.247   1.725  0.5061  1.9472 -2.3379
   13MOL    C27 6051   7.133   2.176   1.653 -0.1275  0.3817  0.2362
   13MOL    C28 6052   7.037   2.292   1.704 -0.3636 -0.9064  0.0829
   13MOL    C29 6053   7.066   2.419   1.619  0.1355 -0.3021 -0.9823
   13MOL    C30 6054   7.055   2.327   1.855  0.1441  0.4491  0.1969
   13MOL    O31 6055   7.112   2.242   1.931  0.5626  0.0100  0.3874
   13MOL    O32 6056   6.997   2.448   1.895 -0.4845  1.1722  0.3628
   13MOL    C33 6057   6.990   2.487   2.029  0.4109 -0.2372  0.3026
   13MOL    C34 6058   6.900   2.610   2.051 -0.3762 -0.4603 -0.2358
   13MOL    C35 6059   6.781   2.605   2.136 -0.4397 -0.1726 -0.1352
   13MOL    C36 6060   6.697   2.717   2.140 -0.1151  0.4901  0.1773
   13MOL    C37 6061   6.731   2.833   2.071  0.6377 -0.0807  0.1430
   13MOL    C38 6062   6.855   2.848   2.003 -0.0846  0.1811  0.0290
   13MOL    C39 6063   6.932   2.732   1.989  0.9701  0.3933 -1.2193
   13MOL    H40 6064   7.140   2.097   1.728  0.9347  3.3155  3.3317
   13MOL    H41 6065   7.082   2.131   1.568 -0.3133 -2.2602  1.6591
   13MOL    H42 6066   6.994   2.499   1.639  0.8874  0.3234 -0.7604
   13MOL    H43 6067   7.050   2.396   1.514 -1.5872  1.1311 -1.0584
   13MOL    H44 6068   7.169   2.453   1.626  0.2899 -0.9035 -0.1945
   13MOL    H45 6069   6.956   2.404   2.092 -1.2052 -1.0884 -1.6583
   13MOL    H46 6070   7.091   2.515   2.061  0.0033 -1.9714  3.3386
   13MOL    H47 6071   6.766   2.513   2.189  0.2348  0.1538  0.6391
   13MOL    H48 6072   6.613   2.712   2.207  1.5709  1.7755  2.4674
   13MOL    H49 6073   6.652   2.906   2.068  0.9377  0.2441  0.0815
   13MOL    H50 6074   6.889   2.941   1.959  1.1760 -0.0330  0.5480
   13MOL    H51 6075   7.021   2.734   1.927  0.5359  1.8077 -1.8118
   13MOL    C52 6076   6.890   2.227   1.675 -0.1260 -0.2604  0.2519
   13MOL    C53 6077   6.754   2.276   1.733 -0.4807 -0.5913  0.1020
   13MOL    C54 6078   6.730   2.430   1.693 -0.1873 -0.0104  0.3673
   13MOL    C55 6079   6.743   2.260   1.885 -0.1734  0.4357 -0.3703
   13MOL    O56 6080   6.681   2.336   1.955  0.6617  0.0555  0.5506
   13MOL    O57 6081   6.791   2.147   1.937 -0.0731 -0.1828  0.5568
   13MOL    C58 6082   6.783   2.132   2.079  0.0806 -0.5068 -0.5381
   13MOL    C59 6083   6.788   1.983   2.123  0.4980  0.0658  0.1525
   13MOL    C60 6084   6.902   1.925   2.186  0.4329 -0.5197 -0.1081
   13MOL    C61 6085   6.901   1.787   2.216 -0.6469  0.5258  0.6742
   13MOL    C62 6086   6.791   1.706   2.171 -0.7228  0.7439 -0.1975
   13MOL    C63 6087   6.683   1.765   2.111 -0.1822  0.7649  0.3946
   13MOL    C64 6088   6.679   1.902   2.080 -0.5562 -0.7407  0.6399
   13MOL    H65 6089   6.898   2.122   1.702  0.1605 -0.4776 -0.6736
   13MOL    H66 6090   6.874   2.232   1.567  2.1580  1.3711 -0.0463
   13MOL    H67 6091   6.773   2.446   1.595  1.9447  1.3405  1.4827
   13MOL    H68 6092   6.780   2.490   1.770  1.3113 -2.6673  1.5335
   13MOL    H69 6093   6.625   2.461   1.698 -0.1819  0.0344  0.1820
   13MOL    H70 6094   6.848   2.204   2.128 -0.2497 -1.1448  0.8651
   13MOL    H71 6095   6.681   2.154   2.112 -0.4854 -1.0138 -1.8749
   13MOL    H72 6096   6.996   1.978   2.192  0.6113 -0.4252 -2.9880
   13MOL    H73 6097   6.981   1.734   2.266 -0.4033  2.3313  2.2612
   13MOL    H74 6098   6.782   1.602   2.197 -1.7381  1.2764  1.6287
   13MOL    H75 6099   6.595   1.706   2.091  0.4366  0.7786 -2.7105
   13MOL    H76 6100   6.588   1.947   2.043  0.3896  1.3348  0.7546
   13MOL    C77 6101   6.635   2.182   1.679  0.5115  0.3585  0.9161
   13MOL    C78 6102   6.593   2.158   1.531 -0.5127 -0.4958 -0.0974
   13MOL    C79 6103   6.456   2.084   1.546  1.1997 -0.1708  0.1350
   13MOL    C80 6104   6.700   2.063   1.465 -0.2245  0.6100  0.5324
   13MOL    O81 6105   6.784   2.102   1.384  0.4438  0.0690  0.4332
   13MOL    O82 6106   6.695   1.936   1.514 -0.0048  0.0612 -0.3159
   13MOL    C83 6107   6.792   1.845   1.472 -0.2564 -0.0497 -0.3333
   13MOL    C84 6108   6.807   1.743   1.582  0.0564  0.0155  0.4702
   13MOL    C85 6109   6.822   1.605   1.539  0.2912  0.1309  0.0217
   13MOL    C86 6110   6.836   1.510   1.641 -0.2405  0.0688 -0.3102
   13MOL    C87 6111   6.857   1.545   1.774 -0.5453  0.0028 -0.0410
   13MOL    C88 6112   6.853   1.684   1.813  0.3206  0.2581 -0.0842
   13MOL    C89 6113   6.828   1.776   1.718 -0.0216 -0.0160 -0.6175
   13MOL    H90 6114   6.550   2.203   1.744 -0.3833 -1.5709  0.4004
   13MOL    H91 6115   6.656   2.083   1.717  0.0729 -0.5463 -1.1245
   13MOL    H92 6116   6.424   2.039   1.452 -1.0042  1.7698 -0.1030
   13MOL    H93 6117   6.379   2.156   1.575  2.8200  1.1132  1.3155
   13MOL    H94 6118   6.458   2.004   1.619  0.5412 -0.5163 -0.2131
   13MOL    H95 6119   6.738   1.817   1.381 -1.1199 -0.6040  0.3423
   13MOL    H96 6120   6.891   1.878   1.442  1.0494 -1.2960  2.3791
   13MOL    H97 6121   6.814   1.569   1.437  0.9285  0.9602 -0.3287
   13MOL    H98 6122   6.827   1.405   1.619  2.3880  0.0106 -1.3257
   13MOL    H99 6123   6.863   1.476   1.856 -3.1192  1.3280  1.3210
   13MOL   H100 6124   6.864   1.707   1.917 -0.2142 -2.8203  0.6950
   13MOL   H101 6125   6.836   1.877   1.756  1.9317  0.5297 -2.3675
   13MOL   C102 6126   6.585   2.302   1.454  0.6755  0.2364  0.1524
   13MOL   C103 6127   6.490   2.323   1.324  0.0604  0.8000  0.1549
   13MOL   C104 6128   6.528   2.203   1.226  0.1653 -0.2756 -0.1757
   13MOL   C105 6129   6.536   2.452   1.258  0.2468  0.0556  0.2180
   13MOL   O106 6130   6.547   2.457   1.136  0.3469 -0.0736  0.3429
   13MOL   O107 6131   6.552   2.555   1.342  0.1053  0.5500  0.4261
   13MOL   C108 6132   6.575   2.685   1.285  0.9369  0.0853  0.1699
   13MOL   C109 6133   6.615   2.786   1.387  0.8627  0.1158 -0.1026
   13MOL   C110 6134   6.535   2.901   1.409 -1.1257 -0.0291 -0.0724
   13MOL   C111 6135   6.583   3.008   1.492 -0.3803 -0.2970  0.6951
   13MOL   C112 6136   6.705   2.994   1.556  0.0481 -0.5411 -0.2386
   13MOL   C113 6137   6.783   2.877   1.533  1.1190  0.5389  0.8951
   13MOL   C114 6138   6.735   2.776   1.449 -0.0612 -0.8354 -0.6896
   13MOL   H115 6139   6.684   2.342   1.434  0.3286  0.4475 -1.1993
   13MOL   H116 6140   6.544   2.371   1.529  0.1235 -0.5939  0.6244
   13MOL   H117 6141   6.459   2.196   1.142  2.6868 -0.8240 -2.2473
   13MOL   H118 6142   6.518   2.104   1.270 -0.2604 -0.4794 -0.7328
   13MOL   H119 6143   6.629   2.213   1.187  0.1309  0.8451 -0.0056
   13MOL   H120 6144   6.665   2.680   1.222 -1.3241  1.8809 -3.3788
   13MOL   H121 6145   6.497   2.724   1.220  0.1039 -0.7640  0.6615
   13MOL   H122 6146   6.433   2.905   1.372 -1.9651 -2.2741  1.8726
   13MOL   H123 6147   6.533   3.104   1.498 -2.4839 -1.2600 -0.6781
   13MOL   H124 6148   6.741   3.078   1.614 -0.0491 -0.1352 -0.7678
   13MOL   H125 6149   6.882   2.869   1.575  1.7912  0.4574 -0.6413
   13MOL   H126 6150   6.800   2.691   1.438  0.4570 -0.5165 -0.1296
   13MOL   C127 6151   6.339   2.313   1.358  0.4506  0.5377 -0.5891
   13MOL   C128 6152   6.220   2.373   1.279  0.1835  0.3647 -0.2751
   13MOL   C129 6153   6.233   2.524   1.276  0.2475  0.2683  0.4896
   13MOL   C130 6154   6.100   2.336   1.364 -0.2074  0.0752  0.4076
   13MOL   O131 6155   6.058   2.414   1.450  0.5626  1.0347  0.1237
   13MOL   O132 6156   6.053   2.209   1.327 -0.5670  0.4454 -0.0732
   13MOL   C133 6157   5.929   2.170   1.383  1.2552  0.2892 -0.4689
   13MOL   C134 6158   5.959   2.114   1.522 -0.0704  0.5809  0.1398
   13MOL   C135 6159   5.903   2.173   1.636 -0.7606  0.0771  0.2959
   13MOL   C136 6160   5.932   2.126   1.766  0.0764 -0.3798 -0.6165
   13MOL   C137 6161   6.006   2.004   1.774  0.1877 -0.6566 -0.4485
   13MOL   C138 6162   6.054   1.941   1.662  0.1464  0.2261 -0.3803
   13MOL   C139 6163   6.025   1.993   1.534 -0.0486 -0.2498 -0.6972
   13MOL   H140 6164   6.329   2.353   1.459 -1.5351  1.3192 -1.0753
   13MOL   H141 6165   6.312   2.209   1.373  0.0455  0.9419  1.7357
   13MOL   H142 6166   6.292   2.566   1.357  1.9171  1.2035 -1.1848
   13MOL   H143 6167   6.138   2.574   1.254 -0.4714 -0.9542  0.7839
   13MOL   H144 6168   6.289   2.548   1.186 -0.0473 -1.0724 -0.0650
   13MOL   H145 6169   5.849   2.244   1.385 -1.1889 -2.2951  0.7785
   13MOL   H146 6170   5.887   2.088   1.324  1.5189  0.0321 -0.2996
   13MOL   H147 6171   5.846   2.264   1.626 -2.0727 -0.8905 -1.2038
   13MOL   H148 6172   5.898   2.183   1.850  0.2928 -3.1641  1.4472
   13MOL   H149 6173   6.030   1.952   1.865  4.3380  1.7835 -0.0184
   13MOL   H150 6174   6.099   1.843   1.666 -0.5814 -0.0783  0.3426
   13MOL   H151 6175   6.065   1.949   1.444  0.5087 -1.4659  0.1226
   13MOL   C152 6176   6.228   2.314   1.136  0.4843 -0.0563 -0.1733
   13MOL   C153 6177   6.126   2.343   1.013  0.1480  0.3972 -0.0773
   13MOL   C154 6178   6.213   2.389   0.893  0.9114 -0.7523 -0.2354
   13MOL   C155 6179   6.015   2.457   1.036  0.0466 -0.7531  0.0013
   13MOL   O156 6180   5.990   2.547   0.956  0.0739 -0.8714  0.3755
   13MOL   O157 6181   5.935   2.437   1.149 -0.4815  0.2636  0.7950
   13MOL   C158 6182   5.825   2.523   1.174  0.2312  0.0520  0.7181
   13MOL   C159 6183   5.733   2.459   1.279 -0.2228 -0.1319 -0.4591
   13MOL   C160 6184   5.640   2.364   1.240 -0.0898 -0.0437 -0.8754
   13MOL   C161 6185   5.567   2.291   1.333  0.6550 -1.0872  0.8715
   13MOL   C162 6186   5.568   2.332   1.470  0.3336 -0.0397  0.4500
   13MOL   C163 6187   5.653   2.441   1.513 -0.9431  0.7274  0.6029
   13MOL   C164 6188   5.746   2.492   1.414 -0.1196  0.1504  0.0424
   13MOL   H165 6189   6.247   2.207   1.132 -0.2302 -0.1421 -1.3324
   13MOL   H166 6190   6.318   2.361   1.097  0.5303 -0.3765 -0.4551
   13MOL   H167 6191   6.289   2.460   0.927 -0.0062 -0.1997  0.7206
   13MOL   H168 6192   6.151   2.434   0.815 -2.9602 -2.1717  1.8810
   13MOL   H169 6193   6.263   2.305   0.846  0.0191 -2.3874  1.6428
   13MOL   H170 6194   5.874   2.605   1.227 -0.2365  1.2619 -0.6749
   13MOL   H171 6195   5.778   2.560   1.083  1.8175  0.9734  0.2615
   13MOL   H172 6196   5.628   2.347   1.134  0.3687 -0.2473 -0.8937
   13MOL   H173 6197   5.499   2.212   1.304  0.7578 -0.9548  0.2434
   13MOL   H174 6198   5.512   2.265   1.533 -1.7558 -2.7754 -4.0843
   13MOL   H175 6199   5.671   2.461   1.617  1.1248  1.2484  0.1559
   13MOL   H176 6200   5.812   2.571   1.446  1.3272 -1.2720  0.6568
   13MOL   C177 6201   6.042   2.210   0.979 -0.4762 -0.2161  0.1145
   13MOL   C178 6202   5.959   2.166   0.856  0.4319 -0.1809 -0.3599
   13MOL   C179 6203   6.049   2.176   0.728 -0.0765 -0.4411 -0.3581
   13MOL   C180 6204   5.830   2.244   0.831 -1.3749  0.3224 -0.2909
   13MOL   O181 6205   5.784   2.301   0.928  0.1077  0.9036 -0.2818
   13MOL   O182 6206   5.769   2.235   0.706 -0.2828  0.0511  0.5661
   13MOL   C183 6207   5.657   2.318   0.690  0.3276 -0.1597  0.1893
   13MOL   C184 6208   5.608   2.318   0.544 -0.9071 -0.0882 -0.0217
   13MOL   C185 6209   5.619   2.437   0.460  1.4176  0.1913  0.1630
   13MOL   C186 6210   5.567   2.440   0.332 -0.0764  0.0249  0.2641
   13MOL   C187 6211   5.499   2.324   0.282 -0.5857 -1.0055 -0.3765
   13MOL   C188 6212   5.489   2.207   0.356  0.3313 -0.0741 -0.4385
   13MOL   C189 6213   5.544   2.210   0.487 -0.5680  0.3899  0.1619
   13MOL   H190 6214   5.986   2.183   1.069  0.5339 -1.6522  0.3331
   13MOL   H191 6215   6.128   2.142   0.978  0.5349  1.0581 -0.2236
   13MOL   H192 6216   6.151   2.149   0.757  0.0721  0.0599 -0.4109
   13MOL   H193 6217   6.056   2.280   0.699 -1.7401 -0.3189 -0.3273
   13MOL   H194 6218   6.019   2.111   0.646 -1.6547 -2.0297  1.4256
   13MOL   H195 6219   5.574   2.275   0.746 -0.4850  1.0978 -0.0279
   13MOL   H196 6220   5.671   2.421   0.724 -3.0636 -0.3391  2.2598
   13MOL   H197 6221   5.664   2.530   0.492 -1.4836  1.4931  0.5898
   13MOL   H198 6222   5.560   2.528   0.270 -0.0023  0.6289  1.1105
   13MOL   H199 6223   5.461   2.330   0.181  0.1005  0.2057 -0.5683
   13MOL   H200 6224   5.447   2.118   0.311 -2.0173  0.8128 -0.0666
   13MOL   H201 6225   5.533   2.119   0.544 -0.2453  0.7489  0.8043
   13MOL   C202 6226   5.921   2.010   0.865  0.3221 -0.1838  0.0377
   13MOL   C203 6227   5.867   1.932   0.997 -0.0883  0.1698 -0.0712
   13MOL   C204 6228   5.752   2.025   1.056 -0.1750  0.1728  0.0376
   13MOL   C205 6229   5.976   1.908   1.104  0.4080 -0.5749 -0.0081
   13MOL   O206 6230   5.954   1.896   1.227 -0.3797  0.3001  0.2161
   13MOL   O207 6231   6.097   1.907   1.056 -0.8257  0.1363 -0.3610
   13MOL   C208 6232   6.211   1.887   1.145  0.6746  0.0937  0.5184
   13MOL   C209 6233   6.236   1.743   1.183  0.3536 -0.3087 -0.1260
   13MOL   C210 6234   6.206   1.700   1.314 -0.6288 -0.3836  0.0344
   13MOL   C211 6235   6.215   1.563   1.345 -0.3566 -0.4452  0.0049
   13MOL   C212 6236   6.267   1.471   1.246 -0.1490  0.8513 -0.8483
   13MOL   C213 6237   6.312   1.518   1.122 -0.1722  0.2159  0.4712
   13MOL   C214 6238   6.291   1.655   1.090 -0.0733 -0.3276 -0.0836
   13MOL   H215 6239   6.005   1.946   0.837  1.5336  0.9378  1.0202
   13MOL   H216 6240   5.850   1.995   0.784 -0.3831  1.3331  0.3629
   13MOL   H217 6241   5.716   1.974   1.146  2.2098 -0.9272  0.3892
   13MOL   H218 6242   5.656   2.031   1.005  0.2651  1.2104 -0.6780
   13MOL   H219 6243   5.765   2.125   1.097 -1.2030  0.4044 -0.1941
   13MOL   H220 6244   6.288   1.911   1.071  0.2510  0.2375  0.1201
   13MOL   H221 6245   6.220   1.963   1.223  2.3171  0.9814 -0.4864
   13MOL   H222 6246   6.177   1.766   1.394 -2.0194  0.2820 -0.9978
   13MOL   H223 6247   6.172   1.528   1.437 -0.4580  0.0988  0.1678
   13MOL   H224 6248   6.260   1.364   1.258 -0.7423  0.9921  0.1146
   13MOL   H225 6249   6.355   1.449   1.052  0.4147  0.3518  0.6990
   13MOL   H226 6250   6.327   1.695   0.997 -0.1049 -0.2060 -0.0431
   13MOL   C227 6251   5.793   1.799   0.965  0.0498 -0.2991  0.5280
   13MOL   C228 6252   5.859   1.659   0.928 -0.1841  0.2642 -0.4037
   13MOL   C229 6253   5.921   1.605   1.062  0.0886 -0.1001  0.5461
   13MOL   C230 6254   5.973   1.666   0.815  0.3618  0.6765  0.5100
   13MOL   O231 6255   6.074   1.591   0.821  0.0371 -0.0379 -0.0457
   13MOL   O232 6256   5.951   1.746   0.715  0.2893  0.0363 -0.1577
   13MOL   C233 6257   6.036   1.739   0.597 -0.1481  0.0123  0.5088
   13MOL   C234 6258   5.990   1.634   0.496  0.6095 -0.1517 -0.1759
   13MOL   C235 6259   6.021   1.497   0.504 -0.2783 -0.0438  0.2923
   13MOL   C236 6260   5.973   1.401   0.415 -0.2444 -0.3464  0.2556
   13MOL   C237 6261   5.883   1.437   0.316  0.0352  0.2128  0.4421
   13MOL   C238 6262   5.845   1.572   0.309  0.8081 -0.1236  0.2543
   13MOL   C239 6263   5.898   1.667   0.395  0.0698 -0.3163  0.5874
   13MOL   H240 6264   5.738   1.815   0.872  1.0394 -1.0938 -0.2031
   13MOL   H241 6265   5.719   1.785   1.044  0.3744  0.6888  1.0104
   13MOL   H242 6266   5.919   1.496   1.055  0.8756 -0.2055  1.7596
   13MOL   H243 6267   5.865   1.622   1.154 -0.8298 -1.0578  0.1830
   13MOL   H244 6268   6.016   1.654   1.084 -0.7428  1.7372  0.0613
   13MOL   H245 6269   6.032   1.834   0.544  0.2137 -0.7908 -1.0057
   13MOL   H246 6270   6.138   1.716   0.626 -0.2126 -2.2981 -0.9640
   13MOL   H247 6271   6.098   1.463   0.572 -1.0352  0.3757  1.3774
   13MOL   H248 6272   6.008   1.299   0.422 -0.2993 -0.3521  0.4407
   13MOL   H249 6273   5.846   1.367   0.243  1.2685 -0.6711  0.6550
   13MOL   H250 6274   5.766   1.602   0.242  1.0594 -0.0335 -0.0046
   13MOL   H251 6275   5.859   1.767   0.387 -3.1050 -1.3501  2.0999
   13MOL   C252 6276   5.749   1.549   0.894 -0.2090  0.3019  0.5135
   13MOL   C253 6277   5.631   1.574   0.796 -0.9432  0.1862  0.3246
   13MOL   C254 6278   5.673   1.636   0.659 -0.4545  0.5423 -0.0524
   13MOL   C255 6279   5.522   1.663   0.858  0.4794  1.0885  0.3835
   13MOL   O256 6280   5.495   1.651   0.975  0.0644 -0.1114  0.3200
   13MOL   O257 6281   5.450   1.743   0.777  0.6612 -0.0324  0.0375
   13MOL   C258 6282   5.329   1.802   0.828 -0.4663 -0.7312 -0.1601
   13MOL   C259 6283   5.339   1.945   0.871 -0.0588 -0.7944  0.3242
   13MOL   C260 6284   5.324   1.993   1.004 -0.5182 -0.2509  0.3054
   13MOL   C261 6285   5.328   2.132   1.039  1.3555  0.3890 -0.1371
   13MOL   C262 6286   5.345   2.227   0.938  0.6027  0.0310 -0.1124
   13MOL   C263 6287   5.360   2.184   0.805  0.5100  0.4406  0.2958
   13MOL   C264 6288   5.350   2.047   0.769  0.3056 -0.2548  0.1331
   13MOL   H265 6289   5.720   1.504   0.989  0.4313 -0.8941  0.1529
   13MOL   H266 6290   5.798   1.455   0.867 -1.4202 -0.4902  1.0098
   13MOL   H267 6291   5.712   1.736   0.677  3.1755 -1.2156  2.2460
   13MOL   H268 6292   5.591   1.641   0.587  0.2187 -0.1164 -0.8759
   13MOL   H269 6293   5.746   1.570   0.613 -2.0005 -1.1869 -0.1098
   13MOL   H270 6294   5.252   1.798   0.751 -0.0141  1.1886 -0.7216
   13MOL   H271 6295   5.297   1.743   0.914  0.7974  0.7311  1.3433
   13MOL   H272 6296   5.320   1.923   1.086  2.1604  0.0287  0.7017
   13MOL   H273 6297   5.321   2.162   1.143  0.0369  1.1339 -0.4281
   13MOL   H274 6298   5.342   2.331   0.968 -3.2994  0.0095 -0.1624
   13MOL   H275 6299   5.366   2.259   0.727  0.8042 -1.3473 -1.4269
   13MOL   H276 6300   5.360   2.020   0.665 -1.4857 -1.9896  0.3952
   13MOL   C277 6301   5.551   1.441   0.751 -0.1358  0.0322 -0.1670
   13MOL   C278 6302   5.520   1.318   0.847  0.0847 -0.0064  0.0671
   13MOL   C279 6303   5.455   1.358   0.985 -0.7077 -0.4787 -0.3265
   13MOL   C280 6304   5.654   1.235   0.879 -0.5776 -0.2868 -0.2660
   13MOL   O281 6305   5.696   1.217   0.992 -0.0277  0.6295  0.0713
   13MOL   O282 6306   5.714   1.193   0.768  0.0716 -0.0871 -0.6577
   13MOL   C283 6307   5.829   1.114   0.769  0.3134 -0.2363 -0.5901
   13MOL   C284 6308   5.867   1.048   0.644  0.1975  0.8170 -0.4128
   13MOL   C285 6309   5.943   0.928   0.653  0.4931 -0.3608 -0.6765
   13MOL   C286 6310   5.984   0.870   0.522 -0.3482 -0.7472  0.2403
   13MOL   C287 6311   5.940   0.928   0.400 -0.0492 -0.0424 -0.3453
   13MOL   C288 6312   5.868   1.047   0.398  0.1922 -0.5622  0.2191
   13MOL   C289 6313   5.827   1.104   0.519 -0.6113 -0.1477 -0.1469
   13MOL   H290 6314   5.609   1.403   0.667  0.4849  2.8944 -1.1089
   13MOL   H291 6315   5.455   1.465   0.705 -0.9886 -1.5315  0.7818
   13MOL   H292 6316   5.375   1.432   0.979 -0.3249  0.0003  0.3967
   13MOL   H293 6317   5.522   1.399   1.060 -1.7132 -0.7649  0.7509
   13MOL   H294 6318   5.428   1.265   1.036 -0.2121 -2.5293 -3.6809
   13MOL   H295 6319   5.908   1.176   0.812  1.2272 -0.5957 -1.7184
   13MOL   H296 6320   5.802   1.033   0.838  0.2336  1.3663  1.3154
   13MOL   H297 6321   5.954   0.879   0.748  0.8083  1.5267  0.2811
   13MOL   H298 6322   6.047   0.783   0.521 -0.7186 -1.0746  2.6532
   13MOL   H299 6323   5.960   0.880   0.305  0.8883 -1.5665  0.6033
   13MOL   H300 6324   5.835   1.083   0.301 -0.0204 -0.1043  0.4584
   13MOL   H301 6325   5.775   1.198   0.527 -0.5038 -0.1583  0.7183
   13MOL   C302 6326   5.424   1.226   0.756 -0.1338 -0.0685  0.0484
   13MOL   C303 6327   5.363   1.081   0.798 -0.1402  0.8026 -0.5664
   13MOL   C304 6328   5.240   1.054   0.704  0.3504 -0.0956 -0.4910
   13MOL   C305 6329   5.302   1.070   0.943  0.4207 -0.1348 -0.7303
   13MOL   O306 6330   5.191   1.111   0.969  0.4350 -0.3013 -0.1259
   13MOL   O307 6331   5.389   1.034   1.039 -0.2872 -0.2936 -0.1343
   13MOL   C308 6332   5.360   1.031   1.173 -0.1210  0.6479  0.3393
   13MOL   C309 6333   5.432   0.921   1.253  0.8630  0.2140  0.0770
   13MOL   C310 6334   5.573   0.894   1.240 -0.0403 -0.2643  0.0144
   13MOL   C311 6335   5.638   0.805   1.327  0.3590 -0.5782 -0.2087
   13MOL   C312 6336   5.576   0.757   1.436  0.7374 -0.3340 -0.8511
   13MOL   C313 6337   5.437   0.787   1.463 -0.4731 -0.2844  0.3000
   13MOL   C314 6338   5.372   0.874   1.370 -0.6860  0.3390 -0.2856
   13MOL   H315 6339   5.469   1.204   0.660  0.4285 -1.3969  0.5984
   13MOL   H316 6340   5.339   1.293   0.742 -0.6084 -0.5432  0.5903
   13MOL   H317 6341   5.153   1.120   0.703 -0.0673 -0.6522 -0.7411
   13MOL   H318 6342   5.192   0.960   0.728  0.0752  0.6345  1.9847
   13MOL   H319 6343   5.271   1.051   0.600  2.2324  1.2951  0.0093
   13MOL   H320 6344   5.385   1.130   1.212 -0.5512  0.4167  1.2001
   13MOL   H321 6345   5.252   1.013   1.176 -0.0029 -0.1826 -0.1051
   13MOL   H322 6346   5.622   0.936   1.154 -0.9723 -1.7838 -1.2945
   13MOL   H323 6347   5.738   0.769   1.305  0.4213 -0.1157 -0.6959
   13MOL   H324 6348   5.622   0.684   1.500 -0.7649 -0.3978  0.1921
   13MOL   H325 6349   5.390   0.741   1.548  1.2290  0.3918  1.6350
   13MOL   H326 6350   5.266   0.892   1.382 -0.5138  0.2016  1.7566
   13MOL   C327 6351   5.470   0.970   0.776  0.7969  0.0888 -1.2601
   13MOL   C328 6352   5.447   0.814   0.755 -0.5915  0.7549  0.0402
   13MOL   C329 6353   5.592   0.752   0.751 -0.5471  0.1456 -0.7635
   13MOL   C330 6354   5.388   0.791   0.615  0.3935 -0.5205  0.5908
   13MOL   O331 6355   5.283   0.731   0.596 -0.8526 -0.3286 -0.2003
   13MOL   O332 6356   5.467   0.846   0.517  0.5745  0.0754 -0.1785
   13MOL   C333 6357   5.428   0.822   0.381 -0.4271 -0.0308 -0.3541
   13MOL   C334 6358   5.506   0.908   0.284  0.1921  0.8412  0.6867
   13MOL   C335 6359   5.616   0.866   0.217 -0.6009  0.0720  0.2419
   13MOL   C336 6360   5.687   0.956   0.136  0.7193 -0.2938  0.0256
   13MOL   C337 6361   5.633   1.088   0.108 -0.8215 -0.2140  0.4788
   13MOL   C338 6362   5.525   1.130   0.187  0.3423  0.3305  0.7004
   13MOL   C339 6363   5.465   1.042   0.280 -0.3382  0.0075  0.3345
   13MOL   H340 6364   5.536   0.968   0.863  1.1310 -0.0414 -1.5161
   13MOL   H341 6365   5.535   1.001   0.695  0.3224  1.3309 -1.1677
   13MOL   H342 6366   5.654   0.807   0.680  0.6278  0.0092  0.1383
   13MOL   H343 6367   5.590   0.648   0.718 -0.9523  0.4308 -1.6306
   13MOL   H344 6368   5.635   0.740   0.851 -0.6255 -1.8365 -0.9503
   13MOL   H345 6369   5.454   0.718   0.361 -0.3278 -0.2570  0.8855
   13MOL   H346 6370   5.321   0.843   0.384 -0.3885  0.0318  1.0742
   13MOL   H347 6371   5.655   0.769   0.244  0.2605 -0.2209 -1.9928
   13MOL   H348 6372   5.772   0.915   0.083  0.6598  1.0650 -1.1530
   13MOL   H349 6373   5.692   1.151   0.043  1.3510  0.0757  2.6521
   13MOL   H350 6374   5.490   1.229   0.166 -0.6492 -0.3957 -1.1968
   13MOL   H351 6375   5.380   1.070   0.342  0.1305 -0.7155  1.3039
   13MOL   C352 6376   5.371   0.750   0.877 -0.5960 -0.4526  0.4299
   13MOL   C353 6377   5.328   0.592   0.885  0.0084  0.5884  0.3099
   13MOL   C354 6378   5.429   0.497   0.807 -0.4671 -0.5200  0.2271
   13MOL   C355 6379   5.179   0.571   0.836  0.0454  0.1638  0.9233
   13MOL   O356 6380   5.144   0.477   0.763 -0.1042 -0.0178 -0.7666
   13MOL   O357 6381   5.100   0.665   0.885 -0.5287 -0.2117 -0.5540
   13MOL   C358 6382   4.959   0.667   0.849 -0.0346 -1.1051 -0.3553
   13MOL   C359 6383   4.881   0.772   0.932 -0.7777  0.5185  0.1800
   13MOL   C360 6384   4.940   0.833   1.047  0.1319  0.0126 -0.2099
   13MOL   C361 6385   4.857   0.925   1.111  0.7738 -0.8221 -0.3082
   13MOL   C362 6386   4.728   0.947   1.077  0.3135  0.4350  0.4455
   13MOL   C363 6387   4.670   0.873   0.974  0.5966  0.9089  0.1990
   13MOL   C364 6388   4.744   0.780   0.898 -0.1755  1.6922  0.0578
   13MOL   H365 6389   5.282   0.813   0.884 -0.3906 -0.0667 -0.3475
   13MOL   H366 6390   5.436   0.778   0.960 -0.4402 -0.2509  0.2405
   13MOL   H367 6391   5.399   0.392   0.803 -0.6878 -0.4091 -1.7129
   13MOL   H368 6392   5.527   0.510   0.853 -0.4000 -1.2714  0.2966
   13MOL   H369 6393   5.431   0.531   0.703  1.8827 -0.7616  0.1685
   13MOL   H370 6394   4.944   0.694   0.744  0.4379 -0.8740 -0.3637
   13MOL   H371 6395   4.916   0.568   0.865  0.5924 -1.2145  0.7077
   13MOL   H372 6396   5.040   0.810   1.079  0.4925  1.1967 -0.4563
   13MOL   H373 6397   4.901   0.972   1.198 -0.9503  0.4286 -0.0912
   13MOL   H374 6398   4.678   1.026   1.131  1.8875  0.7887  1.4183
   13MOL   H375 6399   4.565   0.888   0.953  0.1039 -2.2104  0.0960
   13MOL   H376 6400   4.704   0.714   0.822 -1.0587  1.2569  0.8897
   13MOL   C377 6401   5.340   0.570   1.041  0.2645 -0.3885  0.1427
   13MOL   C378 6402   5.284   0.443   1.113 -0.0392 -0.0541  0.0658
   13MOL   C379 6403   5.285   0.313   1.032  0.4430 -0.4998 -0.4141
   13MOL   C380 6404   5.136   0.468   1.164  0.8183 -0.5809  0.0977
   13MOL   O381 6405   5.042   0.401   1.121 -0.0127  0.0241 -0.0224
   13MOL   O382 6406   5.123   0.559   1.265  0.0095  0.0977  0.4474
   13MOL   C383 6407   4.987   0.578   1.318 -0.7000 -0.5841  0.2143
   13MOL   C384 6408   4.984   0.613   1.465 -0.4180 -0.4740 -0.5802
   13MOL   C385 6409   4.919   0.724   1.519  0.6348 -0.0430  0.3340
   13MOL   C386 6410   4.933   0.763   1.655  0.8201 -0.1129 -0.3908
   13MOL   C387 6411   5.020   0.682   1.733 -0.8583  0.0206  0.3294
   13MOL   C388 6412   5.107   0.585   1.679  0.1520  0.5367  0.0055
   13MOL   C389 6413   5.081   0.551   1.546  0.8725 -0.1367  0.0382
   13MOL   H390 6414   5.284   0.655   1.080  0.1964  0.3632 -1.5338
   13MOL   H391 6415   5.439   0.596   1.078  0.1649 -0.0552  0.1785
   13MOL   H392 6416   5.383   0.277   0.999  1.4565  0.6905  1.2394
   13MOL   H393 6417   5.229   0.316   0.938  1.7691 -1.9097 -1.2974
   13MOL   H394 6418   5.242   0.236   1.096 -0.6431  0.7979  0.4324
   13MOL   H395 6419   4.934   0.650   1.255  1.1244  0.9277  0.3705
   13MOL   H396 6420   4.932   0.484   1.317 -1.7417 -0.0104  2.3471
   13MOL   H397 6421   4.853   0.784   1.459 -0.2107 -1.8278 -0.5253
   13MOL   H398 6422   4.877   0.851   1.683  0.1166 -0.9806  0.9585
   13MOL   H399 6423   5.029   0.702   1.839  1.0351 -0.2018  0.2242
   13MOL   H400 6424   5.184   0.527   1.727  0.1767  0.3814 -0.2196
   13MOL   H401 6425   5.151   0.492   1.488 -1.2171 -0.7649 -1.9285
   13MOL   C402 6426   5.369   0.428   1.248  0.5223  0.0917  0.1045
   13MOL   C403 6427   5.506   0.347   1.255 -1.2006  0.9980 -0.8994
   13MOL   C404 6428   5.598   0.392   1.138  0.9538 -0.1641  0.4593
   13MOL   C405 6429   5.476   0.191   1.249  0.2851  1.1845  0.0934
   13MOL   O406 6430   5.521   0.121   1.158  0.4609  0.3924  0.5841
   13MOL   O407 6431   5.398   0.148   1.351  0.1615  0.0115  0.3849
   13MOL   C408 6432   5.367   0.010   1.371 -0.4840 -0.6619  0.1062
   13MOL   C409 6433   5.216   7.991   1.356  0.2352  0.2313  0.5001
   13MOL   C410 6434   5.173   7.861   1.393  0.0691 -0.7178  0.0870
   13MOL   C411 6435   5.037   7.831   1.413  0.6016 -1.0016 -0.1655
   13MOL   C412 6436   4.942   7.929   1.377  0.4398 -0.1966  0.6080
   13MOL   C413 6437   4.986   0.048   1.327 -0.3620  0.1511  0.2804
   13MOL   C414 6438   5.121   0.077   1.321 -0.6514 -0.4413 -0.3670
   13MOL   H415 6439   5.305   0.380   1.322  1.4254 -0.8615  0.2730
   13MOL   H416 6440   5.381   0.526   1.294  0.6455  0.6027 -0.9973
   13MOL   H417 6441   5.554   0.390   1.038 -0.4048 -0.0257  1.0429
   13MOL   H418 6442   5.687   0.332   1.120 -0.1565 -1.5529 -0.5272
   13MOL   H419 6443   5.632   0.494   1.156 -0.9013  0.4129  0.7455
   13MOL   H420 6444   5.424   7.958   1.299 -0.7773 -0.8764  0.0527
   13MOL   H421 6445   5.396   7.996   1.474  3.5664  2.2141 -0.3062
   13MOL   H422 6446   5.250   7.790   1.419  1.5089  1.2712  1.3592
   13MOL   H423 6447   5.000   7.738   1.454 -0.6730 -0.3181  0.2680
   13MOL   H424 6448   4.836   7.911   1.383  0.1114  1.3543 -0.1565
   13MOL   H425 6449   4.905   0.110   1.292 -1.0530 -1.1500 -0.4510
   13MOL   H426 6450   5.143   0.180   1.299  2.2062 -0.4315  2.1948
   13MOL   C427 6451   5.571   0.379   1.387 -0.2389  0.4062 -0.1000
   13MOL   C428 6452   5.721   0.339   1.432  0.0786 -0.2490 -0.1682
   13MOL   C429 6453   5.759   0.191   1.375  0.7811  0.3155 -0.0548
   13MOL   C430 6454   5.712   0.313   1.582 -0.0172  0.5270 -0.3456
   13MOL   O431 6455   5.735   0.208   1.643 -0.0178 -0.2635 -0.0459
   13MOL   O432 6456   5.656   0.422   1.650  0.2803 -0.2441 -0.1001
   13MOL   C433 6457   5.632   0.414   1.786  0.1157  0.1057  0.6288
   13MOL   C434 6458   5.610   0.548   1.848  0.2635 -0.0558  0.8922
   13MOL   C435 6459   5.488   0.616   1.824 -0.5937 -0.4847  0.4258
   13MOL   C436 6460   5.467   0.737   1.892 -0.4110  0.4679  0.6258
   13MOL   C437 6461   5.560   0.791   1.980 -0.3221  0.1376  0.2523
   13MOL   C438 6462   5.681   0.725   1.991 -0.0191 -0.3017 -0.2154
   13MOL   C439 6463   5.707   0.605   1.928  0.1285  0.9055  0.0143
   13MOL   H440 6464   5.501   0.360   1.469  3.0105  0.3240  2.7742
   13MOL   H441 6465   5.556   0.487   1.393 -0.3292  0.5616 -2.6579
   13MOL   H442 6466   5.681   0.117   1.390  0.4746  0.5102 -0.6811
   13MOL   H443 6467   5.852   0.143   1.407 -0.5536 -1.3130  1.4715
   13MOL   H444 6468   5.772   0.196   1.267 -2.0061  1.7160 -0.3533
   13MOL   H445 6469   5.546   0.350   1.803 -1.8249  3.0816  2.3417
   13MOL   H446 6470   5.715   0.367   1.839 -1.1888 -1.5397  1.2292
   13MOL   H447 6471   5.416   0.574   1.755 -0.2431  1.4293 -1.1243
   13MOL   H448 6472   5.381   0.799   1.871  1.4045  3.4173  1.4847
   13MOL   H449 6473   5.549   0.883   2.036  0.2233  0.3052  0.0934
   13MOL   H450 6474   5.757   0.777   2.046 -2.6221 -0.4113  3.6520
   13MOL   H451 6475   5.801   0.554   1.947 -0.0155  0.6115 -0.0654
   13MOL   C452 6476   5.819   0.448   1.381 -0.1890 -0.0064  0.6745
   13MOL   C453 6477   5.956   0.480   1.448  0.8699 -0.0038 -0.1967
   13MOL   C454 6478   6.043   0.349   1.482  0.2255 -0.5137 -0.6227
   13MOL   C455 6479   5.932   0.566   1.579  0.8392 -0.4926  0.3960
   13MOL   O456 6480   5.941   0.514   1.689 -0.0389  0.3364 -0.1864
   13MOL   O457 6481   5.883   0.689   1.554 -0.7031  0.5214 -0.6616
   13MOL   C458 6482   5.837   0.771   1.660  0.1899  0.8080 -0.6670
   13MOL   C459 6483   5.842   0.921   1.627  0.0394  0.0673  0.5907
   13MOL   C460 6484   5.729   0.997   1.670  0.7071 -0.1647  0.2592
   13MOL   C461 6485   5.715   1.134   1.629 -0.0268  0.4103 -0.5608
   13MOL   C462 6486   5.823   1.197   1.568  0.7694  0.6607 -0.1919
   13MOL   C463 6487   5.940   1.121   1.533 -0.3189 -0.4811 -0.2869
   13MOL   C464 6488   5.955   0.987   1.568 -0.5812  0.2075 -0.0373
   13MOL   H465 6489   5.767   0.543   1.375  1.2675  0.8267  1.0241
   13MOL   H466 6490   5.827   0.427   1.274 -1.2714  2.1458  0.1556
   13MOL   H467 6491   6.055   0.284   1.395  1.8647 -0.6825 -0.2908
   13MOL   H468 6492   6.010   0.284   1.562 -0.3928  0.3302 -0.1898
   13MOL   H469 6493   6.143   0.385   1.506 -1.0189  2.7816 -0.1057
   13MOL   H470 6494   5.740   0.744   1.700  0.2788 -1.4587 -1.8571
   13MOL   H471 6495   5.892   0.768   1.754 -1.7467 -1.7294  0.4618
   13MOL   H472 6496   5.644   0.950   1.717  1.0867 -1.9741 -0.7826
   13MOL   H473 6497   5.627   1.192   1.657 -0.2839 -0.5290  0.6286
   13MOL   H474 6498   5.812   1.303   1.551 -1.3931  0.4207 -0.3985
   13MOL   H475 6499   6.022   1.179   1.492 -0.1578 -0.4658  0.0514
   13MOL   H476 6500   6.037   0.923   1.542 -0.5795 -0.2914  1.1376
   13MOL   C477 6501   6.028   0.579   1.351  0.5535  0.1002 -0.0309
   13MOL   C478 6502   6.077   0.509   1.220 -0.9851 -0.2064 -0.1078
   13MOL   C479 6503   6.230   0.521   1.195 -0.6247 -0.2986 -0.3771
   13MOL   C480 6504   5.998   0.557   1.091 -0.2018  0.0701 -1.0538
   13MOL   O481 6505   5.926   0.664   1.092 -0.7428  0.2160  0.3397
   13MOL   O482 6506   6.006   0.465   0.997 -0.1137 -1.0063  0.1749
   13MOL   C483 6507   5.930   0.495   0.880 -0.0668  0.5561  0.1050
   13MOL   C484 6508   5.853   0.380   0.829  0.5966  0.5067  0.1204
   13MOL   C485 6509   5.862   0.256   0.896  0.5395 -0.1868  0.3793
   13MOL   C486 6510   5.792   0.140   0.851 -0.0315 -0.2499 -0.1636
   13MOL   C487 6511   5.703   0.155   0.736 -0.2700  0.6150 -1.0491
   13MOL   C488 6512   5.702   0.278   0.663 -0.0861 -0.0472 -0.1535
   13MOL   C489 6513   5.768   0.395   0.716 -0.7444 -0.3483  0.2301
   13MOL   H490 6514   6.111   0.627   1.402 -1.0765 -0.2876  3.1275
   13MOL   H491 6515   5.966   0.667   1.333 -0.5536 -0.5361  0.5836
   13MOL   H492 6516   6.294   0.497   1.280 -1.7824  1.7934  1.1112
   13MOL   H493 6517   6.245   0.625   1.168  2.1174 -0.0823  1.6979
   13MOL   H494 6518   6.268   0.452   1.120 -0.7840 -0.0942 -0.6445
   13MOL   H495 6519   5.847   0.565   0.891 -0.2379  0.7958 -2.5038
   13MOL   H496 6520   6.003   0.536   0.810  1.0500  1.4930  1.7589
   13MOL   H497 6521   5.920   0.252   0.987  1.8110  0.0656 -0.4186
   13MOL   H498 6522   5.784   0.052   0.913  1.6524  0.1322  0.6229
   13MOL   H499 6523   5.648   0.066   0.711 -1.2072  1.1891 -1.0648
   13MOL   H500 6524   5.642   0.289   0.574  0.0534  1.5590 -0.0702
   13MOL   H501 6525   5.754   0.488   0.664  0.3835 -0.0066  0.5170
   13MOL   H502 6526   6.052   0.403   1.226  1.5484 -0.8482 -0.2318
   14MOL     C1 6527   1.013   2.632   3.036  0.1785  0.2074  0.1602
   14MOL     C2 6528   1.164   2.634   3.006  0.1455  0.7522 -0.1164
   14MOL     C3 6529   1.204   2.765   3.083  0.3876  0.6247 -1.1360
   14MOL     C4 6530   1.189   2.660   2.854  0.3716  0.2429  0.6759
   14MOL     O5 6531   1.101   2.661   2.772 -0.1151 -0.3455  0.2577
   14MOL     O6 6532   1.324   2.663   2.822 -0.0504  0.2654 -0.3242
   14MOL     C7 6533   1.377   2.653   2.694  0.0196  0.9534  0.5110
   14MOL     C8 6534   1.480   2.754   2.658  0.1038 -0.3305 -0.3654
   14MOL     C9 6535   1.600   2.718   2.596 -0.4717 -0.3967  0.4237
   14MOL    C10 6536   1.702   2.813   2.570 -0.2583  0.0141 -0.4784
   14MOL    C11 6537   1.684   2.948   2.604 -0.3488  0.1581 -0.3002
   14MOL    C12 6538   1.563   2.982   2.663 -0.6222  0.2110 -0.5402
   14MOL    C13 6539   1.460   2.893   2.691  0.3967 -0.0814  1.2344
   14MOL    H14 6540   0.993   2.640   3.143 -0.8407  0.1051 -0.0184
   14MOL    H15 6541   0.976   2.725   2.991  0.3106  0.9439  1.5503
   14MOL    H16 6542   1.156   2.846   3.030 -1.0794 -0.2539 -1.1864
   14MOL    H17 6543   1.310   2.785   3.066  0.2314  0.9117 -1.7524
   14MOL    H18 6544   1.162   2.770   3.183  1.5671 -2.8256 -0.3621
   14MOL    H19 6545   1.425   2.555   2.695 -2.8420 -0.5165  0.6641
   14MOL    H20 6546   1.304   2.629   2.616  0.6311  1.4858 -0.2322
   14MOL    H21 6547   1.618   2.616   2.565  0.3534  0.8772 -3.6527
   14MOL    H22 6548   1.797   2.789   2.525  0.1771 -0.5824  0.7473
   14MOL    H23 6549   1.758   3.026   2.607 -2.2793  2.0263  0.5677
   14MOL    H24 6550   1.539   3.083   2.691 -0.9761  0.0360 -0.2104
   14MOL    H25 6551   1.366   2.923   2.736  0.7668  0.9642  1.3167
   14MOL    H26 6552   0.960   2.545   2.998  0.9080  0.5956 -1.8163
   14MOL    C27 6553   1.249   2.513   3.066 -0.0589  0.4513  0.5556
   14MOL    C28 6554   1.225   2.366   3.029 -0.0172  0.2625  0.4100
   14MOL    C29 6555   1.211   2.351   2.878 -0.3671  0.6604  0.6126
   14MOL    C30 6556   1.106   2.308   3.100 -0.1170 -0.0588  0.0685
   14MOL    O31 6557   1.037   2.379   3.174  0.2317 -0.0595  0.2486
   14MOL    O32 6558   1.087   2.178   3.084 -0.1663 -0.0893 -0.2343
   14MOL    C33 6559   1.002   2.100   3.159 -0.8200 -0.0028  1.1741
   14MOL    C34 6560   1.029   1.947   3.138  0.5055 -0.2401  0.0326
   14MOL    C35 6561   1.125   1.895   3.040 -0.0274 -0.1954  0.3263
   14MOL    C36 6562   1.146   1.758   3.028 -0.1956  0.2273 -0.5107
   14MOL    C37 6563   1.071   1.672   3.112  0.0682  0.0124  0.0376
   14MOL    C38 6564   0.980   1.727   3.207 -0.0331  0.1764 -0.2964
   14MOL    C39 6565   0.953   1.862   3.219 -0.3286 -0.8470  0.3500
   14MOL    H40 6566   1.232   2.523   3.174  0.7027 -1.3661  0.8696
   14MOL    H41 6567   1.355   2.535   3.056  0.1341 -0.3400  0.8372
   14MOL    H42 6568   1.292   2.393   2.819 -1.3231  0.5356 -0.8088
   14MOL    H43 6569   1.120   2.391   2.832 -0.0148  1.0552  0.2606
   14MOL    H44 6570   1.205   2.244   2.863  2.1819  0.6151 -0.2524
   14MOL    H45 6571   1.004   2.125   3.265 -0.9649 -1.8151  1.6196
   14MOL    H46 6572   0.901   2.112   3.119  0.6797 -2.2241 -3.7036
   14MOL    H47 6573   1.171   1.968   2.975 -0.0249 -0.7684 -0.3130
   14MOL    H48 6574   1.210   1.724   2.947  0.5070  1.7298 -0.6073
   14MOL    H49 6575   1.077   1.565   3.116  0.3486  0.0107 -0.3984
   14MOL    H50 6576   0.929   1.649   3.262  0.7810 -0.6033 -0.6374
   14MOL    H51 6577   0.888   1.895   3.298  0.7381 -0.8878  1.2564
   14MOL    C52 6578   1.349   2.275   3.068  0.1018  0.8307 -0.4797
   14MOL    C53 6579   1.403   2.253   3.215  0.3553 -0.2302  0.1779
   14MOL    C54 6580   1.300   2.192   3.317 -0.2775  0.1047  0.8852
   14MOL    C55 6581   1.454   2.388   3.276 -0.2439  0.1927  1.1101
   14MOL    O56 6582   1.412   2.434   3.378  0.2594 -0.3810 -0.4085
   14MOL    O57 6583   1.545   2.444   3.194  0.2118 -0.0050  0.0291
   14MOL    C58 6584   1.613   2.553   3.241 -0.1125 -0.1774 -0.0174
   14MOL    C59 6585   1.625   2.657   3.131  0.1266 -0.0401  0.2452
   14MOL    C60 6586   1.569   2.782   3.149  0.3640 -0.0239  0.7277
   14MOL    C61 6587   1.599   2.889   3.067 -0.2760  0.0676  0.5598
   14MOL    C62 6588   1.682   2.874   2.956 -0.7857  0.7036 -0.3960
   14MOL    C63 6589   1.733   2.742   2.937  0.5133  0.1405 -0.1410
   14MOL    C64 6590   1.711   2.633   3.022  0.3154  0.5280  0.2953
   14MOL    H65 6591   1.436   2.319   3.020 -0.0648  0.7226 -0.8822
   14MOL    H66 6592   1.329   2.177   3.025 -1.9542  0.3354  1.5393
   14MOL    H67 6593   1.270   2.096   3.275  0.1369  0.7525 -0.9326
   14MOL    H68 6594   1.212   2.253   3.339 -2.0221 -1.7607 -0.6358
   14MOL    H69 6595   1.333   2.166   3.417 -0.7654  0.6891  1.1998
   14MOL    H70 6596   1.559   2.599   3.323  0.0082  2.2911 -1.2713
   14MOL    H71 6597   1.709   2.522   3.284 -0.0219  1.9152  1.3417
   14MOL    H72 6598   1.510   2.805   3.237 -0.5637  0.2397  0.0395
   14MOL    H73 6599   1.571   2.989   3.098  2.7697  1.4698 -1.0199
   14MOL    H74 6600   1.707   2.947   2.881 -1.1159  1.9877  0.7220
   14MOL    H75 6601   1.786   2.730   2.843 -1.1132 -1.4005 -0.8794
   14MOL    H76 6602   1.754   2.534   3.012 -1.1789 -0.4984  3.3774
   14MOL    C77 6603   1.514   2.145   3.197  0.1514 -0.3849 -0.1132
   14MOL    C78 6604   1.640   2.112   3.282 -0.2922 -0.1495  0.0844
   14MOL    C79 6605   1.606   2.127   3.431 -0.2757 -0.2011  0.8665
   14MOL    C80 6606   1.760   2.209   3.248  0.3637 -0.7172  0.1710
   14MOL    O81 6607   1.784   2.244   3.133  0.2416 -0.2375  0.3557
   14MOL    O82 6608   1.840   2.247   3.351 -0.0122 -0.0103 -0.0611
   14MOL    C83 6609   1.935   2.354   3.332 -0.2016 -0.1084 -0.0960
   14MOL    C84 6610   2.081   2.305   3.354  0.2528  0.5790  0.5967
   14MOL    C85 6611   2.136   2.203   3.272  0.8039 -0.4580 -0.0422
   14MOL    C86 6612   2.265   2.158   3.291 -0.4612  0.2296 -0.3841
   14MOL    C87 6613   2.347   2.221   3.389  0.8881 -0.4954 -0.0177
   14MOL    C88 6614   2.291   2.324   3.470  0.2648 -0.5184 -0.6822
   14MOL    C89 6615   2.160   2.367   3.449 -0.0646 -0.5850  0.2327
   14MOL    H90 6616   1.535   2.131   3.091 -0.6400 -1.0414 -0.1886
   14MOL    H91 6617   1.454   2.054   3.205 -0.8312  0.2355 -0.2997
   14MOL    H92 6618   1.581   2.229   3.462  0.9878 -0.2248  2.0036
   14MOL    H93 6619   1.695   2.111   3.491 -0.4996  2.9133  2.1613
   14MOL    H94 6620   1.525   2.061   3.462 -2.5368  1.4306 -1.2945
   14MOL    H95 6621   1.939   2.389   3.229 -0.2132  2.5748  0.7734
   14MOL    H96 6622   1.913   2.432   3.405 -1.0598 -1.6574  1.3344
   14MOL    H97 6623   2.075   2.148   3.202 -2.0554  0.3519  1.7329
   14MOL    H98 6624   2.309   2.080   3.230  1.7496  2.8194 -2.1997
   14MOL    H99 6625   2.446   2.181   3.398  0.8453 -0.5731  0.0980
   14MOL   H100 6626   2.363   2.372   3.534 -0.2318 -0.7437  0.0418
   14MOL   H101 6627   2.132   2.451   3.511  2.6710 -0.5831  1.5494
   14MOL   C102 6628   1.689   1.963   3.271  0.4961  0.4110  0.2235
   14MOL   C103 6629   1.710   1.872   3.147  0.1080 -0.6496  0.1768
   14MOL   C104 6630   1.571   1.811   3.114 -0.4472 -0.1319 -0.6243
   14MOL   C105 6631   1.798   1.754   3.181  0.3955  0.6515  0.4517
   14MOL   O106 6632   1.743   1.650   3.216  0.0153  0.6671 -0.2837
   14MOL   O107 6633   1.927   1.783   3.192 -0.1757  0.4558  0.7382
   14MOL   C108 6634   2.017   1.692   3.262  0.1487  0.4348 -0.1210
   14MOL   C109 6635   2.156   1.740   3.240  0.1552  0.1388  0.4301
   14MOL   C110 6636   2.220   1.800   3.350 -0.1338  0.2903  0.0376
   14MOL   C111 6637   2.350   1.843   3.338 -0.3866  0.0270  0.6680
   14MOL   C112 6638   2.420   1.832   3.210 -0.1871 -0.1437  0.3494
   14MOL   C113 6639   2.355   1.767   3.106 -0.1424 -0.8733 -0.3954
   14MOL   C114 6640   2.222   1.719   3.120  0.1167 -0.2340  0.0128
   14MOL   H115 6641   1.627   1.912   3.344  1.5245  1.0075  1.5220
   14MOL   H116 6642   1.785   1.973   3.321  0.6094 -1.2976  0.3629
   14MOL   H117 6643   1.507   1.876   3.055 -0.1851  0.6645 -0.0403
   14MOL   H118 6644   1.516   1.786   3.205  0.6779 -0.2203  0.0422
   14MOL   H119 6645   1.577   1.719   3.056  0.5426 -0.5243  0.0713
   14MOL   H120 6646   2.004   1.698   3.370 -2.4175  0.0187 -0.3759
   14MOL   H121 6647   1.996   1.590   3.229  0.1959  0.2649  0.3544
   14MOL   H122 6648   2.161   1.819   3.438 -1.8903  1.4926 -1.3544
   14MOL   H123 6649   2.399   1.897   3.418 -0.9887  0.5797  0.6626
   14MOL   H124 6650   2.519   1.872   3.195  0.4415 -1.8750 -0.2993
   14MOL   H125 6651   2.408   1.764   3.012 -0.7565 -0.8654 -0.7412
   14MOL   H126 6652   2.169   1.676   3.037  1.0983 -1.1142 -0.1796
   14MOL   C127 6653   1.773   1.950   3.022 -0.3753 -0.0032  0.2799
   14MOL   C128 6654   1.791   1.890   2.877  0.2496 -0.1367 -0.5315
   14MOL   C129 6655   1.729   1.751   2.854  0.3780 -0.0372 -0.7073
   14MOL   C130 6656   1.943   1.886   2.849 -0.0717 -0.3850 -0.1596
   14MOL   O131 6657   2.000   1.781   2.835  0.2406  0.5783  0.0937
   14MOL   O132 6658   2.003   2.007   2.839  0.1378  0.1697 -0.3528
   14MOL   C133 6659   2.145   2.012   2.826 -0.4848  0.8468 -0.3791
   14MOL   C134 6660   2.172   2.023   2.678 -0.1593 -0.1357 -0.3055
   14MOL   C135 6661   2.168   1.905   2.596 -0.6083 -0.9699  0.2534
   14MOL   C136 6662   2.190   1.920   2.462  0.5520  0.0331 -0.5453
   14MOL   C137 6663   2.209   2.045   2.403 -0.1318  0.5438  0.1225
   14MOL   C138 6664   2.213   2.159   2.487 -0.2529  0.2655 -0.0056
   14MOL   C139 6665   2.204   2.149   2.628  0.2863 -0.9271  0.6201
   14MOL   H140 6666   1.861   2.003   3.057  0.2053 -0.6709 -0.1399
   14MOL   H141 6667   1.695   2.025   3.007 -0.6363 -0.5201 -1.0828
   14MOL   H142 6668   1.750   1.717   2.753  0.1852  1.0682 -1.1166
   14MOL   H143 6669   1.621   1.751   2.849  0.4003  0.6485 -1.2213
   14MOL   H144 6670   1.754   1.676   2.930  0.8168  0.6895 -0.1261
   14MOL   H145 6671   2.179   2.103   2.875  0.1111  0.2823  0.2632
   14MOL   H146 6672   2.188   1.921   2.867  2.9672  2.9208  0.8745
   14MOL   H147 6673   2.149   1.805   2.631  2.2923 -2.0233 -1.0106
   14MOL   H148 6674   2.171   1.839   2.393 -1.1284  1.3161 -1.6251
   14MOL   H149 6675   2.227   2.052   2.297  2.0141 -0.5158  0.3935
   14MOL   H150 6676   2.227   2.254   2.438  0.1229  0.3518  0.2676
   14MOL   H151 6677   2.213   2.241   2.682  0.2256 -1.0012  0.7566
   14MOL   C152 6678   1.721   1.986   2.775 -0.1377  0.3597  0.6214
   14MOL   C153 6679   1.712   1.979   2.616 -0.0350  0.6698 -0.9467
   14MOL   C154 6680   1.841   1.916   2.549  0.2563  0.4870 -0.0328
   14MOL   C155 6681   1.707   2.127   2.574 -0.3438  0.5708  0.1531
   14MOL   O156 6682   1.790   2.175   2.498  0.4265 -0.2600  0.0487
   14MOL   O157 6683   1.591   2.194   2.622  0.1927 -0.1252  0.4797
   14MOL   C158 6684   1.546   2.317   2.568  0.5454  0.1126 -0.0796
   14MOL   C159 6685   1.399   2.331   2.551 -0.3998  0.4389  0.2208
   14MOL   C160 6686   1.310   2.235   2.599 -0.1159  0.4271 -0.1197
   14MOL   C161 6687   1.174   2.257   2.585  0.0979  0.1740  0.0669
   14MOL   C162 6688   1.129   2.375   2.519  0.0468  0.2068  0.2822
   14MOL   C163 6689   1.222   2.448   2.451 -0.1208 -0.0301  0.0232
   14MOL   C164 6690   1.357   2.439   2.472  0.5290  0.6578  0.1823
   14MOL   H165 6691   1.771   2.080   2.797  3.3347 -1.0862 -0.7638
   14MOL   H166 6692   1.624   2.003   2.821  0.2361 -1.7262  2.2305
   14MOL   H167 6693   1.824   1.929   2.442 -1.0774 -0.6278  0.0334
   14MOL   H168 6694   1.862   1.812   2.571 -0.0540  0.1410 -1.3312
   14MOL   H169 6695   1.927   1.978   2.574  0.7527 -0.5021  0.7557
   14MOL   H170 6696   1.574   2.390   2.643 -0.7451 -0.1695  0.6935
   14MOL   H171 6697   1.594   2.339   2.472  0.7457  1.2171  0.2633
   14MOL   H172 6698   1.354   2.155   2.657 -0.0110  2.0243  2.0676
   14MOL   H173 6699   1.103   2.189   2.630  1.6765 -1.4052  0.2153
   14MOL   H174 6700   1.023   2.380   2.500 -0.1764 -1.0359  1.0924
   14MOL   H175 6701   1.192   2.525   2.382  1.0910  1.4837  1.1451
   14MOL   H176 6702   1.432   2.504   2.430  0.8380 -0.5405 -1.1827
   14MOL   C177 6703   1.578   1.910   2.571  0.5347 -0.4918 -0.0545
   14MOL   C178 6704   1.536   1.862   2.429 -0.8872 -0.4627 -0.1159
   14MOL   C179 6705   1.618   1.735   2.401  1.1250  0.5110  0.0247
   14MOL   C180 6706   1.566   1.967   2.318  0.4989 -0.0150 -0.0900
   14MOL   O181 6707   1.633   1.941   2.215 -0.2973 -0.9982 -0.1184
   14MOL   O182 6708   1.508   2.086   2.342  0.0070  0.0529 -0.3240
   14MOL   C183 6709   1.509   2.176   2.243  0.3071 -0.9067 -0.1506
   14MOL   C184 6710   1.388   2.154   2.152  0.9681 -0.2935 -0.4526
   14MOL   C185 6711   1.398   2.107   2.019 -0.8785  0.2028 -0.1498
   14MOL   C186 6712   1.289   2.104   1.928  1.0820 -0.9631 -0.4076
   14MOL   C187 6713   1.158   2.136   1.984  0.8369  1.0267  0.1166
   14MOL   C188 6714   1.147   2.171   2.119 -0.4062 -0.0790 -0.0332
   14MOL   C189 6715   1.261   2.185   2.202  0.6603 -0.5956  0.2814
   14MOL   H190 6716   1.498   1.978   2.600  0.2845 -0.7944 -0.0301
   14MOL   H191 6717   1.561   1.825   2.637  0.9948  1.2837  2.4025
   14MOL   H192 6718   1.714   1.763   2.358  1.1821  1.4644  0.7573
   14MOL   H193 6719   1.562   1.665   2.339  0.7515  0.4222  0.4569
   14MOL   H194 6720   1.640   1.679   2.491 -0.6926  1.1400  0.8908
   14MOL   H195 6721   1.499   2.279   2.279 -1.5712 -0.9307 -0.5421
   14MOL   H196 6722   1.600   2.191   2.185 -0.7942  2.7199 -1.1277
   14MOL   H197 6723   1.496   2.086   1.980 -0.7571  0.6863 -0.0968
   14MOL   H198 6724   1.294   2.082   1.822  1.1193  2.4610 -1.2012
   14MOL   H199 6725   1.070   2.124   1.923 -0.4584 -0.5059  2.2094
   14MOL   H200 6726   1.051   2.206   2.155  0.0821 -0.5532  1.7923
   14MOL   H201 6727   1.250   2.213   2.306 -3.2146 -1.6179  0.2241
   14MOL   C202 6728   1.379   1.826   2.424 -0.1149  0.1308 -0.3649
   14MOL   C203 6729   1.293   1.748   2.532 -0.0204  0.1463  0.0209
   14MOL   C204 6730   1.269   1.834   2.663  0.6246  0.1184 -0.1349
   14MOL   C205 6731   1.375   1.628   2.575 -0.0217  0.3127 -0.8575
   14MOL   O206 6732   1.438   1.631   2.681  0.4269 -0.0237 -0.2800
   14MOL   O207 6733   1.392   1.536   2.479  0.3731  0.2016 -0.0388
   14MOL   C208 6734   1.473   1.420   2.499  0.2924 -0.0771  0.3313
   14MOL   C209 6735   1.400   1.304   2.560 -0.0959  0.2102 -1.2529
   14MOL   C210 6736   1.264   1.292   2.539  0.4235 -0.2195  0.5777
   14MOL   C211 6737   1.199   1.186   2.600 -0.3378 -0.1588 -0.3291
   14MOL   C212 6738   1.269   1.085   2.665  0.3582  0.1934  0.4441
   14MOL   C213 6739   1.409   1.092   2.681  0.1605 -0.0083 -0.1850
   14MOL   C214 6740   1.472   1.200   2.620 -0.2289  0.7926  0.7185
   14MOL   H215 6741   1.360   1.782   2.326 -0.8175 -1.0499  0.2813
   14MOL   H216 6742   1.328   1.921   2.409  1.3061  0.9554 -0.0730
   14MOL   H217 6743   1.363   1.863   2.710  0.7335  0.3912 -0.5178
   14MOL   H218 6744   1.203   1.786   2.735 -1.3041  1.0370 -1.2790
   14MOL   H219 6745   1.232   1.934   2.644 -1.1139 -0.4045  0.4665
   14MOL   H220 6746   1.511   1.396   2.400 -0.0403 -1.8814  0.6201
   14MOL   H221 6747   1.557   1.445   2.564 -0.1163  0.6243  0.5835
   14MOL   H222 6748   1.204   1.367   2.488  0.8804  0.4563  1.0295
   14MOL   H223 6749   1.091   1.183   2.593 -0.2954  0.9326 -1.7561
   14MOL   H224 6750   1.221   0.999   2.711 -0.8745  0.9059  0.5146
   14MOL   H225 6751   1.467   1.015   2.729  0.9946  1.3012  0.9555
   14MOL   H226 6752   1.579   1.194   2.630  0.0238  0.6757 -1.7160
   14MOL   C227 6753   1.159   1.695   2.472  0.3231  0.0444  0.2648
   14MOL   C228 6754   1.033   1.781   2.450  0.2691  0.5810 -0.1760
   14MOL   C229 6755   1.078   1.919   2.384  0.3623  0.2921  0.4815
   14MOL   C230 6756   0.954   1.815   2.584  0.1997  0.2330 -0.1647
   14MOL   O231 6757   0.974   1.754   2.690  0.3535  0.1981 -0.4835
   14MOL   O232 6758   0.867   1.912   2.569  0.3712  0.7026 -0.1592
   14MOL   C233 6759   0.777   1.949   2.674 -0.0226 -0.2835  0.6488
   14MOL   C234 6760   0.758   2.099   2.674 -0.1024 -0.3083 -0.3713
   14MOL   C235 6761   0.848   2.186   2.737 -0.7063 -0.4651 -0.3592
   14MOL   C236 6762   0.830   2.326   2.727  0.2708 -0.0789 -0.2974
   14MOL   C237 6763   0.724   2.374   2.651  0.4931  0.4281  0.2833
   14MOL   C238 6764   0.627   2.290   2.592  0.3911  0.1003  0.1094
   14MOL   C239 6765   0.641   2.150   2.608 -0.2437  1.0486 -0.1120
   14MOL   H240 6766   1.135   1.608   2.533  1.1080 -0.1831  0.2490
   14MOL   H241 6767   1.180   1.641   2.380  0.8029 -2.0379  1.5822
   14MOL   H242 6768   1.131   1.906   2.290 -0.2122 -1.9720  0.4402
   14MOL   H243 6769   1.132   1.988   2.448  1.2574  0.3920 -0.3780
   14MOL   H244 6770   0.988   1.971   2.351  0.7449 -0.0440 -1.1231
   14MOL   H245 6771   0.681   1.899   2.657  0.5312 -0.2921 -2.9390
   14MOL   H246 6772   0.814   1.923   2.773 -1.0062  2.4503  1.7760
   14MOL   H247 6773   0.926   2.144   2.799 -1.9278 -1.8801  0.2367
   14MOL   H248 6774   0.894   2.388   2.788 -0.5236 -0.1731  0.6512
   14MOL   H249 6775   0.705   2.480   2.643 -3.4470 -0.1775  1.0986
   14MOL   H250 6776   0.537   2.338   2.558  1.2552 -0.8870 -3.8997
   14MOL   H251 6777   0.564   2.084   2.573  1.1382 -1.5961  1.6858
   14MOL   C252 6778   0.935   1.726   2.337 -0.0052  0.0938 -0.2345
   14MOL   C253 6779   0.869   1.580   2.341  0.7589  0.9603 -0.3920
   14MOL   C254 6780   0.822   1.554   2.491  0.2344  0.4315 -0.0379
   14MOL   C255 6781   0.979   1.477   2.299 -0.6911  0.8999  0.5832
   14MOL   O256 6782   0.994   1.369   2.361  0.1622  0.0202  0.3763
   14MOL   O257 6783   1.057   1.519   2.197 -0.1701  0.2973 -0.1900
   14MOL   C258 6784   1.166   1.445   2.141  0.1128 -0.1498  0.4607
   14MOL   C259 6785   1.274   1.534   2.087 -0.2152  0.1802 -0.2069
   14MOL   C260 6786   1.403   1.486   2.105  0.0010 -0.1780  0.5919
   14MOL   C261 6787   1.510   1.566   2.069 -0.1472 -0.6069 -0.4844
   14MOL   C262 6788   1.488   1.694   2.011  0.4351  0.6846  0.0898
   14MOL   C263 6789   1.356   1.738   1.986  0.2200  0.3213 -0.3249
   14MOL   C264 6790   1.254   1.656   2.027  0.6301 -0.4586  0.2281
   14MOL   H265 6791   0.987   1.745   2.243 -0.2411  1.9276 -0.0204
   14MOL   H266 6792   0.851   1.795   2.321 -0.7698 -0.4262  1.4396
   14MOL   H267 6793   0.909   1.551   2.557 -1.7398 -2.5379  2.5593
   14MOL   H268 6794   0.790   1.450   2.503  3.2710 -0.7267 -1.3149
   14MOL   H269 6795   0.749   1.624   2.530 -1.0760 -1.8633  1.7862
   14MOL   H270 6796   1.207   1.381   2.218 -0.7280 -1.3777 -0.0921
   14MOL   H271 6797   1.143   1.373   2.062  2.1518 -1.0069  0.6226
   14MOL   H272 6798   1.400   1.386   2.147 -0.3042  0.2201  1.5225
   14MOL   H273 6799   1.609   1.529   2.090  0.2872  0.8090 -0.0031
   14MOL   H274 6800   1.574   1.756   1.992  0.6010 -0.1530 -1.9960
   14MOL   H275 6801   1.332   1.827   1.929 -0.5388 -0.5005 -1.3141
   14MOL   H276 6802   1.154   1.696   2.024  0.8212  0.0634  0.7533
   14MOL   C277 6803   0.731   1.565   2.263 -0.1859  0.7674 -0.2572
   14MOL   C278 6804   0.711   1.560   2.104 -0.0453 -0.3946  0.2119
   14MOL   C279 6805   0.748   1.418   2.056 -0.4558 -0.2396 -0.5511
   14MOL   C280 6806   0.796   1.674   2.041 -0.3494  0.8048 -0.0843
   14MOL   O281 6807   0.884   1.659   1.955  0.1149  0.6555  0.2494
   14MOL   O282 6808   0.755   1.796   2.084  0.3079  0.3938 -0.0801
   14MOL   C283 6809   0.821   1.909   2.030  0.0003 -0.5400 -0.1000
   14MOL   C284 6810   0.776   2.046   2.079 -0.8024 -0.0874 -0.0252
   14MOL   C285 6811   0.722   2.132   1.986  0.4223  0.5953  0.0045
   14MOL   C286 6812   0.685   2.263   2.018 -0.3932  0.2996 -0.0296
   14MOL   C287 6813   0.711   2.308   2.147 -0.8548  0.2108 -0.6884
   14MOL   C288 6814   0.748   2.222   2.249  0.2886 -0.2144  0.5989
   14MOL   C289 6815   0.777   2.085   2.217  0.4638  0.3652  0.0474
   14MOL   H290 6816   0.677   1.653   2.297  2.5487  1.6024  2.1458
   14MOL   H291 6817   0.669   1.485   2.304  0.4117 -0.3223 -1.4489
   14MOL   H292 6818   0.850   1.393   2.086 -0.7909 -0.1982  0.6076
   14MOL   H293 6819   0.757   1.407   1.947  1.1280 -0.8499 -0.3798
   14MOL   H294 6820   0.696   1.329   2.092  1.2087 -1.8908 -2.0787
   14MOL   H295 6821   0.929   1.896   2.043  0.1068 -0.2613 -0.6661
   14MOL   H296 6822   0.813   1.905   1.921 -3.0900 -0.7451  0.1077
   14MOL   H297 6823   0.704   2.094   1.887  1.0379 -0.0160  0.1179
   14MOL   H298 6824   0.653   2.329   1.939 -1.9349 -1.3583 -0.8203
   14MOL   H299 6825   0.691   2.411   2.172  0.6536  0.1098  1.0692
   14MOL   H300 6826   0.754   2.255   2.352  2.1550 -0.8748  0.7246
   14MOL   H301 6827   0.797   2.014   2.295 -1.4232 -0.1169  0.1260
   14MOL   C302 6828   0.551   1.590   2.084  0.5376 -0.1955  0.1622
   14MOL   C303 6829   0.471   1.569   1.946  0.7075  0.5313  0.3131
   14MOL   C304 6830   0.404   1.429   1.940 -0.3780  0.2014  0.1935
   14MOL   C305 6831   0.566   1.597   1.832 -0.3485  0.2821 -0.5736
   14MOL   O306 6832   0.602   1.710   1.808  0.2359 -0.0235 -0.3529
   14MOL   O307 6833   0.611   1.489   1.775 -0.0301 -0.5684 -0.3086
   14MOL   C308 6834   0.693   1.493   1.659 -0.0497 -0.7938  0.0912
   14MOL   C309 6835   0.709   1.368   1.584  0.0839 -0.1474 -0.7127
   14MOL   C310 6836   0.602   1.289   1.557  0.0334 -0.3768 -0.3144
   14MOL   C311 6837   0.614   1.174   1.476 -0.6252 -0.8404 -1.0100
   14MOL   C312 6838   0.742   1.145   1.415  0.0925  0.2328  0.5290
   14MOL   C313 6839   0.850   1.227   1.444 -0.2285 -0.3487  0.1891
   14MOL   C314 6840   0.835   1.329   1.537  0.3149  0.5969 -0.5279
   14MOL   H315 6841   0.543   1.697   2.103 -0.7340 -0.0730 -0.9938
   14MOL   H316 6842   0.499   1.538   2.164 -0.5711 -1.1511 -1.1759
   14MOL   H317 6843   0.336   1.412   1.857 -0.1767 -2.7797  0.5697
   14MOL   H318 6844   0.339   1.412   2.026 -1.0978 -1.2664 -0.6120
   14MOL   H319 6845   0.484   1.355   1.941  1.3539  2.0416  0.5848
   14MOL   H320 6846   0.654   1.570   1.593 -0.6337 -0.2538  1.0565
   14MOL   H321 6847   0.787   1.534   1.697  0.1661 -1.0555 -0.1526
   14MOL   H322 6848   0.500   1.310   1.585  0.5620 -0.5313  1.8698
   14MOL   H323 6849   0.528   1.111   1.458  0.0373 -1.0164 -3.7328
   14MOL   H324 6850   0.757   1.069   1.339 -0.6738 -0.6958  1.2912
   14MOL   H325 6851   0.941   1.208   1.388  1.1777  1.0881  1.9367
   14MOL   H326 6852   0.916   1.399   1.552 -0.1909  0.9454  0.6377
   14MOL   C327 6853   0.358   1.686   1.951 -0.3243  0.9473 -0.4914
   14MOL   C328 6854   0.234   1.684   1.848  0.7918 -0.0555  0.3731
   14MOL   C329 6855   0.174   1.826   1.860 -0.4192 -0.2859 -0.3915
   14MOL   C330 6856   0.127   1.595   1.906  0.2971  0.1418  0.9089
   14MOL   O331 6857   0.142   1.551   2.017 -0.5052  0.0288  0.0066
   14MOL   O332 6858   0.008   1.586   1.836  0.1304 -0.2294 -0.0082
   14MOL   C333 6859   7.904   1.513   1.893 -0.1792 -0.2304  0.5232
   14MOL   C334 6860   7.773   1.593   1.878  0.7218  0.3169 -0.2492
   14MOL   C335 6861   7.712   1.589   1.750 -0.2318  0.4578 -0.1662
   14MOL   C336 6862   7.591   1.661   1.730 -0.0716  0.2660 -0.6396
   14MOL   C337 6863   7.537   1.730   1.842 -0.2371  0.4374 -0.4570
   14MOL   C338 6864   7.604   1.750   1.965  0.4071  0.1815 -0.0507
   14MOL   C339 6865   7.719   1.671   1.983  0.7575  1.1544  0.8359
   14MOL   H340 6866   0.418   1.777   1.946 -1.2290  1.5869  0.2682
   14MOL   H341 6867   0.315   1.686   2.051  4.1769  0.3608  1.5672
   14MOL   H342 6868   0.068   1.824   1.833 -0.1521 -1.2766 -1.4236
   14MOL   H343 6869   0.240   1.897   1.810 -1.8738  1.7875  0.5809
   14MOL   H344 6870   0.174   1.846   1.967 -0.2435 -1.5053 -0.1522
   14MOL   H345 6871   7.900   1.419   1.837 -3.8962 -0.1191  0.5093
   14MOL   H346 6872   7.922   1.493   1.999  0.9852  0.3841  0.4475
   14MOL   H347 6873   7.753   1.536   1.666  0.0748  1.9979 -0.9974
   14MOL   H348 6874   7.532   1.660   1.640 -0.1439  1.7038 -0.6114
   14MOL   H349 6875   7.445   1.786   1.836 -2.0982 -2.4102  0.7837
   14MOL   H350 6876   7.569   1.805   2.051  2.1592 -0.1144  0.8549
   14MOL   H351 6877   7.772   1.670   2.077  1.6409 -0.4704  0.3406
   14MOL   C352 6878   0.279   1.653   1.700  0.4571 -0.2350 -0.1531
   14MOL   C353 6879   0.189   1.635   1.571  0.4654  0.2511  0.1973
   14MOL   C354 6880   0.101   1.759   1.562 -0.5160 -0.6966 -0.3562
   14MOL   C355 6881   0.101   1.510   1.585  0.5588  0.6195  0.4323
   14MOL   O356 6882   7.985   1.499   1.553  0.1458 -0.2103 -0.1957
   14MOL   O357 6883   0.167   1.405   1.627 -0.0554 -0.1637  0.0661
   14MOL   C358 6884   0.100   1.275   1.643  0.0400  0.7968  0.0089
   14MOL   C359 6885   0.185   1.180   1.739  0.3164  0.3103  0.3910
   14MOL   C360 6886   0.150   1.172   1.877  1.1171 -0.9278  0.4686
   14MOL   C361 6887   0.232   1.110   1.968 -0.6565  0.8721 -0.1616
   14MOL   C362 6888   0.356   1.048   1.920  0.3830 -0.6323 -0.2237
   14MOL   C363 6889   0.382   1.056   1.783  0.5031  0.7494  0.0424
   14MOL   C364 6890   0.298   1.117   1.692 -0.2264  0.0311  0.6563
   14MOL   H365 6891   0.335   1.560   1.705  0.2952 -0.3174  0.1085
   14MOL   H366 6892   0.349   1.730   1.666 -0.9130  0.9376 -0.3839
   14MOL   H367 6893   0.154   1.845   1.602  0.0684 -1.8611  1.4818
   14MOL   H368 6894   0.010   1.755   1.621 -0.3427 -2.7473 -0.1724
   14MOL   H369 6895   0.077   1.790   1.461 -0.1802  0.8267  0.0249
   14MOL   H370 6896   0.003   1.296   1.687  0.5863  1.2032  1.0514
   14MOL   H371 6897   0.070   1.247   1.542 -1.6142  0.4289  0.5936
   14MOL   H372 6898   0.052   1.208   1.905  1.5696 -0.8998  2.0529
   14MOL   H373 6899   0.221   1.110   2.075  0.2964 -3.8470  0.0239
   14MOL   H374 6900   0.428   1.007   1.990 -0.7962 -2.7879 -0.2218
   14MOL   H375 6901   0.468   1.003   1.743 -0.3542 -1.9569  1.6805
   14MOL   H376 6902   0.319   1.119   1.586  0.6745  0.8574  0.8435
   14MOL   C377 6903   0.290   1.626   1.444  0.1799  0.1110 -0.2643
   14MOL   C378 6904   0.242   1.576   1.302 -0.0182  0.2646  1.1775
   14MOL   C379 6905   0.112   1.648   1.251  0.7110  0.1302 -0.2863
   14MOL   C380 6906   0.223   1.421   1.295 -0.8552  0.1956  0.5677
   14MOL   O381 6907   0.303   1.341   1.354 -0.2854  0.1376  0.0642
   14MOL   O382 6908   0.127   1.386   1.232 -0.2713 -0.2718  0.7548
   14MOL   C383 6909   0.100   1.250   1.210  0.8189  0.0187 -0.4124
   14MOL   C384 6910   7.985   1.240   1.122 -0.5023  0.1928  0.5818
   14MOL   C385 6911   7.877   1.333   1.119 -0.1449 -0.0248  0.2710
   14MOL   C386 6912   7.769   1.323   1.035  0.5478  0.1555  0.1590
   14MOL   C387 6913   7.764   1.216   0.944  0.2079  0.3177 -0.2748
   14MOL   C388 6914   7.857   1.105   0.960  0.5730 -0.3736 -0.0007
   14MOL   C389 6915   7.969   1.121   1.045  0.3288  0.1531 -0.3400
   14MOL   H390 6916   0.378   1.565   1.464 -0.5743 -1.3691 -1.3785
   14MOL   H391 6917   0.322   1.729   1.428  0.1833  0.2961  0.8849
   14MOL   H392 6918   0.038   1.625   1.328 -1.5610 -0.5820 -2.6258
   14MOL   H393 6919   0.070   1.610   1.158 -0.4493  0.1602  0.2102
   14MOL   H394 6920   0.124   1.756   1.236  0.1660 -0.0088 -1.7578
   14MOL   H395 6921   0.188   1.209   1.160  1.1654 -0.4615  0.5830
   14MOL   H396 6922   0.078   1.188   1.297 -0.2799  0.8138 -0.1157
   14MOL   H397 6923   7.877   1.408   1.196  1.4587  0.5054 -0.2294
   14MOL   H398 6924   7.693   1.400   1.040 -0.5407 -1.0018  2.0709
   14MOL   H399 6925   7.682   1.205   0.874 -0.1613 -2.2647  0.5176
   14MOL   H400 6926   7.854   1.018   0.896 -0.0881 -0.7322  0.5042
   14MOL   H401 6927   0.037   1.043   1.053 -1.0022 -1.0364  0.9581
   14MOL   C402 6928   0.350   1.612   1.186  0.4868  0.3130  0.7462
   14MOL   C403 6929   0.511   1.617   1.193 -0.2946 -0.2892  0.0397
   14MOL   C404 6930   0.567   1.478   1.234 -0.2553  0.5184 -0.3064
   14MOL   C405 6931   0.560   1.726   1.288  0.4246  0.8381  0.2857
   14MOL   O406 6932   0.636   1.697   1.379 -0.1287  0.1614 -0.1012
   14MOL   O407 6933   0.522   1.849   1.261  0.9752 -0.3621  0.2180
   14MOL   C408 6934   0.569   1.966   1.320  0.0165  0.0885  0.3430
   14MOL   C409 6935   0.477   2.015   1.431 -0.4373  0.0563  0.3520
   14MOL   C410 6936   0.532   2.079   1.548  0.2772  0.3627  0.4051
   14MOL   C411 6937   0.446   2.125   1.646 -0.4467 -0.1053 -0.1639
   14MOL   C412 6938   0.307   2.123   1.626  0.2817  0.0109  0.1678
   14MOL   C413 6939   0.254   2.073   1.503  0.5635 -0.1241 -0.5478
   14MOL   C414 6940   0.337   2.014   1.408  0.8168 -0.1541  0.1851
   14MOL   H415 6941   0.320   1.709   1.148  3.0012  0.1994 -1.6813
   14MOL   H416 6942   0.327   1.541   1.107 -0.1405  0.9834  0.3279
   14MOL   H417 6943   0.528   1.448   1.331 -0.6981 -0.7239 -0.8529
   14MOL   H418 6944   0.676   1.481   1.242 -0.0152 -1.1908 -2.5170
   14MOL   H419 6945   0.542   1.398   1.164  2.1284  0.3741 -1.0414
   14MOL   H420 6946   0.668   1.942   1.360  0.5474 -0.1460 -1.0731
   14MOL   H421 6947   0.573   2.041   1.242  1.9270 -0.6274 -0.2921
   14MOL   H422 6948   0.639   2.073   1.557  0.4497 -0.4240 -1.9032
   14MOL   H423 6949   0.488   2.163   1.738 -1.6433 -2.0469  1.2200
   14MOL   H424 6950   0.236   2.156   1.700 -0.4949  1.4312 -1.1745
   14MOL   H425 6951   0.150   2.082   1.475  0.7344 -0.9303 -1.4746
   14MOL   H426 6952   0.298   1.975   1.316  1.8416 -0.9704  0.0930
   14MOL   C427 6953   0.566   1.662   1.051  0.0840  0.1317 -0.5950
   14MOL   C428 6954   0.724   1.654   1.009  0.3527  0.2642 -0.4827
   14MOL   C429 6955   0.830   1.700   1.112  0.1606  0.0938 -0.4832
   14MOL   C430 6956   0.726   1.749   0.887  0.3469 -1.0772  0.6285
   14MOL   O431 6957   0.779   1.863   0.899 -1.2347  0.4573 -0.1521
   14MOL   O432 6958   0.645   1.713   0.779 -0.7181  0.0395 -0.0675
   14MOL   C433 6959   0.587   1.816   0.700  0.5706  0.6313 -0.0388
   14MOL   C434 6960   0.677   1.878   0.598  0.2897 -0.1595 -0.0369
   14MOL   C435 6961   0.651   2.007   0.547 -0.1236  0.0687  0.6637
   14MOL   C436 6962   0.729   2.063   0.439  0.3854 -0.2148  0.1664
   14MOL   C437 6963   0.831   1.981   0.381 -0.9305  0.0946 -0.3083
   14MOL   C438 6964   0.870   1.862   0.441  0.1744 -0.1929  0.0285
   14MOL   C439 6965   0.788   1.807   0.541  0.5287  0.5764  0.0967
   14MOL   H440 6966   0.521   1.758   1.028 -0.1773  0.2395  0.3193
   14MOL   H441 6967   0.513   1.601   0.978 -0.5315 -0.9363  0.6919
   14MOL   H442 6968   0.929   1.716   1.070  0.6835 -2.0404 -0.1180
   14MOL   H443 6969   0.849   1.629   1.192  2.4919  0.0523 -1.0216
   14MOL   H444 6970   0.809   1.795   1.162 -0.6283 -0.0337 -0.5663
   14MOL   H445 6971   0.490   1.790   0.658  2.2549 -3.4883 -1.6540
   14MOL   H446 6972   0.572   1.896   0.772  0.7628 -1.4540  2.3659
   14MOL   H447 6973   0.559   2.053   0.581 -0.7108 -2.6698  2.9788
   14MOL   H448 6974   0.701   2.157   0.394 -0.0960 -0.9798 -1.1648
   14MOL   H449 6975   0.902   2.013   0.307  2.3533 -1.2181  2.1329
   14MOL   H450 6976   0.956   1.804   0.414 -0.6138 -2.0562  1.3951
   14MOL   H451 6977   0.817   1.709   0.576  1.1638  0.1262 -1.6465
   14MOL   C452 6978   0.761   1.511   0.957 -0.0636 -0.4097  1.1835
   14MOL   C453 6979   0.897   1.457   0.903 -0.3207  0.9780  0.2485
   14MOL   C454 6980   1.008   1.432   1.016  0.5687  0.0424 -0.6009
   14MOL   C455 6981   0.973   1.550   0.801  0.1127 -0.1672  0.5573
   14MOL   O456 6982   0.961   1.530   0.680 -0.7341  0.1298 -0.0181
   14MOL   O457 6983   1.038   1.660   0.848 -0.4744 -0.2340 -0.1945
   14MOL   C458 6984   1.102   1.747   0.760  0.5468  0.2737  0.0818
   14MOL   C459 6985   1.200   1.825   0.845  0.4665  0.4804  0.1121
   14MOL   C460 6986   1.340   1.814   0.822  0.0787 -0.1646  0.0085
   14MOL   C461 6987   1.424   1.889   0.897 -0.2856  0.8437  0.4153
   14MOL   C462 6988   1.375   1.965   1.008  0.4402 -0.3795  0.1388
   14MOL   C463 6989   1.238   1.974   1.031  0.0858  0.0080 -0.0661
   14MOL   C464 6990   1.153   1.901   0.955 -0.3095 -0.7551  0.1608
   14MOL   H465 6991   0.707   1.497   0.864  0.0755  0.1978  1.0133
   14MOL   H466 6992   0.714   1.438   1.023 -0.9090 -0.3308  0.6731
   14MOL   H467 6993   1.104   1.395   0.981  0.3141 -1.9761  0.7577
   14MOL   H468 6994   0.967   1.360   1.087  1.5666  0.9569  0.9351
   14MOL   H469 6995   1.027   1.519   1.079  0.9152 -0.0576 -0.5639
   14MOL   H470 6996   1.162   1.704   0.681 -0.7797 -1.3043 -0.1061
   14MOL   H471 6997   1.022   1.811   0.722  0.6650 -1.3383 -3.0311
   14MOL   H472 6998   1.378   1.755   0.741  1.7196  0.5810  0.2072
   14MOL   H473 6999   1.529   1.891   0.872 -0.2912  2.0514  0.4632
   14MOL   H474 7000   1.446   2.032   1.056 -0.4954  1.3312 -0.8215
   14MOL   H475 7001   1.206   2.042   1.108 -0.2037  0.0049 -0.1859
   14MOL   H476 7002   1.049   1.920   0.978  0.4041  4.1946 -0.1203
   14MOL   C477 7003   0.874   1.322   0.833  0.4788 -0.1450  0.5458
   14MOL   C478 7004   0.988   1.233   0.774  0.0004  0.0867 -1.0254
   14MOL   C479 7005   0.943   1.174   0.639  0.2368  0.2974  1.2882
   14MOL   C480 7006   1.028   1.121   0.874  0.4143  0.4293 -0.6795
   14MOL   O481 7007   0.991   1.113   0.996  0.0187 -0.0199 -0.0486
   14MOL   O482 7008   1.094   1.032   0.811 -0.0749 -0.3678 -0.0453
   14MOL   C483 7009   1.135   0.906   0.870  0.3601  0.1834 -0.3265
   14MOL   C484 7010   1.070   0.785   0.798 -0.4808 -0.2164  0.3847
   14MOL   C485 7011   1.131   0.656   0.808  0.0633 -0.2341  0.0860
   14MOL   C486 7012   1.075   0.540   0.757  0.6367 -0.0914 -0.0377
   14MOL   C487 7013   0.972   0.555   0.668 -0.0830  0.2923 -0.4859
   14MOL   C488 7014   0.914   0.680   0.640 -0.2568 -0.3435  0.0013
   14MOL   C489 7015   0.964   0.791   0.708  0.5043 -0.1539 -0.2454
   14MOL   H490 7016   0.807   1.339   0.749 -1.4601  0.6391  2.2019
   14MOL   H491 7017   0.817   1.260   0.903  0.3191 -0.4523  0.1431
   14MOL   H492 7018   0.919   1.257   0.573  1.6806 -0.5569 -0.3493
   14MOL   H493 7019   0.844   1.129   0.636 -0.6849  2.3442  0.0753
   14MOL   H494 7020   0.998   1.098   0.584 -0.8787  0.8891 -0.7015
   14MOL   H495 7021   1.243   0.895   0.872  0.3662 -0.2768 -2.4644
   14MOL   H496 7022   1.099   0.899   0.973  1.0947  0.6077 -0.0401
   14MOL   H497 7023   1.211   0.653   0.881  0.5160 -1.4325 -0.4584
   14MOL   H498 7024   1.114   0.441   0.778 -0.9860 -0.6978  0.1883
   14MOL   H499 7025   0.921   0.469   0.628  1.7473 -0.1948 -1.8522
   14MOL   H500 7026   0.837   0.685   0.564 -0.8985  0.5779  0.6947
   14MOL   H501 7027   0.919   0.887   0.684  2.1434  0.2046 -1.9988
   14MOL   H502 7028   1.078   1.293   0.758  0.0721 -0.0319 -1.0696
   15MOL     C1 7029   2.230   1.692   4.287  0.4507  0.2194 -0.0626
   15MOL     C2 7030   2.281   1.772   4.167 -0.1327  0.3890 -0.3667
   15MOL     C3 7031   2.270   1.678   4.043  0.1033 -0.1258 -0.0551
   15MOL     C4 7032   2.433   1.803   4.188  0.0209  0.1874  0.3100
   15MOL     O5 7033   2.495   1.752   4.283 -0.7352  0.9389  0.3997
   15MOL     O6 7034   2.485   1.888   4.104 -0.4104 -0.1406  0.0687
   15MOL     C7 7035   2.623   1.928   4.120  0.8137 -0.4711 -0.1212
   15MOL     C8 7036   2.664   2.040   4.015 -0.1412 -0.6873  0.1036
   15MOL     C9 7037   2.578   2.151   3.997  0.0967 -0.1203  0.1023
   15MOL    C10 7038   2.603   2.234   3.884  0.1636  0.5089 -0.6802
   15MOL    C11 7039   2.708   2.212   3.799  0.1632  0.0190  0.4227
   15MOL    C12 7040   2.799   2.108   3.824  0.2615 -0.8095 -0.5616
   15MOL    C13 7041   2.785   2.030   3.934 -0.7113  0.0589 -0.0049
   15MOL    H14 7042   2.238   1.749   4.379 -1.2861 -0.1158  0.3188
   15MOL    H15 7043   2.123   1.678   4.271  0.2898  1.3035  0.0548
   15MOL    H16 7044   2.169   1.669   4.002  0.7090 -2.1319 -1.1886
   15MOL    H17 7045   2.296   1.576   4.070 -0.9069 -0.1581  0.8142
   15MOL    H18 7046   2.333   1.701   3.957 -2.2882 -0.6168 -2.0252
   15MOL    H19 7047   2.632   1.971   4.219 -1.8062  2.1691 -0.9640
   15MOL    H20 7048   2.690   1.843   4.109 -0.1429 -1.6333  2.6218
   15MOL    H21 7049   2.491   2.171   4.058 -0.7699 -0.6040 -0.9639
   15MOL    H22 7050   2.527   2.309   3.870 -1.0888 -0.4717  0.7050
   15MOL    H23 7051   2.743   2.277   3.720  1.4663 -0.6605  0.4304
   15MOL    H24 7052   2.885   2.103   3.758  0.3560  1.6982 -0.6814
   15MOL    H25 7053   2.860   1.954   3.953 -0.6715 -0.3509 -1.7459
   15MOL    H26 7054   2.279   1.595   4.297 -2.2431 -1.1611  0.3494
   15MOL    C27 7055   2.192   1.898   4.137  0.2268 -0.5774  0.5174
   15MOL    C28 7056   2.161   2.012   4.246 -0.5446  0.4502  0.5487
   15MOL    C29 7057   2.299   2.050   4.318 -0.3347 -0.2014 -0.4433
   15MOL    C30 7058   2.070   1.972   4.363 -0.3112  0.0175 -0.0447
   15MOL    O31 7059   2.096   2.009   4.477  0.3750 -0.2364 -0.2503
   15MOL    O32 7060   1.959   1.894   4.332 -0.4845 -0.4147  0.0877
   15MOL    C33 7061   1.880   1.845   4.442  0.4764 -0.3933 -0.5103
   15MOL    C34 7062   1.752   1.777   4.402 -0.5059  0.3294  0.6961
   15MOL    C35 7063   1.678   1.699   4.491  0.0983 -1.3758  0.2597
   15MOL    C36 7064   1.553   1.646   4.453  0.6540  0.1185  0.5091
   15MOL    C37 7065   1.506   1.651   4.323  0.5782  0.3317 -0.6363
   15MOL    C38 7066   1.586   1.717   4.230  0.3869  0.2482  0.1213
   15MOL    C39 7067   1.712   1.777   4.265  0.4041  1.0819  0.1045
   15MOL    H40 7068   2.089   1.882   4.103  0.0406  1.7200 -0.0805
   15MOL    H41 7069   2.254   1.941   4.059 -0.1103  1.8108  1.5259
   15MOL    H42 7070   2.373   2.090   4.249 -1.4001  0.9657 -0.9258
   15MOL    H43 7071   2.335   1.963   4.372 -0.1300 -0.5215 -1.0989
   15MOL    H44 7072   2.284   2.130   4.391 -0.4490  1.9308 -2.7412
   15MOL    H45 7073   1.934   1.773   4.504  1.0536  2.2279  2.1614
   15MOL    H46 7074   1.855   1.929   4.508 -0.5096  0.1745 -1.5844
   15MOL    H47 7075   1.710   1.686   4.593 -1.3017  0.0886  0.9144
   15MOL    H48 7076   1.511   1.575   4.523  1.6500 -2.3708 -1.3361
   15MOL    H49 7077   1.417   1.600   4.291 -1.6593  1.4592  3.5305
   15MOL    H50 7078   1.557   1.731   4.127 -0.4282  3.5506  0.7492
   15MOL    H51 7079   1.768   1.829   4.190 -0.7376  2.3266  0.0924
   15MOL    C52 7080   2.113   2.136   4.158 -0.0201 -0.3334  1.2488
   15MOL    C53 7081   2.031   2.262   4.200 -0.2754  0.1469 -0.3356
   15MOL    C54 7082   2.093   2.328   4.327 -0.0943  0.2573  0.4692
   15MOL    C55 7083   1.885   2.221   4.232  0.1061  0.2180  0.2165
   15MOL    O56 7084   1.825   2.122   4.187  0.5309 -0.3239 -0.6944
   15MOL    O57 7085   1.824   2.325   4.305  0.1913  0.1514  0.0874
   15MOL    C58 7086   1.693   2.314   4.346 -0.1864  0.4158  0.1931
   15MOL    C59 7087   1.688   2.256   4.487  0.1466  0.0990  0.3542
   15MOL    C60 7088   1.696   2.344   4.601  0.0657  0.4726  0.1973
   15MOL    C61 7089   1.696   2.293   4.724 -0.8133  0.3923 -0.8410
   15MOL    C62 7090   1.676   2.154   4.752  0.2313  0.3463  0.0183
   15MOL    C63 7091   1.650   2.065   4.641 -0.6682 -0.4214 -0.0189
   15MOL    C64 7092   1.671   2.111   4.511  0.7115 -0.8912  0.5274
   15MOL    H65 7093   2.056   2.090   4.078 -1.0687  2.5956  0.2642
   15MOL    H66 7094   2.207   2.172   4.114  0.0913 -0.9189  1.0075
   15MOL    H67 7095   2.194   2.362   4.305  0.1809 -1.5131 -1.1692
   15MOL    H68 7096   2.109   2.265   4.415  1.8012  1.9560  1.3915
   15MOL    H69 7097   2.038   2.417   4.356  0.0804  1.7517 -3.4727
   15MOL    H70 7098   1.644   2.411   4.340  1.5870  1.4271  1.6550
   15MOL    H71 7099   1.638   2.238   4.290  1.7420 -2.7927  2.4954
   15MOL    H72 7100   1.706   2.451   4.592  0.5017  0.3752 -0.5457
   15MOL    H73 7101   1.695   2.363   4.806 -1.2730 -0.5333 -0.0511
   15MOL    H74 7102   1.667   2.117   4.853  0.0042  1.0754  0.2647
   15MOL    H75 7103   1.630   1.962   4.667 -2.6319  0.1426  0.7507
   15MOL    H76 7104   1.673   2.046   4.425 -0.2452 -1.5365  0.9852
   15MOL    C77 7105   2.030   2.370   4.087  0.0091  0.1943 -0.2131
   15MOL    C78 7106   2.003   2.357   3.931  0.4210  0.1048 -0.4127
   15MOL    C79 7107   1.863   2.281   3.906 -0.0360  0.1434 -0.4788
   15MOL    C80 7108   2.102   2.270   3.859  0.0608 -0.1600  0.1076
   15MOL    O81 7109   2.222   2.256   3.887  0.0797 -0.2151  0.0340
   15MOL    O82 7110   2.052   2.222   3.740  0.0607  0.2559 -0.1777
   15MOL    C83 7111   2.118   2.119   3.672 -0.7077  0.0191 -0.5587
   15MOL    C84 7112   2.041   1.986   3.676  0.3332 -0.8918 -0.2381
   15MOL    C85 7113   1.956   1.955   3.567 -1.0284  0.1980  0.0983
   15MOL    C86 7114   1.869   1.852   3.581  0.5414  0.1071  0.5464
   15MOL    C87 7115   1.854   1.788   3.705 -0.7147 -1.1291  0.2177
   15MOL    C88 7116   1.945   1.804   3.813  0.5506  0.5262  0.2652
   15MOL    C89 7117   2.030   1.914   3.805  0.0358 -0.7005  0.1172
   15MOL    H90 7118   2.127   2.420   4.096  0.0245  0.2897 -0.8512
   15MOL    H91 7119   1.967   2.448   4.131 -0.0372 -0.9645  1.8284
   15MOL    H92 7120   1.868   2.178   3.942 -1.4559 -0.1198 -1.0132
   15MOL    H93 7121   1.826   2.258   3.806 -0.7478 -1.1580  0.0638
   15MOL    H94 7122   1.787   2.332   3.966  1.6002  0.0987  1.7192
   15MOL    H95 7123   2.142   2.147   3.569  0.1303 -0.5345 -0.5209
   15MOL    H96 7124   2.218   2.096   3.710 -0.4950  1.6821 -0.0914
   15MOL    H97 7125   1.959   2.024   3.484  0.9045 -0.6088 -0.5423
   15MOL    H98 7126   1.814   1.817   3.495  0.5274  1.7720 -0.1370
   15MOL    H99 7127   1.786   1.704   3.703 -0.4383 -1.3521  0.1715
   15MOL   H100 7128   1.939   1.755   3.908 -1.0702  0.2596  0.0379
   15MOL   H101 7129   2.092   1.947   3.887 -1.6571 -0.6489  1.4013
   15MOL   C102 7130   1.974   2.493   3.857 -0.1410 -0.6372 -0.0522
   15MOL   C103 7131   2.088   2.602   3.832  0.5409  0.3047 -0.3849
   15MOL   C104 7132   2.224   2.542   3.799  0.3532  0.6276 -0.5544
   15MOL   C105 7133   2.115   2.689   3.960 -0.2124 -0.1085 -0.2442
   15MOL   O106 7134   2.057   2.678   4.069  0.0053 -0.5497  0.7378
   15MOL   O107 7135   2.208   2.781   3.940 -0.5405 -0.2397  0.2191
   15MOL   C108 7136   2.250   2.874   4.035  0.2963 -0.2467  0.4831
   15MOL   C109 7137   2.187   3.012   4.032  0.5640 -0.3052 -0.1197
   15MOL   C110 7138   2.209   3.100   3.922 -0.7606  0.0039 -0.0411
   15MOL   C111 7139   2.158   3.234   3.930 -0.6215 -0.1778 -0.0733
   15MOL   C112 7140   2.065   3.269   4.029 -0.0750  0.5959  0.5879
   15MOL   C113 7141   2.046   3.187   4.140 -0.7255  0.2938 -0.7898
   15MOL   C114 7142   2.110   3.059   4.144  0.2358 -0.1571 -0.1743
   15MOL   H115 7143   1.886   2.544   3.896 -0.8318 -1.3353 -0.6875
   15MOL   H116 7144   1.941   2.453   3.761 -0.6693  0.3064 -0.2710
   15MOL   H117 7145   2.288   2.618   3.755  1.4119 -0.6958 -1.3405
   15MOL   H118 7146   2.225   2.466   3.721  0.4539 -1.6516  1.5913
   15MOL   H119 7147   2.265   2.486   3.883  0.0556 -1.1099 -1.5541
   15MOL   H120 7148   2.235   2.829   4.134  1.2858  0.0759  0.7865
   15MOL   H121 7149   2.355   2.876   4.007 -0.3480  0.8870 -1.9526
   15MOL   H122 7150   2.266   3.073   3.835 -0.4523 -3.2562  1.1268
   15MOL   H123 7151   2.177   3.309   3.855 -2.6805  1.1589  0.6888
   15MOL   H124 7152   2.022   3.368   4.024 -0.5353  0.3649 -0.3905
   15MOL   H125 7153   1.968   3.207   4.213 -0.3550  0.2580 -0.3816
   15MOL   H126 7154   2.078   2.987   4.216  2.4254 -0.5987  0.3937
   15MOL   C127 7155   2.048   2.698   3.717  0.0962 -0.6596  0.0867
   15MOL   C128 7156   1.897   2.765   3.701  0.3702  0.1584 -0.3828
   15MOL   C129 7157   1.850   2.807   3.846  0.0943  0.3392  0.5074
   15MOL   C130 7158   1.801   2.668   3.630  0.6639  0.1293  0.4275
   15MOL   O131 7159   1.830   2.555   3.585 -0.5147  0.2254 -0.1405
   15MOL   O132 7160   1.674   2.711   3.635  0.5250  0.1923  0.0275
   15MOL   C133 7161   1.570   2.623   3.607 -0.8285  0.3071 -0.5066
   15MOL   C134 7162   1.522   2.553   3.732 -0.4140 -0.5026  0.5625
   15MOL   C135 7163   1.451   2.431   3.719 -0.1104 -0.0100  0.5898
   15MOL   C136 7164   1.430   2.347   3.832  0.8564 -0.1565 -0.8806
   15MOL   C137 7165   1.460   2.399   3.960  0.9712  0.1081  0.1679
   15MOL   C138 7166   1.513   2.524   3.976 -0.5519  0.8008  0.0933
   15MOL   C139 7167   1.550   2.596   3.862  0.7163 -0.0635  0.0696
   15MOL   H140 7168   2.074   2.654   3.621  1.1226 -0.1847  0.1456
   15MOL   H141 7169   2.112   2.786   3.722  0.8864 -1.2871  1.1677
   15MOL   H142 7170   1.927   2.865   3.895  1.7485 -0.8923 -0.5947
   15MOL   H143 7171   1.817   2.731   3.917 -1.2709  0.1814 -0.2653
   15MOL   H144 7172   1.764   2.873   3.835  1.1806  1.9125  1.2417
   15MOL   H145 7173   1.478   2.668   3.570 -0.6538 -0.7760 -2.2959
   15MOL   H146 7174   1.601   2.551   3.531  2.3600  1.7286 -0.6415
   15MOL   H147 7175   1.413   2.387   3.628 -0.1636 -1.6771  1.3888
   15MOL   H148 7176   1.379   2.253   3.818 -0.0364  0.0989  0.4792
   15MOL   H149 7177   1.441   2.324   4.035  2.6814 -1.5213 -0.9763
   15MOL   H150 7178   1.517   2.569   4.074 -0.2944 -0.4083  0.6436
   15MOL   H151 7179   1.581   2.698   3.879 -0.2786  0.5042 -1.3750
   15MOL   C152 7180   1.916   2.900   3.628 -0.1628  0.0942 -0.0555
   15MOL   C153 7181   1.942   2.913   3.468 -0.3158 -0.1710 -0.4286
   15MOL   C154 7182   1.822   2.864   3.380 -0.4374  0.7602  0.0276
   15MOL   C155 7183   2.062   2.822   3.433 -0.3560 -0.4073 -0.8068
   15MOL   O156 7184   2.052   2.726   3.363 -0.0795  0.0523 -0.2675
   15MOL   O157 7185   2.173   2.864   3.489 -0.2498 -0.1424 -0.0356
   15MOL   C158 7186   2.293   2.805   3.449 -0.2490 -0.1471 -0.5203
   15MOL   C159 7187   2.414   2.854   3.532 -0.1844  0.3424  0.1348
   15MOL   C160 7188   2.542   2.879   3.478 -0.8729 -0.0724 -0.1142
   15MOL   C161 7189   2.644   2.925   3.558  0.3672 -0.3737 -0.5070
   15MOL   C162 7190   2.616   2.954   3.694 -0.1951  0.5653 -1.3744
   15MOL   C163 7191   2.492   2.928   3.758 -0.4018  0.3380  0.1029
   15MOL   C164 7192   2.395   2.876   3.669 -0.0013 -0.1753 -0.0609
   15MOL   H165 7193   1.983   2.962   3.688  0.9774  0.1333 -1.3553
   15MOL   H166 7194   1.823   2.954   3.643 -1.0471 -1.0960 -1.1457
   15MOL   H167 7195   1.833   2.890   3.275  0.6541 -1.8055 -0.5426
   15MOL   H168 7196   1.721   2.898   3.401 -0.8775  0.7358 -1.9206
   15MOL   H169 7197   1.821   2.755   3.383  2.7501  0.6757 -0.0532
   15MOL   H170 7198   2.297   2.696   3.455  0.0932 -0.1673 -1.1345
   15MOL   H171 7199   2.311   2.819   3.343 -0.3373  1.7109 -0.3093
   15MOL   H172 7200   2.559   2.870   3.372 -2.1236  1.7826 -0.4902
   15MOL   H173 7201   2.743   2.943   3.518  1.2042 -4.6241 -0.5264
   15MOL   H174 7202   2.695   2.994   3.755  0.8223 -1.6123 -1.1998
   15MOL   H175 7203   2.472   2.952   3.861 -0.0006 -0.9468  0.4971
   15MOL   H176 7204   2.297   2.862   3.713 -0.7893  0.5887 -1.5361
   15MOL   C177 7205   1.973   3.065   3.446  0.1877 -0.5766 -1.0110
   15MOL   C178 7206   2.002   3.150   3.319  0.6566  0.1091 -0.7397
   15MOL   C179 7207   1.865   3.201   3.251  0.1276 -0.2847 -0.4953
   15MOL   C180 7208   2.079   3.059   3.216 -0.3424  0.4490 -0.0303
   15MOL   O181 7209   2.197   3.031   3.237 -0.0293 -0.0235  0.5192
   15MOL   O182 7210   2.011   2.999   3.111  0.2374 -0.1970  0.7374
   15MOL   C183 7211   2.078   2.897   3.035 -0.3228 -0.2513  0.1895
   15MOL   C184 7212   2.096   2.940   2.891 -0.3688  0.3047 -0.5926
   15MOL   C185 7213   2.143   3.068   2.855 -0.0867 -0.6761 -0.1822
   15MOL   C186 7214   2.159   3.106   2.723  0.4877 -0.3315  0.0727
   15MOL   C187 7215   2.144   3.009   2.624 -0.0913  0.0647 -0.5493
   15MOL   C188 7216   2.093   2.881   2.656 -0.7464  0.3688 -0.1333
   15MOL   C189 7217   2.070   2.846   2.791  0.0142 -0.3086  0.1241
   15MOL   H190 7218   2.049   3.084   3.523 -0.1344  0.1251 -0.8536
   15MOL   H191 7219   1.883   3.108   3.491  1.8483  1.6372  0.3291
   15MOL   H192 7220   1.892   3.272   3.173  3.3956 -0.5334  0.3399
   15MOL   H193 7221   1.798   3.245   3.326  0.6459  0.2215 -0.3183
   15MOL   H194 7222   1.817   3.116   3.203  0.3359 -0.4824 -0.3539
   15MOL   H195 7223   2.179   2.876   3.071 -1.1658 -1.9010  1.6082
   15MOL   H196 7224   2.033   2.799   3.026 -0.0898 -0.2651 -0.8970
   15MOL   H197 7225   2.162   3.146   2.927  0.7188  0.9905 -2.1641
   15MOL   H198 7226   2.183   3.211   2.715  1.9283 -0.6110  0.6237
   15MOL   H199 7227   2.150   3.034   2.520 -0.5378 -0.5812 -0.7290
   15MOL   H200 7228   2.063   2.822   2.571 -0.3395  2.9581 -2.1207
   15MOL   H201 7229   2.031   2.747   2.812  0.3435 -0.3008  0.7820
   15MOL   C202 7230   2.097   3.271   3.346 -0.4656 -0.1077  0.6495
   15MOL   C203 7231   2.055   3.406   3.423  0.2870  0.1719  0.3929
   15MOL   C204 7232   1.984   3.372   3.555 -0.1521 -0.1960  0.1733
   15MOL   C205 7233   1.960   3.490   3.337  0.1823  0.1792 -0.5453
   15MOL   O206 7234   1.860   3.547   3.381  0.0754  0.4592  0.4883
   15MOL   O207 7235   2.009   3.512   3.219 -0.7433 -0.8491 -0.0224
   15MOL   C208 7236   1.940   3.584   3.117 -0.5008  0.3451 -0.6233
   15MOL   C209 7237   1.846   3.498   3.030 -0.3165 -0.7540  0.2514
   15MOL   C210 7238   1.706   3.511   3.041  0.0249 -0.3130  0.0771
   15MOL   C211 7239   1.622   3.425   2.963 -0.7931 -0.7869  0.1496
   15MOL   C212 7240   1.676   3.323   2.882 -0.3098 -0.4618 -0.6694
   15MOL   C213 7241   1.816   3.308   2.883  0.3856  1.0417 -0.7203
   15MOL   C214 7242   1.901   3.393   2.955  0.0712 -0.3880  0.1165
   15MOL   H215 7243   2.142   3.297   3.250 -0.6382  0.4925  0.7265
   15MOL   H216 7244   2.176   3.225   3.406 -1.0666  0.0385  1.5609
   15MOL   H217 7245   1.964   3.457   3.621 -0.7832 -0.1268 -0.1110
   15MOL   H218 7246   2.044   3.307   3.619  3.5218  1.5215 -1.3809
   15MOL   H219 7247   1.885   3.330   3.542  0.1246 -0.8258  0.0788
   15MOL   H220 7248   1.886   3.674   3.149 -0.9877  0.1753 -0.9596
   15MOL   H221 7249   2.015   3.625   3.049 -0.2515 -1.0507 -1.1976
   15MOL   H222 7250   1.664   3.579   3.113 -1.2403 -0.7246 -0.2377
   15MOL   H223 7251   1.515   3.431   2.962 -0.7317  0.5345 -1.9377
   15MOL   H224 7252   1.608   3.248   2.845  1.9257 -2.0970 -1.6382
   15MOL   H225 7253   1.853   3.216   2.839  0.3258  0.3793  0.5983
   15MOL   H226 7254   2.009   3.383   2.949 -0.0280 -2.4719  1.5644
   15MOL   C227 7255   2.184   3.482   3.446  0.0312 -0.5998 -0.5323
   15MOL   C228 7256   2.207   3.633   3.497 -0.5235 -0.0088  0.6908
   15MOL   C229 7257   2.085   3.693   3.571  0.8318  0.0629 -1.2312
   15MOL   C230 7258   2.240   3.717   3.368  0.3880 -0.5286  0.1104
   15MOL   O231 7259   2.165   3.806   3.328  0.1606 -0.1552 -0.1049
   15MOL   O232 7260   2.341   3.675   3.298 -0.2772  0.3890 -0.0305
   15MOL   C233 7261   2.378   3.717   3.173 -0.1887 -1.1277  0.5393
   15MOL   C234 7262   2.325   3.621   3.073  1.0657 -0.7000  0.4192
   15MOL   C235 7263   2.298   3.661   2.934 -0.2193  0.4927 -0.4634
   15MOL   C236 7264   2.288   3.566   2.833  0.9460 -0.3647  0.2425
   15MOL   C237 7265   2.295   3.429   2.859 -0.3007  1.2332 -0.4966
   15MOL   C238 7266   2.312   3.391   2.996 -0.3988 -0.3377  0.0704
   15MOL   C239 7267   2.329   3.485   3.103 -0.2133  0.6708  0.6280
   15MOL   H240 7268   2.237   3.466   3.352  0.6622 -0.3624 -0.2118
   15MOL   H241 7269   2.238   3.426   3.522  1.7161  0.2587 -1.0758
   15MOL   H242 7270   2.080   3.638   3.665 -1.2891  0.7969 -0.8714
   15MOL   H243 7271   1.982   3.683   3.535  0.4844  0.8215 -0.4730
   15MOL   H244 7272   2.098   3.799   3.593 -0.3279 -0.6222  3.5382
   15MOL   H245 7273   2.353   3.820   3.146  3.3468 -0.3321  0.0202
   15MOL   H246 7274   2.487   3.713   3.173 -0.0027  2.0252 -1.3043
   15MOL   H247 7275   2.316   3.764   2.905  0.5768  0.4227 -0.2178
   15MOL   H248 7276   2.272   3.607   2.735 -1.2086  0.7624  1.0146
   15MOL   H249 7277   2.305   3.358   2.778  0.5461  0.0812  0.6082
   15MOL   H250 7278   2.327   3.285   3.006 -0.1523 -0.3316 -0.2563
   15MOL   H251 7279   2.367   3.447   3.196  2.7467 -0.1732 -0.8542
   15MOL   C252 7280   2.335   3.632   3.600 -0.0500 -0.0065  0.8007
   15MOL   C253 7281   2.428   3.748   3.653 -0.8472 -0.4610  0.5419
   15MOL   C254 7282   2.341   3.874   3.677 -0.2389  0.1919 -0.2135
   15MOL   C255 7283   2.537   3.776   3.549  0.9118 -0.1156 -0.8511
   15MOL   O256 7284   2.569   3.703   3.455  0.0034  0.6453 -0.2497
   15MOL   O257 7285   2.602   3.892   3.560 -0.0564  0.4655 -0.3624
   15MOL   C258 7286   2.722   3.918   3.482  0.3140 -0.3198  0.9331
   15MOL   C259 7287   2.693   4.014   3.371  0.0963 -0.2611  0.3283
   15MOL   C260 7288   2.755   4.140   3.365 -0.2391  0.1261  0.1283
   15MOL   C261 7289   2.727   4.227   3.256 -1.1101 -0.1689  0.2240
   15MOL   C262 7290   2.630   4.188   3.162 -0.2207  0.0673  0.7501
   15MOL   C263 7291   2.566   4.062   3.167 -0.3141  0.1140  0.9100
   15MOL   C264 7292   2.601   3.975   3.274  0.6337 -0.4475 -0.6424
   15MOL   H265 7293   2.392   3.556   3.547 -1.1471  0.5681 -1.2759
   15MOL   H266 7294   2.305   3.576   3.689  0.9131 -1.9022 -0.0456
   15MOL   H267 7295   2.384   3.954   3.737  3.5229  0.1455 -2.6571
   15MOL   H268 7296   2.258   3.845   3.742  1.8785  1.4396  3.1906
   15MOL   H269 7297   2.295   3.908   3.584  0.1979 -1.4574 -1.0608
   15MOL   H270 7298   2.801   3.955   3.547 -1.5281  1.4007  2.2439
   15MOL   H271 7299   2.764   3.834   3.427  1.7030 -0.1047  1.6634
   15MOL   H272 7300   2.821   4.173   3.444 -0.9199  4.6126 -1.0175
   15MOL   H273 7301   2.787   4.316   3.247 -0.7242 -0.3316  1.0911
   15MOL   H274 7302   2.590   4.269   3.103 -0.1815  0.0817  0.7443
   15MOL   H275 7303   2.484   4.039   3.101  0.9730 -1.1604 -0.3010
   15MOL   H276 7304   2.560   3.875   3.282  1.8146 -0.9201 -0.4368
   15MOL   C277 7305   2.496   3.725   3.793 -0.3701 -0.2131  0.9704
   15MOL   C278 7306   2.602   3.613   3.829 -0.6163 -0.2094 -0.3840
   15MOL   C279 7307   2.736   3.644   3.756  0.3236  0.0156  0.3824
   15MOL   C280 7308   2.545   3.468   3.782  0.3857 -1.2679  0.7784
   15MOL   O281 7309   2.469   3.400   3.853 -0.0169  0.2434 -0.4104
   15MOL   O282 7310   2.576   3.434   3.656 -0.0016 -0.4187 -0.4803
   15MOL   C283 7311   2.524   3.315   3.595  0.4394  0.4415  0.0708
   15MOL   C284 7312   2.545   3.303   3.446  0.5477  0.1873  0.5366
   15MOL   C285 7313   2.634   3.387   3.374  0.3108  0.0803 -0.2297
   15MOL   C286 7314   2.655   3.369   3.240 -0.8657 -0.0317  1.0777
   15MOL   C287 7315   2.581   3.268   3.171 -0.4463 -0.4102 -0.0967
   15MOL   C288 7316   2.487   3.189   3.236  0.4469  0.5987  0.6616
   15MOL   C289 7317   2.464   3.217   3.373  0.6953  0.1818  0.2616
   15MOL   H290 7318   2.406   3.710   3.854 -1.9904 -3.9335 -2.1199
   15MOL   H291 7319   2.547   3.819   3.814 -0.3730  0.1123 -0.4833
   15MOL   H292 7320   2.824   3.590   3.791  1.0113  0.5774 -0.4701
   15MOL   H293 7321   2.760   3.750   3.766 -0.8672  0.5185 -1.6015
   15MOL   H294 7322   2.737   3.625   3.648  0.6574  0.7798  0.2506
   15MOL   H295 7323   2.579   3.230   3.634 -0.4343 -0.0042  0.3262
   15MOL   H296 7324   2.419   3.304   3.621  0.2773  2.9019  0.6251
   15MOL   H297 7325   2.689   3.459   3.433 -1.7243  0.1364  1.6767
   15MOL   H298 7326   2.737   3.420   3.192 -0.5418  0.6151  2.3181
   15MOL   H299 7327   2.604   3.249   3.067 -1.2237 -0.8974 -0.1778
   15MOL   H300 7328   2.426   3.111   3.192 -0.7852  1.2172  1.2399
   15MOL   H301 7329   2.386   3.163   3.424  1.1117 -1.0267 -0.3705
   15MOL   C302 7330   2.626   3.611   3.985  0.5759 -0.2759 -0.8530
   15MOL   C303 7331   2.667   3.732   4.080  0.9518  0.2010 -0.2999
   15MOL   C304 7332   2.551   3.844   4.107 -0.2520 -0.3303 -0.3926
   15MOL   C305 7333   2.798   3.798   4.023 -0.3780  0.3613 -0.2085
   15MOL   O306 7334   2.912   3.752   4.034 -0.2491 -0.2839 -0.8244
   15MOL   O307 7335   2.773   3.913   3.945 -0.9551 -0.4584  0.0587
   15MOL   C308 7336   2.875   3.983   3.874 -0.1726 -0.3017  0.3565
   15MOL   C309 7337   2.818   4.105   3.803  0.1732  0.4352  0.8096
   15MOL   C310 7338   2.680   4.117   3.773 -0.6608  1.1517  0.2076
   15MOL   C311 7339   2.640   4.227   3.701 -0.7416 -0.0989  0.1534
   15MOL   C312 7340   2.728   4.333   3.666  1.1623  0.0151 -0.2418
   15MOL   C313 7341   2.870   4.320   3.696  1.3056 -0.0277 -0.5471
   15MOL   C314 7342   2.911   4.204   3.762 -0.1417  0.0212 -0.0444
   15MOL   H315 7343   2.706   3.536   3.985  0.0769 -0.8364  1.1448
   15MOL   H316 7344   2.546   3.551   4.030 -0.8280  0.7949 -1.8982
   15MOL   H317 7345   2.457   3.791   4.126  0.4706 -2.2495 -1.9092
   15MOL   H318 7346   2.537   3.910   4.022 -2.0775 -0.5435 -0.2738
   15MOL   H319 7347   2.566   3.906   4.194 -0.2125 -1.1306  0.1802
   15MOL   H320 7348   2.951   4.022   3.942 -0.2757  1.6710 -0.6304
   15MOL   H321 7349   2.922   3.915   3.803  3.4201  3.5006 -1.1179
   15MOL   H322 7350   2.611   4.041   3.809  1.3803 -0.1651  1.4304
   15MOL   H323 7351   2.537   4.237   3.670 -1.1500 -0.2000  1.4720
   15MOL   H324 7352   2.694   4.423   3.617  0.2296  0.2209  0.7735
   15MOL   H325 7353   2.925   4.405   3.661  2.2143 -0.0705  0.7623
   15MOL   H326 7354   3.015   4.192   3.790 -0.1862 -0.4959 -0.1050
   15MOL   C327 7355   2.707   3.660   4.214 -0.0138 -0.9535 -0.7279
   15MOL   C328 7356   2.732   3.731   4.352 -0.0721 -0.5973  0.1983
   15MOL   C329 7357   2.596   3.754   4.426 -0.3539 -0.7292  0.4113
   15MOL   C330 7358   2.808   3.864   4.336  0.4218  0.1892  0.3683
   15MOL   O331 7359   2.752   3.974   4.351 -0.0442 -0.6453  0.2063
   15MOL   O332 7360   2.935   3.848   4.306 -0.0622 -0.1814  0.1059
   15MOL   C333 7361   3.024   3.968   4.282 -0.0157 -0.1851  0.1016
   15MOL   C334 7362   3.164   3.956   4.345  0.6080 -0.0937  0.1055
   15MOL   C335 7363   3.237   4.080   4.361 -0.4286 -0.6851  0.9887
   15MOL   C336 7364   3.376   4.076   4.402  0.0224  0.2318  0.3704
   15MOL   C337 7365   3.432   3.948   4.436  1.1220 -0.0832 -0.3469
   15MOL   C338 7366   3.366   3.826   4.406 -0.2477 -0.1489  0.9213
   15MOL   C339 7367   3.227   3.832   4.361 -0.1027 -0.0505  1.5018
   15MOL   H340 7368   2.790   3.592   4.197  0.3529 -1.2109  1.8163
   15MOL   H341 7369   2.620   3.597   4.236  0.9929 -3.0604 -2.6305
   15MOL   H342 7370   2.512   3.795   4.370 -0.1923  1.3118  1.6237
   15MOL   H343 7371   2.597   3.815   4.516 -2.6366 -0.9015  0.5703
   15MOL   H344 7372   2.549   3.661   4.458 -0.3720 -0.9061 -0.1213
   15MOL   H345 7373   3.031   3.981   4.174  1.0217  1.2197  0.3251
   15MOL   H346 7374   2.977   4.056   4.327  1.8664  0.7653  0.2627
   15MOL   H347 7375   3.197   4.179   4.346 -0.2247 -0.6357  0.7604
   15MOL   H348 7376   3.429   4.168   4.419  2.0384 -1.0777  1.4009
   15MOL   H349 7377   3.528   3.946   4.486  1.2699  0.6149 -0.6028
   15MOL   H350 7378   3.418   3.732   4.414  1.2664  0.7335  1.4210
   15MOL   H351 7379   3.180   3.741   4.327  1.5969 -0.3584 -0.1593
   15MOL   C352 7380   2.820   3.627   4.429 -0.2306  0.3752  0.1537
   15MOL   C353 7381   2.874   3.623   4.581 -0.2786 -0.5300  0.4829
   15MOL   C354 7382   2.986   3.519   4.584 -0.7624  0.9352  0.4867
   15MOL   C355 7383   2.760   3.569   4.668  0.0006 -0.2782  0.0721
   15MOL   O356 7384   2.736   3.450   4.690 -0.1713  0.1406 -0.0022
   15MOL   O357 7385   2.668   3.665   4.706 -0.1496 -0.1537 -0.0229
   15MOL   C358 7386   2.549   3.603   4.763 -0.7986 -0.5512  0.1342
   15MOL   C359 7387   2.451   3.714   4.804 -0.1018 -0.1350  0.4706
   15MOL   C360 7388   2.504   3.841   4.852  0.4084  0.3777  0.2262
   15MOL   C361 7389   2.425   3.952   4.896 -0.5693  0.1693 -0.2026
   15MOL   C362 7390   2.290   3.933   4.894 -0.3306 -0.0292 -0.0542
   15MOL   C363 7391   2.234   3.811   4.852  0.1785  0.6383 -0.7156
   15MOL   C364 7392   2.311   3.702   4.807 -0.9840  0.0804  0.2239
   15MOL   H365 7393   2.912   3.609   4.373  0.3838  1.1148  0.9196
   15MOL   H366 7394   2.764   3.534   4.417  2.0813 -0.8454 -1.7900
   15MOL   H367 7395   2.965   3.412   4.588  1.5597  0.5057  1.9602
   15MOL   H368 7396   3.057   3.528   4.666  0.0120 -1.4574  0.1051
   15MOL   H369 7397   3.052   3.544   4.500  0.6490 -1.5092  0.8160
   15MOL   H370 7398   2.496   3.533   4.698 -0.8217  0.5882 -1.0742
   15MOL   H371 7399   2.567   3.551   4.857 -1.7617  1.4717  1.4850
   15MOL   H372 7400   2.607   3.872   4.861  0.9778 -0.5731 -2.4710
   15MOL   H373 7401   2.469   4.041   4.938  0.7781  0.2819 -1.8058
   15MOL   H374 7402   2.235   4.021   4.926  0.1117  0.7171 -1.3287
   15MOL   H375 7403   2.127   3.797   4.854  0.2162 -0.0985 -2.7928
   15MOL   H376 7404   2.251   3.615   4.781 -1.6199  0.5492  0.0967
   15MOL   C377 7405   2.925   3.767   4.615 -0.1661  0.8314  0.0138
   15MOL   C378 7406   3.002   3.797   4.753 -0.0377  0.2158 -0.4863
   15MOL   C379 7407   2.960   3.708   4.862  0.2282  0.4349  0.5425
   15MOL   C380 7408   2.963   3.942   4.784 -1.4815 -0.0703  0.4394
   15MOL   O381 7409   2.881   3.972   4.871 -0.2188  0.1240 -0.5560
   15MOL   O382 7410   3.018   4.037   4.690  0.3946 -1.0019  0.0014
   15MOL   C383 7411   2.976   4.171   4.698 -0.1770 -0.1730 -0.5615
   15MOL   C384 7412   3.015   4.257   4.579 -0.5071 -0.3241 -0.6523
   15MOL   C385 7413   2.931   4.271   4.466  0.8162  0.0179 -0.2711
   15MOL   C386 7414   2.955   4.344   4.353 -0.8946 -0.2992  0.0789
   15MOL   C387 7415   3.077   4.421   4.350 -0.0582  0.2788  0.3502
   15MOL   C388 7416   3.165   4.413   4.466  1.1870  0.3914  0.0471
   15MOL   C389 7417   3.137   4.333   4.575 -0.3685  0.5759 -0.5872
   15MOL   H390 7418   2.841   3.834   4.602  0.0920  1.0163 -0.7452
   15MOL   H391 7419   2.997   3.793   4.537  1.3699 -1.7956  0.4912
   15MOL   H392 7420   2.971   3.601   4.845  0.7751  0.1911  2.3391
   15MOL   H393 7421   2.854   3.723   4.880  0.0312 -0.5203  0.2188
   15MOL   H394 7422   3.011   3.744   4.951  1.1344 -2.1215  1.1141
   15MOL   H395 7423   2.871   4.164   4.725 -0.1608 -0.4524 -0.5635
   15MOL   H396 7424   3.012   4.213   4.792 -0.4563  0.0295 -0.5471
   15MOL   H397 7425   2.836   4.220   4.469  0.3163  0.4042 -5.2982
   15MOL   H398 7426   2.887   4.354   4.270 -0.9860  3.2005  0.5248
   15MOL   H399 7427   3.095   4.472   4.257  0.9995  0.0232  0.4110
   15MOL   H400 7428   3.258   4.467   4.462  0.6270  1.3547 -0.2880
   15MOL   H401 7429   3.217   4.314   4.645  1.8014 -1.2735 -3.4889
   15MOL   C402 7430   3.161   3.782   4.718 -1.0349  0.4476  0.3900
   15MOL   C403 7431   3.285   3.756   4.819 -0.4118 -0.3543 -0.1905
   15MOL   C404 7432   3.283   3.612   4.879 -0.3916  0.5182 -0.0925
   15MOL   C405 7433   3.272   3.858   4.939 -0.3410  0.1170  0.9442
   15MOL   O406 7434   3.270   3.821   5.057  0.2728  0.0552 -0.0729
   15MOL   O407 7435   3.244   3.980   4.895 -0.0511  0.3034  0.0263
   15MOL   C408 7436   3.216   4.079   4.996 -0.3013 -0.3370  0.2364
   15MOL   C409 7437   3.250   4.222   4.962 -0.2892  0.1543 -0.3323
   15MOL   C410 7438   3.344   4.254   4.865  0.5412 -0.3164  0.1996
   15MOL   C411 7439   3.378   4.393   4.842  0.5230 -0.1463  0.3333
   15MOL   C412 7440   3.335   4.497   4.925  0.0417  0.5067  0.0470
   15MOL   C413 7441   3.227   4.464   5.009  0.3180  0.2425  0.0914
   15MOL   C414 7442   3.189   4.330   5.034  0.3677  0.0810 -0.8632
   15MOL   H415 7443   3.195   3.864   4.655 -3.0189 -2.0078 -4.1305
   15MOL   H416 7444   3.166   3.695   4.652  1.4413  1.9576 -1.4836
   15MOL   H417 7445   3.190   3.600   4.934  0.3782  4.8914  2.3901
   15MOL   H418 7446   3.359   3.586   4.954 -0.8568  3.5023  1.4788
   15MOL   H419 7447   3.289   3.545   4.793  0.7180 -2.5969  2.2787
   15MOL   H420 7448   3.112   4.075   5.029 -0.8306  2.3280 -1.0586
   15MOL   H421 7449   3.278   4.054   5.082 -0.2381 -0.9661  0.0169
   15MOL   H422 7450   3.384   4.176   4.801  0.0059  0.7821 -1.4962
   15MOL   H423 7451   3.450   4.415   4.765  1.8008 -0.9681  1.2748
   15MOL   H424 7452   3.374   4.595   4.902 -1.8562  0.8683 -1.7947
   15MOL   H425 7453   3.182   4.548   5.059 -0.8033 -0.4617  0.2961
   15MOL   H426 7454   3.124   4.302   5.116  0.2841  0.7747 -0.6938
   15MOL   C427 7455   3.421   3.771   4.743 -0.3219  0.3153  1.4942
   15MOL   C428 7456   3.567   3.796   4.802 -0.1815 -0.6601 -0.5727
   15MOL   C429 7457   3.578   3.937   4.873 -0.8426 -0.9903  0.4020
   15MOL   C430 7458   3.685   3.794   4.697 -1.1834 -0.4821 -0.0156
   15MOL   O431 7459   3.771   3.881   4.684  0.0054  0.0880  0.2835
   15MOL   O432 7460   3.686   3.672   4.622 -0.3106 -0.0676  0.0136
   15MOL   C433 7461   3.767   3.668   4.509 -0.3575 -0.0477  1.2995
   15MOL   C434 7462   3.843   3.532   4.485 -0.6389 -0.4912 -0.0656
   15MOL   C435 7463   3.794   3.430   4.400  0.3382 -0.2415  0.3368
   15MOL   C436 7464   3.860   3.306   4.398  0.3726 -0.6390 -0.8051
   15MOL   C437 7465   3.981   3.295   4.465  0.5744  0.0756 -0.2170
   15MOL   C438 7466   4.041   3.407   4.535  0.0690  0.7901 -0.2553
   15MOL   C439 7467   3.962   3.520   4.551  0.4274  0.5905  0.3132
   15MOL   H440 7468   3.408   3.859   4.679  0.5366 -0.7354 -0.1729
   15MOL   H441 7469   3.428   3.682   4.680 -1.8164  2.4484 -1.8815
   15MOL   H442 7470   3.542   4.008   4.799  0.7910 -0.7454 -0.1746
   15MOL   H443 7471   3.682   3.961   4.895 -0.5315 -1.2091 -0.7818
   15MOL   H444 7472   3.514   3.941   4.962  0.8793 -0.3376  1.6495
   15MOL   H445 7473   3.712   3.682   4.415  0.4486 -1.3868  0.6062
   15MOL   H446 7474   3.846   3.743   4.504 -1.0469  0.6958  1.4078
   15MOL   H447 7475   3.701   3.449   4.350 -0.7891 -1.2992  1.9618
   15MOL   H448 7476   3.823   3.229   4.332 -0.0037 -1.8644  0.7916
   15MOL   H449 7477   4.033   3.202   4.448 -0.8784 -1.2585  2.4110
   15MOL   H450 7478   4.140   3.402   4.578  0.5080 -0.4561 -1.3691
   15MOL   H451 7479   4.003   3.608   4.600  0.7257  0.2948  0.5913
   15MOL   C452 7480   3.586   3.686   4.911 -0.0623  0.7459  0.6874
   15MOL   C453 7481   3.715   3.641   4.984  0.0995  0.2240 -0.8872
   15MOL   C454 7482   3.803   3.764   5.025 -0.1744  0.0934  0.2576
   15MOL   C455 7483   3.799   3.551   4.890  0.4171  0.2859  0.5182
   15MOL   O456 7484   3.921   3.568   4.858 -0.0334  0.0315 -0.2448
   15MOL   O457 7485   3.726   3.444   4.847 -0.1272 -0.5117 -0.1984
   15MOL   C458 7486   3.791   3.330   4.794 -0.6715 -0.0158  0.7274
   15MOL   C459 7487   3.822   3.228   4.907  1.0827  0.2607  0.0658
   15MOL   C460 7488   3.725   3.136   4.948  0.2182  0.6773  0.1329
   15MOL   C461 7489   3.739   3.043   5.048  0.4080 -0.3448  0.0499
   15MOL   C462 7490   3.863   3.033   5.114 -0.0363  0.3516 -0.0978
   15MOL   C463 7491   3.961   3.132   5.079  0.4797  0.7084  0.1553
   15MOL   C464 7492   3.942   3.226   4.976  0.0826 -0.1561 -0.0750
   15MOL   H465 7493   3.542   3.598   4.863 -2.6871  1.6551  1.3387
   15MOL   H466 7494   3.518   3.714   4.992  0.1106  0.7393  0.8331
   15MOL   H467 7495   3.754   3.847   5.077 -1.2159 -0.7960  0.7047
   15MOL   H468 7496   3.840   3.805   4.930 -3.4746 -1.2506 -1.7147
   15MOL   H469 7497   3.896   3.734   5.072 -0.5819 -0.2565  0.8447
   15MOL   H470 7498   3.711   3.286   4.733  0.0977 -2.5280  1.4743
   15MOL   H471 7499   3.876   3.347   4.729  0.1723  2.4605  2.4164
   15MOL   H472 7500   3.633   3.148   4.893 -1.2305 -0.9623  2.1158
   15MOL   H473 7501   3.662   2.970   5.067 -0.7347  0.5650 -1.0467
   15MOL   H474 7502   3.881   2.959   5.191 -0.4425 -1.6784 -1.9231
   15MOL   H475 7503   4.056   3.128   5.132  2.0308  0.2934 -2.5664
   15MOL   H476 7504   4.018   3.297   4.948  1.1740 -1.5396 -0.6511
   15MOL   C477 7505   3.678   3.574   5.122  0.2177 -0.5065 -0.3275
   15MOL   C478 7506   3.786   3.532   5.228  0.0812 -0.2965 -0.1072
   15MOL   C479 7507   3.774   3.388   5.278  0.0897 -0.7421  0.4213
   15MOL   C480 7508   3.795   3.637   5.344  0.0990  0.1981 -0.1601
   15MOL   O481 7509   3.879   3.733   5.345  0.4381 -0.7244 -0.2326
   15MOL   O482 7510   3.694   3.619   5.433 -0.2455  0.0763  0.0380
   15MOL   C483 7511   3.689   3.693   5.554 -0.3845  0.2057 -0.7545
   15MOL   C484 7512   3.793   3.640   5.657 -0.3211 -0.6876  0.0989
   15MOL   C485 7513   3.808   3.710   5.781 -0.2041 -0.3264  0.0329
   15MOL   C486 7514   3.880   3.646   5.884 -0.2569  0.1415 -0.0212
   15MOL   C487 7515   3.926   3.514   5.872 -0.3651 -0.4197  0.1373
   15MOL   C488 7516   3.897   3.443   5.752  0.1780  0.9427  0.5541
   15MOL   C489 7517   3.831   3.506   5.646  0.0866  0.5499 -0.4750
   15MOL   H490 7518   3.606   3.494   5.102 -1.2005  0.9083 -0.9799
   15MOL   H491 7519   3.606   3.637   5.175  1.1991  1.0143 -0.8002
   15MOL   H492 7520   3.775   3.321   5.192 -0.0034  1.5106 -1.3577
   15MOL   H493 7521   3.687   3.368   5.340 -0.2463  1.6311  0.7429
   15MOL   H494 7522   3.861   3.354   5.336 -0.5209 -2.9417  0.1144
   15MOL   H495 7523   3.707   3.800   5.539  1.1982  0.0919  0.2719
   15MOL   H496 7524   3.589   3.676   5.593  0.8393 -4.7285  0.5890
   15MOL   H497 7525   3.768   3.809   5.800 -0.0322 -0.4305  0.9735
   15MOL   H498 7526   3.886   3.695   5.980  2.6535 -0.5016  0.1599
   15MOL   H499 7527   3.981   3.473   5.955  0.1830  0.1517  0.0633
   15MOL   H500 7528   3.929   3.341   5.745 -0.3199  0.9424 -2.2020
   15MOL   H501 7529   3.818   3.461   5.548 -2.4092  1.4404 -0.5993
   15MOL   H502 7530   3.887   3.534   5.187  1.4198 -0.0873  2.9862
   16MOL     C1 7531   1.690   3.578   4.548 -0.3419 -0.4019 -0.1228
   16MOL     C2 7532   1.828   3.607   4.615 -0.4875  0.2862  0.0752
   16MOL     C3 7533   1.793   3.683   4.746  0.1580  0.0787 -0.2518
   16MOL     C4 7534   1.909   3.704   4.524  0.5842  0.4472  0.5475
   16MOL     O5 7535   1.850   3.772   4.431  0.3252  0.0932 -0.6822
   16MOL     O6 7536   2.042   3.710   4.556 -0.3731 -0.3421  0.5878
   16MOL     C7 7537   2.122   3.804   4.483 -0.1601 -0.2169 -0.1954
   16MOL     C8 7538   2.166   3.741   4.355 -0.4198 -0.0995 -0.2412
   16MOL     C9 7539   2.255   3.633   4.341 -0.2445  1.0198 -0.4036
   16MOL    C10 7540   2.284   3.580   4.214 -0.1401  0.2488 -0.1434
   16MOL    C11 7541   2.230   3.639   4.097 -0.9292  0.1018 -0.5626
   16MOL    C12 7542   2.149   3.755   4.109 -0.0176  0.7933 -0.3709
   16MOL    C13 7543   2.122   3.812   4.241  0.1668 -0.1018 -0.8465
   16MOL    H14 7544   1.692   3.515   4.459  0.3836 -1.9328  0.9385
   16MOL    H15 7545   1.624   3.529   4.619 -1.1466  1.6398  0.5686
   16MOL    H16 7546   1.718   3.762   4.735 -0.4864 -0.4695  0.1874
   16MOL    H17 7547   1.888   3.718   4.785  0.5562 -1.9620  0.6226
   16MOL    H18 7548   1.755   3.622   4.828  0.8147  0.6932  0.5131
   16MOL    H19 7549   2.077   3.904   4.481  0.3478  0.0112 -2.9564
   16MOL    H20 7550   2.213   3.809   4.544  0.4692 -0.1312 -1.1235
   16MOL    H21 7551   2.302   3.583   4.425 -1.1397 -0.3209 -0.6779
   16MOL    H22 7552   2.349   3.495   4.199 -0.4070  0.1284 -0.6516
   16MOL    H23 7553   2.264   3.595   4.004 -0.9707 -2.1854  0.4694
   16MOL    H24 7554   2.113   3.811   4.024 -0.8875  2.9573  1.3703
   16MOL    H25 7555   2.066   3.904   4.244 -1.9900 -1.4365  1.6729
   16MOL    H26 7556   1.635   3.670   4.534  1.3883  0.7077  0.1831
   16MOL    C27 7557   1.907   3.477   4.657  0.2144  1.4683 -0.3453
   16MOL    C28 7558   1.933   3.356   4.561  0.2140 -0.4670 -0.6317
   16MOL    C29 7559   1.985   3.399   4.427  0.6068  0.1094  0.2747
   16MOL    C30 7560   1.795   3.280   4.541 -0.3973 -0.3384  0.1628
   16MOL    O31 7561   1.701   3.295   4.616 -0.6597 -0.0537  0.3082
   16MOL    O32 7562   1.804   3.183   4.450  0.6708  0.4869 -0.3443
   16MOL    C33 7563   1.700   3.085   4.437 -0.9862 -0.0070 -0.4978
   16MOL    C34 7564   1.735   2.960   4.372  0.7050  1.1245  0.1015
   16MOL    C35 7565   1.867   2.907   4.365 -0.5170 -0.5585 -0.1056
   16MOL    C36 7566   1.894   2.791   4.294  1.0928  0.5507 -0.4186
   16MOL    C37 7567   1.787   2.717   4.229  0.5291 -0.5814  0.0231
   16MOL    C38 7568   1.655   2.764   4.248  0.0244  0.4732  1.0447
   16MOL    C39 7569   1.631   2.882   4.317 -0.6784 -0.0212 -0.3813
   16MOL    H40 7570   1.854   3.446   4.747  0.3461  1.3065 -0.3234
   16MOL    H41 7571   1.999   3.502   4.710  0.1265  0.4418  0.2897
   16MOL    H42 7572   2.005   3.313   4.363  2.4859  0.6798  0.0662
   16MOL    H43 7573   2.073   3.463   4.430 -0.7001  2.0624 -1.8074
   16MOL    H44 7574   1.923   3.460   4.361  0.1798 -1.2656 -0.6225
   16MOL    H45 7575   1.647   3.057   4.528  1.0362  0.9000  0.9890
   16MOL    H46 7576   1.613   3.120   4.381 -1.1486 -0.2334 -0.3902
   16MOL    H47 7577   1.946   2.969   4.405  0.2521 -1.1312 -0.7195
   16MOL    H48 7578   1.992   2.747   4.293  0.9176  0.0866  1.4314
   16MOL    H49 7579   1.807   2.624   4.178 -0.7542 -1.3580  0.8943
   16MOL    H50 7580   1.570   2.716   4.202 -1.2807  1.6289  2.2305
   16MOL    H51 7581   1.529   2.917   4.328 -0.8950 -1.3355  2.2019
   16MOL    C52 7582   2.043   3.253   4.618  0.1470  0.0233  0.0209
   16MOL    C53 7583   2.048   3.175   4.762  0.4805  0.5601  0.0470
   16MOL    C54 7584   1.900   3.136   4.813 -0.0316 -0.3073 -0.2424
   16MOL    C55 7585   2.111   3.269   4.866 -0.2257  0.2451  0.3950
   16MOL    O56 7586   2.175   3.370   4.834 -0.0927 -0.6745 -0.1172
   16MOL    O57 7587   2.097   3.225   4.991  0.6633 -0.0980  0.0691
   16MOL    C58 7588   2.132   3.294   5.100  0.6634 -0.1206  0.0427
   16MOL    C59 7589   2.254   3.237   5.170  0.2611  0.5510  0.1778
   16MOL    C60 7590   2.387   3.263   5.128  0.3331  0.7683  0.0315
   16MOL    C61 7591   2.493   3.201   5.193  0.1582 -0.2167  0.5618
   16MOL    C62 7592   2.467   3.112   5.300  0.4921  0.1558  0.1544
   16MOL    C63 7593   2.337   3.092   5.346 -0.6483 -0.0957  0.6885
   16MOL    C64 7594   2.234   3.148   5.273  0.1814  0.0881  0.0043
   16MOL    H65 7595   2.143   3.293   4.598 -0.2105 -0.3647 -2.8355
   16MOL    H66 7596   2.039   3.172   4.544 -1.1311 -0.0106  0.1183
   16MOL    H67 7597   1.913   3.096   4.914 -1.7818  0.4420  0.3038
   16MOL    H68 7598   1.845   3.061   4.757 -0.7958 -0.9096  1.2645
   16MOL    H69 7599   1.839   3.227   4.819 -0.5289 -0.7103  1.1875
   16MOL    H70 7600   2.139   3.401   5.084  0.2747  0.2102  2.0102
   16MOL    H71 7601   2.053   3.290   5.175  0.5169  3.0783  0.1355
   16MOL    H72 7602   2.410   3.334   5.049 -2.1521  1.9737  0.3449
   16MOL    H73 7603   2.595   3.228   5.168 -0.3264  0.5800 -0.5714
   16MOL    H74 7604   2.551   3.068   5.352  1.2573  1.2467 -0.1388
   16MOL    H75 7605   2.321   3.028   5.432  0.6192  0.9445  1.7212
   16MOL    H76 7606   2.131   3.125   5.299 -0.2240 -0.2825 -1.8269
   16MOL    C77 7607   2.118   3.037   4.754  0.1847 -0.1516 -0.3476
   16MOL    C78 7608   2.270   3.006   4.707  0.9716  0.0406  0.0486
   16MOL    C79 7609   2.369   3.083   4.804  0.4938 -0.3153 -0.5644
   16MOL    C80 7610   2.274   3.054   4.562 -0.5877 -0.0937 -0.0695
   16MOL    O81 7611   2.215   2.990   4.474 -0.1656 -0.0798 -0.4380
   16MOL    O82 7612   2.342   3.167   4.543  0.3162  0.0142 -0.4255
   16MOL    C83 7613   2.350   3.226   4.412 -0.2836 -0.1043 -0.3866
   16MOL    C84 7614   2.487   3.216   4.351  0.1000 -0.2208 -0.0155
   16MOL    C85 7615   2.601   3.220   4.431 -0.4440 -0.0484 -0.4615
   16MOL    C86 7616   2.730   3.222   4.377 -0.0247 -0.1647 -0.2667
   16MOL    C87 7617   2.752   3.225   4.235 -0.9806 -0.6459 -0.4665
   16MOL    C88 7618   2.634   3.222   4.159  0.2021  0.3978  0.1039
   16MOL    C89 7619   2.508   3.228   4.212 -0.3792  0.0795 -0.0102
   16MOL    H90 7620   2.054   2.978   4.689 -1.0304  0.1785  0.5331
   16MOL    H91 7621   2.109   2.989   4.851 -0.1270 -2.1518 -1.3408
   16MOL    H92 7622   2.347   3.058   4.908 -2.1482  0.3252 -0.9199
   16MOL    H93 7623   2.375   3.190   4.783  0.5097 -0.4790 -1.3878
   16MOL    H94 7624   2.471   3.048   4.792  0.2449 -1.6007  0.8519
   16MOL    H95 7625   2.264   3.224   4.346 -0.9720  1.7854  0.3901
   16MOL    H96 7626   2.358   3.335   4.424  1.1428 -0.0726 -1.4826
   16MOL    H97 7627   2.603   3.226   4.539 -0.8509 -1.8653 -0.3456
   16MOL    H98 7628   2.816   3.227   4.443 -0.8826 -0.7329  0.9043
   16MOL    H99 7629   2.851   3.233   4.193 -1.2016  4.5759 -0.3876
   16MOL   H100 7630   2.662   3.223   4.054  1.8973 -2.0501  0.4730
   16MOL   H101 7631   2.432   3.260   4.142 -2.1972 -2.6945  0.5870
   16MOL   C102 7632   2.283   2.851   4.712 -0.8214 -0.1184  0.7059
   16MOL   C103 7633   2.415   2.767   4.707 -0.2207 -0.1614  0.1286
   16MOL   C104 7634   2.485   2.766   4.848  0.0591 -0.6336 -0.1401
   16MOL   C105 7635   2.504   2.813   4.591 -0.4748 -0.1147  0.0468
   16MOL   O106 7636   2.625   2.837   4.608  0.3194  0.2589  0.3952
   16MOL   O107 7637   2.441   2.802   4.470  0.1932  0.6216 -0.2422
   16MOL   C108 7638   2.497   2.851   4.347  0.2628 -0.7341 -0.6050
   16MOL   C109 7639   2.505   2.765   4.226  0.7051  0.5769 -0.9230
   16MOL   C110 7640   2.598   2.803   4.127 -0.0860  0.1967 -0.3119
   16MOL   C111 7641   2.611   2.726   4.008  0.1979 -0.2214  0.7109
   16MOL   C112 7642   2.530   2.613   3.991 -0.6082 -0.3687  0.2597
   16MOL   C113 7643   2.434   2.574   4.089  0.2231 -0.0309 -0.1887
   16MOL   C114 7644   2.413   2.656   4.201  0.1993 -0.4592  0.4625
   16MOL   H115 7645   2.204   2.810   4.649 -1.9076  0.8946  1.4099
   16MOL   H116 7646   2.245   2.828   4.811  1.1897 -0.3570  1.4630
   16MOL   H117 7647   2.505   2.864   4.892  0.7687 -0.9330  0.2158
   16MOL   H118 7648   2.590   2.737   4.851  0.0085 -0.7225  1.4220
   16MOL   H119 7649   2.440   2.699   4.922 -2.1154  0.5005 -0.3880
   16MOL   H120 7650   2.436   2.938   4.323  1.1856 -0.2678 -1.3156
   16MOL   H121 7651   2.592   2.903   4.366  1.4357 -2.7495 -0.8385
   16MOL   H122 7652   2.666   2.886   4.136  1.0616 -0.5496 -1.9680
   16MOL   H123 7653   2.674   2.766   3.930 -0.0714  1.3858  1.2842
   16MOL   H124 7654   2.538   2.553   3.902 -1.0958 -1.0531  0.6793
   16MOL   H125 7655   2.382   2.480   4.075 -1.7310  0.7254  1.8225
   16MOL   H126 7656   2.322   2.644   4.258 -1.1842  0.4917 -1.4838
   16MOL   C127 7657   2.364   2.618   4.690 -0.0026  0.3228 -0.6164
   16MOL   C128 7658   2.453   2.485   4.676  0.0022 -0.2289 -0.3902
   16MOL   C129 7659   2.347   2.371   4.641  0.1921 -0.7612  0.6910
   16MOL   C130 7660   2.520   2.444   4.814 -0.2634 -0.5209 -0.3271
   16MOL   O131 7661   2.632   2.485   4.848 -0.6350 -0.2018  0.4901
   16MOL   O132 7662   2.427   2.387   4.894 -0.7194  0.0996  0.2294
   16MOL   C133 7663   2.465   2.352   5.025 -0.1017 -0.7326 -0.6864
   16MOL   C134 7664   2.343   2.299   5.102 -0.4408 -0.4144  0.0583
   16MOL   C135 7665   2.311   2.364   5.218  0.0313  0.5907  0.1631
   16MOL   C136 7666   2.199   2.311   5.289  0.2647  0.0679  0.2820
   16MOL   C137 7667   2.126   2.197   5.246 -0.5567 -0.5335 -0.0783
   16MOL   C138 7668   2.170   2.136   5.130 -0.0955 -0.0107 -0.2928
   16MOL   C139 7669   2.286   2.174   5.060 -0.4933 -0.3063 -0.2106
   16MOL   H140 7670   2.300   2.619   4.602 -0.6689  2.0347 -0.1311
   16MOL   H141 7671   2.299   2.592   4.774  0.3381 -0.7805 -0.6804
   16MOL   H142 7672   2.376   2.266   4.640 -0.4087 -0.9545  1.9423
   16MOL   H143 7673   2.318   2.389   4.538 -0.9073 -1.7636  0.8062
   16MOL   H144 7674   2.259   2.373   4.706 -0.2754  0.9908  0.0099
   16MOL   H145 7675   2.545   2.278   5.021 -0.2133 -1.0105  1.3336
   16MOL   H146 7676   2.504   2.438   5.080 -2.4509  0.2586 -0.5447
   16MOL   H147 7677   2.363   2.455   5.243  1.8887 -0.8427  1.6639
   16MOL   H148 7678   2.164   2.370   5.372  0.9914  0.9726 -0.0523
   16MOL   H149 7679   2.039   2.166   5.302 -2.3090  1.7652 -1.4341
   16MOL   H150 7680   2.122   2.043   5.102  1.7433 -0.5458 -1.7990
   16MOL   H151 7681   2.330   2.131   4.971  1.6991  0.2479  0.5842
   16MOL   C152 7682   2.563   2.489   4.561 -0.2721 -0.4365  1.0461
   16MOL   C153 7683   2.639   2.370   4.495 -0.1625 -0.7742 -0.2040
   16MOL   C154 7684   2.540   2.307   4.390  0.0704 -0.6366  0.1682
   16MOL   C155 7685   2.681   2.261   4.602 -0.9586  0.2356 -0.0987
   16MOL   O156 7686   2.623   2.152   4.616 -0.5673 -0.0096 -0.5987
   16MOL   O157 7687   2.787   2.302   4.664 -0.2840  0.8194 -0.3824
   16MOL   C158 7688   2.843   2.233   4.777 -0.3137 -0.4538 -0.9731
   16MOL   C159 7689   2.963   2.308   4.844 -0.3876 -0.6387 -0.5902
   16MOL   C160 7690   2.965   2.448   4.835 -0.0746  0.4632 -0.0539
   16MOL   C161 7691   3.066   2.518   4.898 -0.4101 -0.0449  0.3615
   16MOL   C162 7692   3.167   2.455   4.975  0.8891 -0.1800 -0.6883
   16MOL   C163 7693   3.168   2.316   4.976 -0.0272  0.5153  0.7702
   16MOL   C164 7694   3.061   2.245   4.922 -0.5665 -0.2033 -0.1558
   16MOL   H165 7695   2.635   2.556   4.607  1.5078 -0.4456 -1.6032
   16MOL   H166 7696   2.519   2.551   4.482 -0.6667 -1.6674  0.2816
   16MOL   H167 7697   2.467   2.242   4.438 -0.9468 -1.2057 -2.1059
   16MOL   H168 7698   2.592   2.246   4.316  2.9563  2.3285 -0.3934
   16MOL   H169 7699   2.491   2.395   4.348  0.7365 -0.1631  0.3810
   16MOL   H170 7700   2.762   2.244   4.849  0.6481 -0.7574  0.1709
   16MOL   H171 7701   2.869   2.128   4.763  3.5951  0.5080 -1.6512
   16MOL   H172 7702   2.895   2.502   4.772 -0.2926  0.6527  0.3535
   16MOL   H173 7703   3.061   2.626   4.895 -0.6059 -0.0678 -0.1957
   16MOL   H174 7704   3.241   2.507   5.034 -1.1575  1.5751  0.4364
   16MOL   H175 7705   3.247   2.275   5.037 -0.7277 -3.5660 -0.9420
   16MOL   H176 7706   3.062   2.138   4.937 -0.0592 -0.3236 -1.0399
   16MOL   C177 7707   2.761   2.452   4.428 -0.1313  0.2318  0.4428
   16MOL   C178 7708   2.856   2.388   4.326 -0.1147 -0.9921 -0.5101
   16MOL   C179 7709   2.801   2.415   4.187  0.1875  0.0076  0.4700
   16MOL   C180 7710   2.894   2.238   4.336  0.1156  0.1085 -0.3969
   16MOL   O181 7711   2.873   2.154   4.247 -0.0924  0.1568 -0.2344
   16MOL   O182 7712   2.961   2.211   4.448  0.2683  0.5031  0.4046
   16MOL   C183 7713   3.010   2.080   4.474 -0.1394 -0.4500  0.2874
   16MOL   C184 7714   3.130   2.087   4.560  0.1075  0.6705  0.1338
   16MOL   C185 7715   3.237   2.168   4.521  0.0367 -0.7335  0.4411
   16MOL   C186 7716   3.357   2.160   4.596  0.3767 -0.3247 -0.0997
   16MOL   C187 7717   3.360   2.077   4.713  0.4649 -0.1870  0.0703
   16MOL   C188 7718   3.250   2.001   4.751 -0.1377 -0.3270  0.0323
   16MOL   C189 7719   3.137   1.998   4.671 -0.0567  0.2014  0.6957
   16MOL   H190 7720   2.814   2.491   4.514 -0.0678  1.3081 -0.0790
   16MOL   H191 7721   2.724   2.543   4.381 -0.8562  0.4338  1.3891
   16MOL   H192 7722   2.782   2.517   4.153 -0.3341  0.0424  0.8598
   16MOL   H193 7723   2.708   2.359   4.176 -1.6352  2.7977  1.1194
   16MOL   H194 7724   2.857   2.374   4.103 -2.2635 -1.0931 -0.6805
   16MOL   H195 7725   2.940   2.007   4.516 -0.7296  0.5603  1.0797
   16MOL   H196 7726   3.036   2.034   4.379 -0.3168  2.8887 -1.4777
   16MOL   H197 7727   3.225   2.231   4.434  1.6942  0.5989  1.1375
   16MOL   H198 7728   3.443   2.212   4.558 -0.2278  0.2004 -0.7507
   16MOL   H199 7729   3.456   2.066   4.762  0.9636 -4.8061 -1.7322
   16MOL   H200 7730   3.243   1.938   4.839 -2.7145  0.1504  0.2112
   16MOL   H201 7731   3.059   1.924   4.675 -0.9988  1.1166 -0.2592
   16MOL   C202 7732   2.994   2.470   4.340 -0.4339 -0.0698  0.3735
   16MOL   C203 7733   3.006   2.626   4.295  0.6345  0.0327 -0.3037
   16MOL   C204 7734   2.895   2.713   4.344 -0.0219 -0.0906 -0.7282
   16MOL   C205 7735   3.017   2.634   4.143  0.3769 -0.0272  0.7527
   16MOL   O206 7736   3.041   2.532   4.069  0.0267  0.5793 -0.4024
   16MOL   O207 7737   3.000   2.752   4.088 -0.5322  0.2416 -0.1958
   16MOL   C208 7738   2.992   2.761   3.944 -0.2803 -0.1458 -0.1637
   16MOL   C209 7739   2.969   2.900   3.889  0.2020  0.2841  0.1128
   16MOL   C210 7740   2.952   3.012   3.979  0.3761 -0.0397  0.5457
   16MOL   C211 7741   2.934   3.143   3.930  0.6930  0.4315  0.4248
   16MOL   C212 7742   2.923   3.163   3.787  0.1584 -0.0136  0.0840
   16MOL   C213 7743   2.945   3.058   3.700 -0.4070 -1.2860  0.1169
   16MOL   C214 7744   2.975   2.929   3.746  0.2702  0.5618  0.2286
   16MOL   H215 7745   3.065   2.412   4.282 -0.8316 -1.8140  1.5946
   16MOL   H216 7746   3.029   2.465   4.443  2.7672  2.4156 -0.4859
   16MOL   H217 7747   2.860   2.690   4.445 -2.1467  1.6501 -1.0390
   16MOL   H218 7748   2.810   2.708   4.276 -0.2868  0.2639 -0.4230
   16MOL   H219 7749   2.915   2.820   4.345 -0.0761 -0.0834 -0.2056
   16MOL   H220 7750   3.086   2.721   3.906 -0.2821 -0.1769 -0.1353
   16MOL   H221 7751   2.909   2.696   3.916  0.1737 -0.7610 -0.0991
   16MOL   H222 7752   2.960   2.988   4.084  0.4778 -1.7088  0.1748
   16MOL   H223 7753   2.931   3.236   3.985 -1.5511  2.4882 -2.9737
   16MOL   H224 7754   2.896   3.259   3.744  0.2781 -0.2098 -0.4313
   16MOL   H225 7755   2.942   3.074   3.594 -0.5177 -2.5540 -0.0805
   16MOL   H226 7756   2.997   2.847   3.679 -1.2157  0.7042 -0.4392
   16MOL   C227 7757   3.147   2.678   4.339 -0.1255 -0.1257 -0.5279
   16MOL   C228 7758   3.181   2.727   4.485  0.1958  0.5552 -0.7675
   16MOL   C229 7759   3.129   2.637   4.600  0.0116  0.5925 -0.3921
   16MOL   C230 7760   3.123   2.874   4.501 -0.6216  0.4963 -0.0137
   16MOL   O231 7761   3.075   2.912   4.610  0.3581 -0.0872 -0.2834
   16MOL   O232 7762   3.134   2.954   4.392 -0.3431 -0.3445  0.1607
   16MOL   C233 7763   3.083   3.080   4.405  0.2042  0.8946  0.1237
   16MOL   C234 7764   3.182   3.177   4.468 -0.1517 -0.1467 -0.2420
   16MOL   C235 7765   3.276   3.247   4.387  0.2535 -0.1416 -0.1649
   16MOL   C236 7766   3.369   3.333   4.447  0.3644 -0.2198  0.0809
   16MOL   C237 7767   3.370   3.355   4.592 -0.5916  0.3891 -0.0603
   16MOL   C238 7768   3.274   3.285   4.668 -0.7292 -0.2505  0.7708
   16MOL   C239 7769   3.169   3.206   4.609 -0.1635  0.8610  1.0258
   16MOL   H240 7770   3.163   2.757   4.267 -2.4980  0.7108 -0.1899
   16MOL   H241 7771   3.209   2.594   4.306  0.9102  0.5077 -0.2118
   16MOL   H242 7772   3.150   2.690   4.693 -0.3918 -0.1804  0.1424
   16MOL   H243 7773   3.161   2.533   4.603 -2.6462 -0.2426  0.5389
   16MOL   H244 7774   3.021   2.627   4.591 -0.3183  1.9384  1.5319
   16MOL   H245 7775   3.048   3.130   4.314  0.3422  3.7397  1.5568
   16MOL   H246 7776   2.991   3.079   4.464 -0.8551 -0.6221 -1.5096
   16MOL   H247 7777   3.275   3.244   4.279 -1.4765  3.7393 -0.3168
   16MOL   H248 7778   3.446   3.386   4.392  1.3233 -0.7998  0.8589
   16MOL   H249 7779   3.442   3.417   4.642 -0.2300 -2.0941  2.6647
   16MOL   H250 7780   3.262   3.302   4.774  0.6585 -0.3252  0.9511
   16MOL   H251 7781   3.095   3.160   4.673  1.1067 -1.5169  0.8526
   16MOL   C252 7782   3.338   2.743   4.500  0.4502  0.3749  0.3913
   16MOL   C253 7783   3.438   2.621   4.540 -0.2772 -1.1396  0.1996
   16MOL   C254 7784   3.417   2.501   4.445 -0.1073  0.1208 -0.0961
   16MOL   C255 7785   3.430   2.582   4.691 -0.0895 -0.2423 -0.2483
   16MOL   O256 7786   3.369   2.652   4.768 -0.5969 -0.0908 -0.2043
   16MOL   O257 7787   3.508   2.481   4.724  0.0741  0.6279 -0.1998
   16MOL   C258 7788   3.491   2.410   4.845  0.5783 -0.5380  0.3579
   16MOL   C259 7789   3.611   2.331   4.897  0.7783  0.2762 -0.1521
   16MOL   C260 7790   3.735   2.390   4.882  0.8801 -1.4695  0.1137
   16MOL   C261 7791   3.848   2.317   4.931 -0.2967 -0.2552 -0.8247
   16MOL   C262 7792   3.833   2.193   4.993 -0.4971  0.2786 -0.1777
   16MOL   C263 7793   3.706   2.137   5.011  0.1734  0.4306  1.0370
   16MOL   C264 7794   3.592   2.207   4.969  0.0550  0.0615  0.1191
   16MOL   H265 7795   3.353   2.828   4.568  0.7851 -0.9734  2.0327
   16MOL   H266 7796   3.370   2.782   4.403 -2.6616  0.0210 -0.8678
   16MOL   H267 7797   3.318   2.458   4.463 -1.0947  2.1239 -0.5606
   16MOL   H268 7798   3.488   2.421   4.468 -2.2683 -1.4857  1.2249
   16MOL   H269 7799   3.417   2.515   4.337 -0.7691  2.3510  0.1772
   16MOL   H270 7800   3.450   2.478   4.920  1.5435 -1.8183  2.0644
   16MOL   H271 7801   3.406   2.342   4.839  0.2864 -0.1551  0.0868
   16MOL   H272 7802   3.739   2.491   4.843  0.7941 -1.0919  1.0795
   16MOL   H273 7803   3.949   2.349   4.910 -0.3383  2.5880  2.7450
   16MOL   H274 7804   3.926   2.140   5.010 -0.1673  0.7914 -0.3575
   16MOL   H275 7805   3.696   2.039   5.056 -1.4223  0.0128 -0.1917
   16MOL   H276 7806   3.495   2.165   4.993  1.1008 -1.6367  1.4577
   16MOL   C277 7807   3.584   2.682   4.517  0.0802 -0.9416  0.0622
   16MOL   C278 7808   3.661   2.804   4.593  0.0363  0.1634  0.0206
   16MOL   C279 7809   3.642   2.793   4.744  0.0045  0.3431  0.0563
   16MOL   C280 7810   3.600   2.934   4.546  0.1609 -0.1075  0.0621
   16MOL   O281 7811   3.558   3.022   4.621  0.7922  0.2743 -0.0635
   16MOL   O282 7812   3.591   2.938   4.415 -0.2966  0.5843  0.4815
   16MOL   C283 7813   3.542   3.050   4.350 -0.2145  1.2504 -0.7813
   16MOL   C284 7814   3.558   3.028   4.200  0.7794 -0.2144  0.4090
   16MOL   C285 7815   3.442   3.007   4.128 -0.0593  0.0854 -0.7409
   16MOL   C286 7816   3.451   3.000   3.989  0.0937 -0.1237 -0.6471
   16MOL   C287 7817   3.576   2.989   3.926 -0.6497  0.8261 -0.0254
   16MOL   C288 7818   3.694   2.984   4.000 -0.5351 -0.7275  0.0527
   16MOL   C289 7819   3.683   3.015   4.140 -0.0245  0.1701 -0.6456
   16MOL   H290 7820   3.585   2.697   4.409  2.5231 -0.7064  0.0908
   16MOL   H291 7821   3.642   2.593   4.538 -1.2398 -1.5300  1.2922
   16MOL   H292 7822   3.704   2.852   4.811  0.8251 -1.9965  1.4186
   16MOL   H293 7823   3.664   2.694   4.784  0.4105  0.5908  0.4521
   16MOL   H294 7824   3.537   2.818   4.762  0.5585  1.8363  1.3472
   16MOL   H295 7825   3.438   3.066   4.380 -0.5576  0.3513 -1.4674
   16MOL   H296 7826   3.601   3.137   4.376 -0.0991  0.3088  2.3110
   16MOL   H297 7827   3.347   3.013   4.179 -0.9559  0.6995 -2.4661
   16MOL   H298 7828   3.367   2.996   3.922 -0.0192  0.9568 -0.5723
   16MOL   H299 7829   3.578   2.962   3.822  0.4630  0.6901  0.0211
   16MOL   H300 7830   3.791   2.955   3.963 -1.1134 -0.6740 -1.5297
   16MOL   H301 7831   3.776   3.020   4.195 -0.9946  0.2068  1.0044
   16MOL   C302 7832   3.812   2.802   4.557  0.1867  0.3029  0.3982
   16MOL   C303 7833   3.939   2.869   4.626 -0.3343 -0.6636  1.0479
   16MOL   C304 7834   3.904   3.022   4.641 -0.1766 -0.3365  0.2260
   16MOL   C305 7835   4.053   2.853   4.523 -0.0411 -0.3891 -0.1191
   16MOL   O306 7836   4.104   2.947   4.476 -0.7278  0.0895  0.3554
   16MOL   O307 7837   4.083   2.727   4.486 -0.0275 -0.1449 -0.1256
   16MOL   C308 7838   4.184   2.705   4.395 -0.1452 -0.7591  0.1138
   16MOL   C309 7839   4.143   2.609   4.287 -1.1682 -0.4696  0.0919
   16MOL   C310 7840   4.218   2.498   4.256  0.3079 -0.0507 -0.3084
   16MOL   C311 7841   4.184   2.421   4.143 -0.0576  0.0101 -0.3040
   16MOL   C312 7842   4.068   2.463   4.066 -0.1597 -0.3774  0.4313
   16MOL   C313 7843   3.992   2.578   4.106 -0.1380  0.2697 -0.7809
   16MOL   C314 7844   4.026   2.652   4.221 -0.1233  0.9074 -0.4933
   16MOL   H315 7845   3.816   2.837   4.454 -0.1042  0.8956  0.5874
   16MOL   H316 7846   3.837   2.697   4.543  0.4142  0.6313 -1.9233
   16MOL   H317 7847   3.993   3.080   4.667  0.4760 -0.2249 -2.1447
   16MOL   H318 7848   3.825   3.044   4.712  0.4548 -1.1694  1.1930
   16MOL   H319 7849   3.870   3.061   4.545 -0.7838 -1.3360  0.0294
   16MOL   H320 7850   4.232   2.796   4.359  0.3044 -1.2716 -0.5874
   16MOL   H321 7851   4.272   2.668   4.448  0.2572 -1.1117 -0.7956
   16MOL   H322 7852   4.317   2.484   4.298  0.7731  1.3834 -0.8931
   16MOL   H323 7853   4.247   2.338   4.116  0.3406 -0.5754  2.2911
   16MOL   H324 7854   4.034   2.413   3.977  0.3823 -2.1288  1.1704
   16MOL   H325 7855   3.902   2.601   4.050 -0.6045 -0.6316 -0.4079
   16MOL   H326 7856   3.968   2.741   4.236 -1.4782  0.2146 -1.5714
   16MOL   C327 7857   3.967   2.809   4.769 -0.1042 -0.3024 -0.0658
   16MOL   C328 7858   4.106   2.787   4.836 -0.2204 -0.5403  0.2738
   16MOL   C329 7859   4.175   2.926   4.820 -0.7070  0.5643  0.4986
   16MOL   C330 7860   4.178   2.668   4.765 -0.2106  0.4846 -0.2902
   16MOL   O331 7861   4.297   2.681   4.728 -0.1696 -0.1732  0.0735
   16MOL   O332 7862   4.098   2.558   4.744  0.4392  0.5753  0.6895
   16MOL   C333 7863   4.146   2.458   4.658 -0.5602 -0.1170  0.3408
   16MOL   C334 7864   4.040   2.361   4.604 -0.0550 -0.4327 -0.8308
   16MOL   C335 7865   3.961   2.395   4.496 -0.6853 -0.3573 -0.6623
   16MOL   C336 7866   3.867   2.304   4.459  0.2360  0.3632 -0.1867
   16MOL   C337 7867   3.845   2.180   4.524  0.0969  0.6730 -0.4383
   16MOL   C338 7868   3.924   2.153   4.633  0.4319 -0.4593 -0.3312
   16MOL   C339 7869   4.031   2.237   4.671  1.0481  0.6059 -0.1564
   16MOL   H340 7870   3.912   2.715   4.772  0.0260 -0.3360  2.2260
   16MOL   H341 7871   3.920   2.885   4.831  1.3050  0.7580 -0.2679
   16MOL   H342 7872   4.270   2.945   4.871  0.2760 -3.6873  0.4854
   16MOL   H343 7873   4.114   3.010   4.854 -0.6044  0.4384  0.9969
   16MOL   H344 7874   4.197   2.934   4.714  1.1324  0.0950  0.8163
   16MOL   H345 7875   4.213   2.496   4.581 -0.5933 -0.8101 -0.0440
   16MOL   H346 7876   4.216   2.392   4.709  2.2300  1.1548 -1.7049
   16MOL   H347 7877   3.964   2.492   4.448 -1.8544 -1.8268 -3.8734
   16MOL   H348 7878   3.814   2.336   4.370 -0.8771  1.5735  0.8880
   16MOL   H349 7879   3.763   2.120   4.489  0.0996  0.0378  0.6481
   16MOL   H350 7880   3.908   2.053   4.671 -0.2882 -0.5634 -0.8855
   16MOL   H351 7881   4.091   2.217   4.758  0.8776  1.8670  0.2709
   16MOL   C352 7882   4.080   2.744   4.984  0.0379  0.0093 -0.1578
   16MOL   C353 7883   4.195   2.696   5.080  0.4963 -0.0623 -0.1297
   16MOL   C354 7884   4.211   2.541   5.077  0.2787  0.0624  0.3605
   16MOL   C355 7885   4.150   2.739   5.224 -0.4891  0.3003 -0.0939
   16MOL   O356 7886   4.129   2.658   5.313  0.1937 -0.2229 -0.0719
   16MOL   O357 7887   4.151   2.870   5.243 -0.4578  0.7319 -1.1661
   16MOL   C358 7888   4.130   2.916   5.379 -0.2197  0.2654  0.3078
   16MOL   C359 7889   4.196   3.050   5.405 -0.7316  0.5993  0.5966
   16MOL   C360 7890   4.158   3.128   5.521  0.4549 -0.4045  0.3028
   16MOL   C361 7891   4.214   3.253   5.548  0.1174  0.0384  0.2576
   16MOL   C362 7892   4.320   3.301   5.467 -0.2680  0.2075  0.1638
   16MOL   C363 7893   4.353   3.226   5.351  0.3271  0.5948  0.6239
   16MOL   C364 7894   4.296   3.101   5.325  0.8576  0.4379  0.6384
   16MOL   H365 7895   4.011   2.663   5.003 -0.5694  0.8258  1.2148
   16MOL   H366 7896   4.035   2.828   5.037  1.1637  0.9682 -0.6907
   16MOL   H367 7897   4.121   2.487   5.107  1.4827 -1.6490  1.0288
   16MOL   H368 7898   4.288   2.516   5.150  1.5258  1.7877 -0.3132
   16MOL   H369 7899   4.261   2.517   4.983  0.6049  0.8027  0.3404
   16MOL   H370 7900   4.023   2.928   5.393  0.1778  2.7843  1.4522
   16MOL   H371 7901   4.151   2.852   5.465  0.6774  3.1215  2.2816
   16MOL   H372 7902   4.094   3.084   5.596  1.6528 -3.5462 -0.4312
   16MOL   H373 7903   4.179   3.312   5.632  0.7246  1.2199 -0.3129
   16MOL   H374 7904   4.369   3.391   5.498  3.2906 -2.2767  2.1298
   16MOL   H375 7905   4.422   3.267   5.278 -2.3713  1.0395 -1.7547
   16MOL   H376 7906   4.326   3.057   5.231  0.1539  0.7812  0.2431
   16MOL   C377 7907   4.333   2.774   5.046 -0.5580  0.0078 -0.0963
   16MOL   C378 7908   4.483   2.738   5.088  0.2353  0.4220 -0.6749
   16MOL   C379 7909   4.526   2.601   5.027  0.1023  0.0261 -0.6356
   16MOL   C380 7910   4.493   2.733   5.242  0.3965 -0.5816  0.4388
   16MOL   O381 7911   4.410   2.787   5.308 -0.2913 -0.0142  0.4978
   16MOL   O382 7912   4.590   2.655   5.293  0.0023  0.2931 -0.2199
   16MOL   C383 7913   4.607   2.649   5.434  0.0736  0.2439  0.2920
   16MOL   C384 7914   4.751   2.616   5.465 -0.6844  0.6208  0.3165
   16MOL   C385 7915   4.831   2.560   5.365 -0.1297  0.5153  0.3153
   16MOL   C386 7916   4.970   2.544   5.383  0.0602  1.3911  0.0809
   16MOL   C387 7917   5.026   2.574   5.510  0.3127 -0.2874 -0.2308
   16MOL   C388 7918   4.938   2.612   5.616  0.7449  0.2128 -0.0721
   16MOL   C389 7919   4.803   2.637   5.591  0.3448  0.4214  0.4229
   16MOL   H390 7920   4.325   2.876   5.084 -1.4472 -0.5196  1.1654
   16MOL   H391 7921   4.336   2.783   4.938 -0.0916  1.6846  0.0405
   16MOL   H392 7922   4.488   2.585   4.926 -2.1657 -0.3503  0.2543
   16MOL   H393 7923   4.486   2.519   5.087  0.6157 -0.9673 -1.6225
   16MOL   H394 7924   4.632   2.582   5.010  0.1873 -0.3561  0.2594
   16MOL   H395 7925   4.589   2.749   5.472  0.4968  0.8929 -1.1548
   16MOL   H396 7926   4.572   2.570   5.500 -0.6719  1.4603  1.3662
   16MOL   H397 7927   4.791   2.543   5.266 -2.4277  2.1423  0.9288
   16MOL   H398 7928   5.041   2.527   5.303 -0.1765 -0.9737  0.3522
   16MOL   H399 7929   5.132   2.569   5.531  0.0864  0.1223  1.0774
   16MOL   H400 7930   4.989   2.618   5.710 -1.9652  0.2136  1.4562
   16MOL   H401 7931   4.732   2.674   5.664 -0.4847  1.4540 -0.8807
   16MOL   C402 7932   4.570   2.858   5.035  1.1501  0.1548 -0.0940
   16MOL   C403 7933   4.721   2.902   5.083 -0.5091 -0.4689  0.2728
   16MOL   C404 7934   4.808   2.772   5.057  0.3214  0.1586 -0.0807
   16MOL   C405 7935   4.733   2.958   5.227 -0.0337  1.0744  0.8802
   16MOL   O406 7936   4.634   3.002   5.286 -0.2517  0.0255 -0.1756
   16MOL   O407 7937   4.866   2.957   5.274  0.4435 -0.1083 -0.1276
   16MOL   C408 7938   4.895   3.015   5.407  0.2510  0.3131  0.2309
   16MOL   C409 7939   5.040   3.001   5.448  0.1784  0.3549 -0.0516
   16MOL   C410 7940   5.133   2.917   5.378 -0.1769  0.5826  0.0490
   16MOL   C411 7941   5.270   2.911   5.419  0.1493 -1.5047  0.6624
   16MOL   C412 7942   5.308   2.980   5.536  0.3274  0.1438  0.3730
   16MOL   C413 7943   5.220   3.059   5.610  0.3441  0.9008 -0.4858
   16MOL   C414 7944   5.088   3.077   5.560 -1.0049 -0.0841  0.2298
   16MOL   H415 7945   4.510   2.941   5.072  1.7543  1.3832 -1.8146
   16MOL   H416 7946   4.561   2.857   4.926  0.8580  1.7395 -0.0934
   16MOL   H417 7947   4.800   2.725   4.959 -0.7937  1.5891 -0.7014
   16MOL   H418 7948   4.771   2.696   5.126  0.0035  0.2163 -0.1875
   16MOL   H419 7949   4.909   2.794   5.090  0.7741  1.1486 -2.0914
   16MOL   H420 7950   4.877   3.121   5.388 -1.1458  0.4009  1.9783
   16MOL   H421 7951   4.836   2.972   5.487  3.0197 -1.1319  1.5569
   16MOL   H422 7952   5.099   2.873   5.285 -2.4341  3.2267 -0.4660
   16MOL   H423 7953   5.342   2.856   5.360  2.0846 -0.8717  2.3957
   16MOL   H424 7954   5.408   2.996   5.572  0.1524  3.4944 -0.4980
   16MOL   H425 7955   5.257   3.107   5.700  2.0601 -0.4491 -0.4559
   16MOL   H426 7956   5.010   3.130   5.613 -1.1946  0.8359 -0.9594
   16MOL   C427 7957   4.781   3.009   4.977  0.7215 -0.8455 -1.1249
   16MOL   C428 7958   4.736   3.159   4.964  0.1087  0.2435 -0.3858
   16MOL   C429 7959   4.800   3.207   4.828  0.2369  0.2751  0.4225
   16MOL   C430 7960   4.789   3.249   5.075  0.1382 -0.0260 -0.6638
   16MOL   O431 7961   4.714   3.280   5.168 -0.0017 -0.0326 -0.2175
   16MOL   O432 7962   4.921   3.283   5.057 -0.7023 -0.0800 -0.2833
   16MOL   C433 7963   4.983   3.374   5.152  0.6446 -0.2788  0.0715
   16MOL   C434 7964   4.974   3.511   5.093  0.0126  0.3230 -0.0999
   16MOL   C435 7965   4.974   3.622   5.177 -0.1476 -0.5733  0.7380
   16MOL   C436 7966   4.979   3.750   5.117 -0.3097 -0.4545  0.2326
   16MOL   C437 7967   5.005   3.773   4.986  0.1725 -1.0649  0.4784
   16MOL   C438 7968   5.020   3.662   4.901 -0.5314 -0.6548 -0.1239
   16MOL   C439 7969   5.008   3.533   4.959  0.7030  0.4145 -0.0891
   16MOL   H440 7970   4.742   2.962   4.887 -1.5291  2.3391 -1.8979
   16MOL   H441 7971   4.887   2.986   4.975  0.8523 -0.1696 -3.8793
   16MOL   H442 7972   4.730   3.180   4.748 -1.2888  1.3608  1.3580
   16MOL   H443 7973   4.901   3.171   4.812  0.3944  0.8332  0.1664
   16MOL   H444 7974   4.808   3.315   4.822 -0.2385  0.3888  1.7095
   16MOL   H445 7975   4.928   3.378   5.246  1.3919  3.6692  0.4258
   16MOL   H446 7976   5.084   3.351   5.185  0.5353  0.2988  0.7958
   16MOL   H447 7977   4.966   3.616   5.285  0.0137 -0.3074  0.7648
   16MOL   H448 7978   4.980   3.830   5.189 -1.6462  1.9017 -2.2716
   16MOL   H449 7979   5.006   3.875   4.952  0.1546 -1.0157  0.6248
   16MOL   H450 7980   5.047   3.674   4.797  2.1070  2.2864  0.8564
   16MOL   H451 7981   5.017   3.449   4.892 -0.1240  0.0222  0.2875
   16MOL   C452 7982   4.575   3.169   4.958 -0.3114 -0.2843 -0.5938
   16MOL   C453 7983   4.489   3.294   4.914  0.4607  0.7263  1.0418
   16MOL   C454 7984   4.351   3.286   4.987 -0.8585  0.8644  0.2798
   16MOL   C455 7985   4.472   3.283   4.763  0.4061 -0.4678 -0.3853
   16MOL   O456 7986   4.519   3.359   4.677  0.0887 -0.3908  0.1632
   16MOL   O457 7987   4.394   3.179   4.726  0.2719  0.0434 -0.0018
   16MOL   C458 7988   4.385   3.136   4.592  0.5309  0.4337 -0.4620
   16MOL   C459 7989   4.512   3.052   4.564  0.1282  0.0601 -0.1929
   16MOL   C460 7990   4.533   2.920   4.615  0.0458 -0.2845  0.1672
   16MOL   C461 7991   4.654   2.865   4.600  0.3202  0.0284 -0.2908
   16MOL   C462 7992   4.755   2.935   4.535 -0.0198 -0.6129 -0.2848
   16MOL   C463 7993   4.734   3.057   4.468  0.3713  0.3687 -0.5042
   16MOL   C464 7994   4.610   3.123   4.486  0.8379 -1.1787  0.5652
   16MOL   H465 7995   4.546   3.147   5.061 -2.6861 -1.7388 -1.5386
   16MOL   H466 7996   4.539   3.082   4.903 -1.2303 -1.2798  1.5158
   16MOL   H467 7997   4.343   3.332   5.086 -0.9329 -2.3958  1.8471
   16MOL   H468 7998   4.329   3.182   5.010  0.2228  0.7408  0.8406
   16MOL   H469 7999   4.267   3.318   4.926  0.1357 -0.3326 -1.7542
   16MOL   H470 8000   4.303   3.065   4.591 -1.1708  2.3420  0.0614
   16MOL   H471 8001   4.376   3.219   4.523 -0.8080 -0.2209 -1.0735
   16MOL   H472 8002   4.463   2.876   4.685 -0.1070  0.5556  0.5477
   16MOL   H473 8003   4.668   2.770   4.650  0.4246  0.1696 -0.0475
   16MOL   H474 8004   4.858   2.901   4.528  0.8556  1.6345  1.1369
   16MOL   H475 8005   4.815   3.102   4.412 -0.0793 -0.4517 -1.8581
   16MOL   H476 8006   4.590   3.224   4.454  1.9275 -0.8363  0.9432
   16MOL   C477 8007   4.550   3.431   4.949 -0.3987 -0.0264 -0.2241
   16MOL   C478 8008   4.497   3.562   4.890 -0.0018  0.4089 -0.1752
   16MOL   C479 8009   4.571   3.689   4.915  0.6767  0.0872 -0.3750
   16MOL   C480 8010   4.353   3.593   4.916 -0.3942  0.1190  0.4494
   16MOL   O481 8011   4.267   3.571   4.833 -0.1019  0.4113  0.0567
   16MOL   O482 8012   4.329   3.629   5.041  0.3280 -0.4169  0.6729
   16MOL   C483 8013   4.194   3.641   5.086  0.5827 -0.4060 -0.3967
   16MOL   C484 8014   4.180   3.665   5.233  0.2949 -0.4744  0.3527
   16MOL   C485 8015   4.138   3.566   5.326  0.5556 -0.4905  0.7359
   16MOL   C486 8016   4.133   3.589   5.464 -0.3421  0.2011  0.2252
   16MOL   C487 8017   4.163   3.715   5.512 -0.1540  0.0632 -0.2395
   16MOL   C488 8018   4.184   3.818   5.428  0.0181  0.2793  0.3124
   16MOL   C489 8019   4.198   3.796   5.288  0.2277 -0.1043  0.4590
   16MOL   H490 8020   4.656   3.433   4.927  0.2551  2.7885  2.9737
   16MOL   H491 8021   4.559   3.428   5.057  1.5782  0.7054 -0.3565
   16MOL   H492 8022   4.513   3.781   4.900 -0.2891 -0.5845 -0.7843
   16MOL   H493 8023   4.657   3.701   4.850  1.2335 -0.5562  0.2482
   16MOL   H494 8024   4.606   3.693   5.018  0.7664  3.0935 -0.4699
   16MOL   H495 8025   4.155   3.726   5.031  2.0434  0.6129  0.1438
   16MOL   H496 8026   4.127   3.557   5.064  0.5537 -0.6917  0.7274
   16MOL   H497 8027   4.132   3.465   5.286 -0.9269  0.2964 -1.1090
   16MOL   H498 8028   4.106   3.504   5.525  0.0499 -0.1590 -0.1009
   16MOL   H499 8029   4.154   3.731   5.619  0.8336  1.6786 -0.3688
   16MOL   H500 8030   4.207   3.914   5.472  2.0586 -0.0888  0.1297
   16MOL   H501 8031   4.223   3.876   5.219  0.6609  0.6828  1.5189
   16MOL   H502 8032   4.512   3.555   4.782  1.0309 -0.4944  0.0166
   17MOL     C1 8033   3.795   3.536   7.306  0.2604  0.7436 -0.2716
   17MOL     C2 8034   3.898   3.645   7.279  0.7028 -1.2555  0.1525
   17MOL     C3 8035   3.819   3.765   7.214 -0.2526  0.0910  1.1320
   17MOL     C4 8036   4.005   3.594   7.181 -0.4326  0.2881  0.6211
   17MOL     O5 8037   4.047   3.474   7.174  0.3259 -0.5460  0.1188
   17MOL     O6 8038   4.060   3.685   7.107 -0.0952 -0.1303  0.0677
   17MOL     C7 8039   4.174   3.649   7.030 -0.8177  0.1605  0.4039
   17MOL     C8 8040   4.238   3.773   6.963  0.7990  0.4176 -0.1223
   17MOL     C9 8041   4.378   3.789   6.939 -0.1741 -0.3728 -1.0779
   17MOL    C10 8042   4.433   3.900   6.873 -0.3936  0.8811 -0.5070
   17MOL    C11 8043   4.343   3.994   6.818  0.4043 -0.3502 -0.1125
   17MOL    C12 8044   4.206   3.974   6.829  0.8732  0.0402  0.2772
   17MOL    C13 8045   4.153   3.862   6.894 -0.1982  0.2497 -1.0216
   17MOL    H14 8046   3.843   3.439   7.319 -0.3592  0.2588 -1.6322
   17MOL    H15 8047   3.736   3.557   7.395  0.6808  0.3696  0.1004
   17MOL    H16 8048   3.748   3.724   7.142  2.4893 -1.2262 -0.9123
   17MOL    H17 8049   3.874   3.833   7.150 -1.9885 -0.8433 -1.4329
   17MOL    H18 8050   3.760   3.820   7.287 -0.0281  1.1741  0.5016
   17MOL    H19 8051   4.250   3.599   7.090 -0.0922  0.7353 -0.0160
   17MOL    H20 8052   4.144   3.583   6.949 -1.3718 -1.5357  1.9679
   17MOL    H21 8053   4.449   3.717   6.980  0.2098  0.6438  0.0728
   17MOL    H22 8054   4.539   3.918   6.863 -0.1961 -0.1657 -0.3635
   17MOL    H23 8055   4.384   4.079   6.765  0.4361  0.3159  0.9762
   17MOL    H24 8056   4.142   4.052   6.790 -0.8779  0.4605  3.7804
   17MOL    H25 8057   4.046   3.861   6.905 -0.4331  0.8669 -2.9199
   17MOL    H26 8058   3.719   3.533   7.228  1.1101  0.2618 -1.0895
   17MOL    C27 8059   3.962   3.671   7.421  0.2805 -0.0233  0.0906
   17MOL    C28 8060   4.071   3.779   7.461  0.0627 -0.5266  1.0822
   17MOL    C29 8061   4.033   3.916   7.422  0.0477  0.4270  0.3385
   17MOL    C30 8062   4.205   3.727   7.398 -0.3534 -0.1784 -0.6026
   17MOL    O31 8063   4.233   3.609   7.379 -0.2250 -0.1571 -0.4668
   17MOL    O32 8064   4.294   3.826   7.395  0.2433  0.1138  0.0297
   17MOL    C33 8065   4.425   3.802   7.332  0.5887  0.3498 -0.0919
   17MOL    C34 8066   4.502   3.926   7.295  0.4198  1.1342  0.2736
   17MOL    C35 8067   4.509   4.032   7.385  0.7914 -0.1535  0.6913
   17MOL    C36 8068   4.581   4.148   7.358 -0.0034 -0.0901  0.1741
   17MOL    C37 8069   4.649   4.165   7.231 -0.4017  0.2068  0.3085
   17MOL    C38 8070   4.657   4.051   7.144  0.4682 -0.1318  0.1001
   17MOL    C39 8071   4.577   3.937   7.173  0.2355 -0.0265 -0.5787
   17MOL    H40 8072   4.003   3.573   7.444 -0.8110 -0.1748  1.4438
   17MOL    H41 8073   3.881   3.677   7.494  0.5137  0.5892  0.3093
   17MOL    H42 8074   3.998   3.924   7.319  0.7060 -0.0688  0.0766
   17MOL    H43 8075   4.119   3.982   7.430 -0.2413  0.7537  0.7736
   17MOL    H44 8076   3.949   3.958   7.477 -0.4786  1.9883 -1.6249
   17MOL    H45 8077   4.489   3.742   7.398  0.8059  0.9538  0.2474
   17MOL    H46 8078   4.416   3.740   7.243  1.2276  0.3650 -0.1716
   17MOL    H47 8079   4.460   4.029   7.481 -0.2543  1.0456  0.2169
   17MOL    H48 8080   4.584   4.222   7.436 -2.4976  0.2651 -0.0506
   17MOL    H49 8081   4.692   4.262   7.209 -1.3420  0.4245 -0.6152
   17MOL    H50 8082   4.711   4.060   7.051  1.1761 -1.5576  0.3525
   17MOL    H51 8083   4.589   3.851   7.108  0.3695  1.2838 -2.3385
   17MOL    C52 8084   4.070   3.767   7.621 -0.8272 -0.3461  0.1868
   17MOL    C53 8085   4.174   3.830   7.728 -0.6602 -0.4754  0.5358
   17MOL    C54 8086   4.178   3.984   7.714  0.1984 -0.7664  0.5301
   17MOL    C55 8087   4.317   3.770   7.705  0.3825 -0.2431 -0.7110
   17MOL    O56 8088   4.413   3.844   7.693  0.5381  0.1234 -0.6992
   17MOL    O57 8089   4.322   3.639   7.706  0.5352 -0.9430  0.3646
   17MOL    C58 8090   4.446   3.572   7.694  0.6320 -0.1094  0.4724
   17MOL    C59 8091   4.433   3.426   7.735 -0.2101  0.8415 -0.5458
   17MOL    C60 8092   4.315   3.353   7.692 -0.0832  0.1991 -0.5393
   17MOL    C61 8093   4.306   3.221   7.748  0.3158  0.0434 -0.5715
   17MOL    C62 8094   4.389   3.166   7.849 -0.2038  0.3974 -0.6013
   17MOL    C63 8095   4.499   3.247   7.886  0.0038  0.6950  0.9147
   17MOL    C64 8096   4.527   3.372   7.824 -0.3030 -0.4877 -0.5349
   17MOL    H65 8097   4.072   3.659   7.638 -1.1200 -0.5615 -1.0984
   17MOL    H66 8098   3.971   3.794   7.658 -0.6812 -1.4057  1.3880
   17MOL    H67 8099   4.086   4.037   7.740  1.5657 -0.1064  4.3300
   17MOL    H68 8100   4.221   4.015   7.619 -2.5297  2.7293  0.3436
   17MOL    H69 8101   4.247   4.038   7.778 -0.9681  0.3993  0.8339
   17MOL    H70 8102   4.483   3.575   7.591 -0.5915  1.7592  0.0646
   17MOL    H71 8103   4.517   3.616   7.764  1.9532  0.4716 -1.2055
   17MOL    H72 8104   4.249   3.378   7.611 -2.5588 -0.9994  1.0346
   17MOL    H73 8105   4.222   3.158   7.720 -1.2270  1.2752  1.1468
   17MOL    H74 8106   4.371   3.064   7.879  0.6368 -0.4204 -2.7928
   17MOL    H75 8107   4.571   3.210   7.957  0.7138  1.3715  0.5539
   17MOL    H76 8108   4.607   3.438   7.853  0.5941 -2.0611  0.7236
   17MOL    C77 8109   4.117   3.805   7.866  0.1607 -0.4625  0.0550
   17MOL    C78 8110   4.194   3.818   8.006 -0.2009 -0.0727  0.6048
   17MOL    C79 8111   4.298   3.934   0.002  0.3889 -0.0774 -0.3531
   17MOL    C80 8112   4.268   3.688   0.031 -0.5568  0.7512  0.6489
   17MOL    O81 8113   4.373   3.693   0.092  0.5075  0.3007 -0.1928
   17MOL    O82 8114   4.204   3.574   8.003  0.2390 -0.1064 -0.3375
   17MOL    C83 8115   4.252   3.453   0.058 -0.9233  0.1255  0.0350
   17MOL    C84 8116   4.156   3.335   0.047  0.8033  0.4023 -0.5519
   17MOL    C85 8117   4.192   3.213   0.106  0.2578  0.8228  0.1499
   17MOL    C86 8118   4.120   3.096   0.083 -0.2738  0.0840  0.6280
   17MOL    C87 8119   4.011   3.096   7.998  0.4354  0.0918  0.5496
   17MOL    C88 8120   3.976   3.221   7.942 -0.1606  0.2319  0.0580
   17MOL    C89 8121   4.047   3.339   7.974 -0.4614 -0.5288 -0.0109
   17MOL    H90 8122   4.077   3.704   7.856  1.2817 -0.6735 -2.5725
   17MOL    H91 8123   4.037   3.878   7.874 -0.9397 -1.3480 -2.6801
   17MOL    H92 8124   4.371   3.928   7.928  1.4123 -2.6742  0.7176
   17MOL    H93 8125   4.364   3.934   0.088 -0.1075 -0.0230  0.0254
   17MOL    H94 8126   4.252   4.032   8.006 -0.7542 -0.5584  0.9204
   17MOL    H95 8127   4.349   3.431   0.013 -0.7983 -0.6700  0.6709
   17MOL    H96 8128   4.264   3.455   0.167 -0.6359 -1.0889  0.0415
   17MOL    H97 8129   4.272   3.216   0.179  0.8487  1.1368 -0.5006
   17MOL    H98 8130   4.147   2.999   0.123  2.1605 -0.6908 -2.6945
   17MOL    H99 8131   3.968   3.001   7.972 -0.4957  0.2528  1.4658
   17MOL   H100 8132   3.890   3.231   7.878  1.4539  0.7377 -2.0728
   17MOL   H101 8133   4.032   3.422   7.907 -0.6121  0.4794  1.2479
   17MOL   C102 8134   4.089   3.854   0.116 -0.0966  0.4183  0.6136
   17MOL   C103 8135   3.969   3.767   0.170  0.3326 -0.0281  0.5721
   17MOL   C104 8136   4.014   3.641   0.250 -0.5335  0.9897  0.1815
   17MOL   C105 8137   3.873   3.728   0.057  0.2246  0.0498  0.5080
   17MOL   O106 8138   3.847   3.610   0.039  0.0886  0.0670 -0.5363
   17MOL   O107 8139   3.823   3.834   7.997  0.3695  0.2799 -0.8063
   17MOL   C108 8140   3.726   3.806   7.898 -0.6454 -0.4714 -0.1161
   17MOL   C109 8141   3.718   3.917   7.796  0.0688 -0.6621  0.0483
   17MOL   C110 8142   3.705   3.888   7.655  1.0272  0.1681  0.6690
   17MOL   C111 8143   3.697   3.994   7.566 -0.3601  0.0687  0.6298
   17MOL   C112 8144   3.711   4.126   7.604 -0.8885  0.0635  0.2353
   17MOL   C113 8145   3.717   4.151   7.737 -0.2890 -0.7450  0.5234
   17MOL   C114 8146   3.725   4.051   7.836 -0.2629 -0.0875  0.6065
   17MOL   H115 8147   4.058   3.956   0.095  1.7003  0.5882 -1.3542
   17MOL   H116 8148   4.155   3.866   0.201  0.0335 -2.5798  0.9796
   17MOL   H117 8149   4.024   3.675   0.353 -1.9918  2.1006 -0.0266
   17MOL   H118 8150   4.112   3.605   0.220 -0.4733  2.9259 -2.0712
   17MOL   H119 8151   3.950   3.552   0.254  0.6623  0.0946 -0.4267
   17MOL   H120 8152   3.756   3.712   7.852 -0.8685  0.2025 -1.6718
   17MOL   H121 8153   3.631   3.777   7.941 -0.6191  0.7684  0.8036
   17MOL   H122 8154   3.682   3.788   7.621  1.5600  0.9645 -2.1835
   17MOL   H123 8155   3.669   3.965   7.466 -0.7733  0.0106  0.7619
   17MOL   H124 8156   3.702   4.206   7.533  1.7330 -0.7665 -1.1199
   17MOL   H125 8157   3.733   4.255   7.765 -3.0432 -0.2967  0.6134
   17MOL   H126 8158   3.738   4.074   7.941  0.9175 -2.3292  0.9791
   17MOL   C127 8159   3.885   3.865   0.271  0.3912  0.9761 -0.0939
   17MOL   C128 8160   3.743   3.826   0.341 -0.2597  0.2860 -0.1068
   17MOL   C129 8161   3.719   3.675   0.356 -0.2771  0.3699  0.0445
   17MOL   C130 8162   3.616   3.889   0.265  0.3846 -0.4524 -0.9185
   17MOL   O131 8163   3.635   3.966   0.173 -0.2812  0.4907 -0.2808
   17MOL   O132 8164   3.495   3.852   0.318  0.2942 -0.1965 -0.1611
   17MOL   C133 8165   3.381   3.932   0.299  0.5414  0.8334 -0.1162
   17MOL   C134 8166   3.281   3.916   0.414 -0.3744  0.0882  0.3303
   17MOL   C135 8167   3.148   3.925   0.386  0.1454  0.2446 -0.2351
   17MOL   C136 8168   3.050   3.911   0.486 -0.3482 -0.6561 -0.4421
   17MOL   C137 8169   3.090   3.879   0.617  0.2204 -0.3435  0.2916
   17MOL   C138 8170   3.230   3.881   0.650 -0.8202 -0.0218  0.7004
   17MOL   C139 8171   3.326   3.897   0.544  0.1131  0.4577  0.0782
   17MOL   H140 8172   3.888   3.967   0.232  0.9414  0.6000 -1.0522
   17MOL   H141 8173   3.950   3.892   0.354 -0.4038 -1.9796  1.5651
   17MOL   H142 8174   3.805   3.626   0.402 -0.0298  2.5069  1.9719
   17MOL   H143 8175   3.702   3.639   0.255  3.3324  0.9385 -0.8451
   17MOL   H144 8176   3.626   3.659   0.411  0.4527  0.0473  1.2159
   17MOL   H145 8177   3.413   4.036   0.292  1.9572  0.4627  0.7809
   17MOL   H146 8178   3.327   3.898   0.210 -1.1097  0.6559  0.9320
   17MOL   H147 8179   3.118   3.937   0.283  1.5461 -0.7982 -0.7962
   17MOL   H148 8180   2.949   3.940   0.462 -0.3660 -0.1234  0.2708
   17MOL   H149 8181   3.017   3.876   0.697  0.9971  0.3964  1.0439
   17MOL   H150 8182   3.258   3.864   0.753  0.2024 -0.3789  0.3664
   17MOL   H151 8183   3.431   3.882   0.563  0.4702 -0.1497 -2.1482
   17MOL   C152 8184   3.741   3.876   0.495  0.7617 -0.5407  0.6005
   17MOL   C153 8185   3.759   4.022   0.556  0.1265 -0.4343  0.0991
   17MOL   C154 8186   3.696   4.118   0.456  0.0064  0.3648 -0.5977
   17MOL   C155 8187   3.909   4.065   0.570 -0.0405  0.2375 -0.1392
   17MOL   O156 8188   3.943   4.187   0.567  0.5774 -0.2965  0.0100
   17MOL   O157 8189   4.001   3.959   0.576 -0.7182 -0.1713  0.0567
   17MOL   C158 8190   4.131   3.991   0.601 -0.1552 -0.0849  0.2841
   17MOL   C159 8191   4.224   3.875   0.605 -0.5209  0.0940 -0.0210
   17MOL   C160 8192   4.266   3.809   0.719 -0.9194  0.1921  0.2831
   17MOL   C161 8193   4.356   3.699   0.721 -0.3617  0.3057  0.7618
   17MOL   C162 8194   4.402   3.656   0.592  0.0416  0.4249  0.0990
   17MOL   C163 8195   4.364   3.721   0.473  0.3013 -0.0646 -0.1318
   17MOL   C164 8196   4.275   3.833   0.483  0.3913 -0.6893  0.2338
   17MOL   H165 8197   3.806   3.817   0.559  4.5284  0.6135 -1.9828
   17MOL   H166 8198   3.644   3.852   0.537 -0.0496  0.5768 -0.5738
   17MOL   H167 8199   3.752   4.105   0.363  1.1731 -2.4129  0.4404
   17MOL   H168 8200   3.694   4.226   0.472  0.2846  0.2038  0.5575
   17MOL   H169 8201   3.595   4.087   0.432  0.0512  0.3108 -0.7197
   17MOL   H170 8202   4.160   4.060   0.522 -0.7373  1.0863  1.0776
   17MOL   H171 8203   4.135   4.043   0.697  0.2401  0.8521 -0.2393
   17MOL   H172 8204   4.227   3.836   0.816  0.2204  0.6007  0.6328
   17MOL   H173 8205   4.383   3.654   0.815  1.5074 -0.2523 -0.0215
   17MOL   H174 8206   4.480   3.581   0.596 -2.0500 -1.7835  1.5334
   17MOL   H175 8207   4.416   3.694   0.382  1.7315 -2.0641  1.2551
   17MOL   H176 8208   4.241   3.897   0.402 -0.7175  0.8144  1.8581
   17MOL   C177 8209   3.674   4.062   0.688  0.3484  0.7721  0.1395
   17MOL   C178 8210   3.690   3.986   0.826 -0.0578 -1.0629  0.0583
   17MOL   C179 8211   3.832   4.029   0.873 -0.0403  0.1924 -0.0712
   17MOL   C180 8212   3.684   3.829   0.813 -0.8384 -0.1819  0.6578
   17MOL   O181 8213   3.593   3.782   0.750  0.0643 -0.2918  0.1865
   17MOL   O182 8214   3.788   3.767   0.872  0.2054  0.0438  0.1252
   17MOL   C183 8215   3.785   3.619   0.882 -0.6119 -0.1431  0.6702
   17MOL   C184 8216   3.858   3.549   0.762 -0.0058 -0.7441  0.1668
   17MOL   C185 8217   3.792   3.447   0.692 -0.2966  0.3389 -0.5249
   17MOL   C186 8218   3.836   3.390   0.571  0.0056 -0.6864 -0.0583
   17MOL   C187 8219   3.965   3.418   0.532  0.4533  0.1269 -0.4974
   17MOL   C188 8220   4.040   3.522   0.600 -0.4434 -0.2020 -0.6722
   17MOL   C189 8221   3.991   3.578   0.719 -0.4502 -0.3938  0.2170
   17MOL   H190 8222   3.567   4.046   0.672  0.3113  0.4646  0.6599
   17MOL   H191 8223   3.687   4.169   0.705  0.8837  0.3099  2.8612
   17MOL   H192 8224   3.840   4.137   0.857 -1.4598  0.2267 -0.6087
   17MOL   H193 8225   3.918   3.978   0.830  0.5631  1.5769 -0.5233
   17MOL   H194 8226   3.850   4.001   0.977  1.8119 -0.7536 -0.6218
   17MOL   H195 8227   3.842   3.587   0.970  1.3036 -0.1036 -0.5283
   17MOL   H196 8228   3.681   3.587   0.880 -0.6876  0.1814 -0.4665
   17MOL   H197 8229   3.702   3.410   0.740  1.0813 -0.2813  1.6598
   17MOL   H198 8230   3.776   3.321   0.512 -0.2836 -0.7653  0.3272
   17MOL   H199 8231   4.010   3.371   0.446  0.3659 -1.6056  0.4001
   17MOL   H200 8232   4.142   3.536   0.568 -0.5725  1.9622 -0.2315
   17MOL   H201 8233   4.060   3.642   0.772 -1.4886  0.0160  1.0963
   17MOL   C202 8234   3.580   4.041   0.924  0.2698  0.7458  0.0810
   17MOL   C203 8235   3.533   3.978   1.055 -0.7255 -0.0906 -0.3276
   17MOL   C204 8236   3.466   4.093   1.141 -0.4108 -0.3322  0.0693
   17MOL   C205 8237   3.663   3.935   1.136 -0.1721  0.0518 -0.7545
   17MOL   O206 8238   3.706   3.823   1.151  0.2449 -0.4025  0.3550
   17MOL   O207 8239   3.724   4.041   1.198 -0.6673 -0.4715  0.3223
   17MOL   C208 8240   3.832   4.023   1.284 -0.0049  0.0853 -0.2250
   17MOL   C209 8241   3.923   4.150   1.286 -0.1826  0.3486 -0.0035
   17MOL   C210 8242   3.927   4.227   1.402  0.7717  0.7677 -0.1930
   17MOL   C211 8243   4.016   4.334   1.421  0.0045  0.3623 -0.2535
   17MOL   C212 8244   4.108   4.363   1.313  0.1799 -0.4397 -0.5074
   17MOL   C213 8245   4.097   4.292   1.190 -0.6174  0.4650 -0.4295
   17MOL   C214 8246   4.008   4.182   1.181  0.6244 -0.9708 -0.2460
   17MOL   H215 8247   3.487   4.064   0.873 -0.5661  1.9671  2.0986
   17MOL   H216 8248   3.625   4.135   0.958  2.2503 -0.2916  0.3914
   17MOL   H217 8249   3.372   4.140   1.112 -1.1315 -2.0705 -0.4452
   17MOL   H218 8250   3.531   4.180   1.155  0.0396 -0.5107 -0.8786
   17MOL   H219 8251   3.450   4.055   1.242 -1.3987  0.7299  0.3258
   17MOL   H220 8252   3.781   3.990   1.375  1.0429  0.5167  0.5320
   17MOL   H221 8253   3.893   3.942   1.244 -0.3270  0.4401 -1.4360
   17MOL   H222 8254   3.856   4.198   1.478  1.0751 -0.1146 -0.2354
   17MOL   H223 8255   4.023   4.385   1.517  0.6319 -0.3022  0.0591
   17MOL   H224 8256   4.179   4.441   1.335 -2.5520  1.8200  0.5088
   17MOL   H225 8257   4.161   4.323   1.109  0.5659  1.8585  1.0169
   17MOL   H226 8258   4.019   4.118   1.094  0.4904  0.3688 -1.2709
   17MOL   C227 8259   3.439   3.861   1.025  0.8851  0.6658 -0.4783
   17MOL   C228 8260   3.327   3.803   1.117 -0.1553  0.5216  0.2296
   17MOL   C229 8261   3.278   3.676   1.041 -0.0727  0.2869  0.4103
   17MOL   C230 8262   3.206   3.898   1.143  0.5512 -0.1245  0.3776
   17MOL   O231 8263   3.164   3.933   1.251  0.1576  0.4825 -0.4227
   17MOL   O232 8264   3.150   3.940   1.023  0.5294  0.0998 -0.0789
   17MOL   C233 8265   3.019   4.002   1.025  0.4623 -0.0602  0.0656
   17MOL   C234 8266   3.020   4.152   1.003  0.1768  0.3987 -0.8177
   17MOL   C235 8267   3.085   4.232   1.093 -0.1057 -0.7572 -0.1236
   17MOL   C236 8268   3.099   4.372   1.073 -0.3506 -0.0231 -0.1142
   17MOL   C237 8269   3.043   4.430   0.959  0.0679  0.1798  0.5141
   17MOL   C238 8270   2.982   4.346   0.861  0.1500  0.8034  0.2659
   17MOL   C239 8271   2.966   4.206   0.881  0.7364 -0.7331 -0.1663
   17MOL   H240 8272   3.508   3.779   1.003 -0.0632  0.0038 -1.0133
   17MOL   H241 8273   3.396   3.884   0.927 -0.5803  1.0357  0.2403
   17MOL   H242 8274   3.268   3.691   0.934 -0.4127 -0.6408  0.3069
   17MOL   H243 8275   3.179   3.658   1.083  0.1057  0.6565  0.9902
   17MOL   H244 8276   3.335   3.588   1.074  2.1763  1.4686 -0.2573
   17MOL   H245 8277   2.954   3.962   0.947  1.5341 -1.5501 -0.0770
   17MOL   H246 8278   2.962   3.985   1.116  2.1392 -1.6924  0.8471
   17MOL   H247 8279   3.129   4.193   1.183  0.1534  1.6336  0.8319
   17MOL   H248 8280   3.160   4.432   1.139  1.6957 -0.6900 -1.3718
   17MOL   H249 8281   3.050   4.535   0.936 -1.2021  0.0855 -0.3793
   17MOL   H250 8282   2.937   4.386   0.772  3.0879  2.2143 -0.6678
   17MOL   H251 8283   2.916   4.150   0.803  0.3045  3.0873 -2.7262
   17MOL   C252 8284   3.403   3.758   1.250  0.4707 -0.3270 -0.0325
   17MOL   C253 8285   3.336   3.691   1.379  0.4192 -0.7018  0.3786
   17MOL   C254 8286   3.219   3.603   1.343 -0.3717 -0.2087  0.7185
   17MOL   C255 8287   3.286   3.802   1.476  0.2450  0.2224  0.6509
   17MOL   O256 8288   3.174   3.795   1.531  0.0149 -0.2273 -0.0782
   17MOL   O257 8289   3.375   3.907   1.499  0.0468 -0.0474  0.1984
   17MOL   C258 8290   3.345   4.014   1.580  0.0427  0.3333  0.0841
   17MOL   C259 8291   3.341   4.142   1.506 -0.1007 -0.6281  0.3713
   17MOL   C260 8292   3.463   4.197   1.465 -0.0995  0.2872  0.0360
   17MOL   C261 8293   3.463   4.317   1.391 -0.4651 -0.6542 -0.4903
   17MOL   C262 8294   3.347   4.390   1.365 -0.5687  0.1912  0.4303
   17MOL   C263 8295   3.219   4.338   1.400 -0.3734  0.4852 -0.3005
   17MOL   C264 8296   3.221   4.207   1.462  0.0344  0.4783  0.3416
   17MOL   H265 8297   3.459   3.845   1.285  2.1264 -1.7028  0.8201
   17MOL   H266 8298   3.493   3.707   1.218 -0.3252 -2.5463  1.1356
   17MOL   H267 8299   3.135   3.653   1.295 -1.9339 -2.1057  1.3871
   17MOL   H268 8300   3.179   3.552   1.431 -1.8694 -1.8343 -0.8407
   17MOL   H269 8301   3.261   3.523   1.281 -1.0623  0.1489 -0.2233
   17MOL   H270 8302   3.247   3.997   1.623 -0.4859 -3.3784 -2.3592
   17MOL   H271 8303   3.404   4.016   1.671 -0.0142  0.6865  0.1149
   17MOL   H272 8304   3.551   4.139   1.487  1.1717  2.0223 -0.4263
   17MOL   H273 8305   3.556   4.354   1.352 -0.2128  0.2362  0.9323
   17MOL   H274 8306   3.349   4.481   1.307 -0.1449 -0.5895 -0.8162
   17MOL   H275 8307   3.127   4.376   1.358 -0.3616  0.4549 -0.3540
   17MOL   H276 8308   3.137   4.139   1.465  1.0244 -0.8010 -0.9391
   17MOL   C277 8309   3.454   3.615   1.451  0.2514 -1.0053 -0.0257
   17MOL   C278 8310   3.446   3.515   1.578 -0.2219 -0.1005  0.1852
   17MOL   C279 8311   3.593   3.505   1.637  0.3557  0.0482  0.4439
   17MOL   C280 8312   3.416   3.374   1.535  0.1882  0.5865  0.2789
   17MOL   O281 8313   3.500   3.291   1.524  0.0130  0.5036 -0.2091
   17MOL   O282 8314   3.286   3.359   1.500 -0.0845 -0.3192  0.2500
   17MOL   C283 8315   3.237   3.243   1.441  0.5297  0.4894  0.1939
   17MOL   C284 8316   3.222   3.245   1.293  0.3857  0.0340 -0.6959
   17MOL   C285 8317   3.098   3.293   1.236 -0.1988  0.4856 -0.2939
   17MOL   C286 8318   3.082   3.287   1.098  0.1191  0.1774  0.6038
   17MOL   C287 8319   3.178   3.220   1.015  0.2271 -0.0131  0.0163
   17MOL   C288 8320   3.298   3.176   1.077 -0.1222 -0.1546 -0.1106
   17MOL   C289 8321   3.317   3.175   1.216 -0.2346 -0.4168 -0.5809
   17MOL   H290 8322   3.523   3.691   1.490 -1.5441  0.8151 -0.3277
   17MOL   H291 8323   3.508   3.560   1.374 -0.0475 -1.0815 -0.1787
   17MOL   H292 8324   3.620   3.409   1.683  2.1206 -1.1006 -2.8208
   17MOL   H293 8325   3.610   3.592   1.701  1.4510  0.8425 -0.9056
   17MOL   H294 8326   3.668   3.516   1.559  0.0501  1.7306  0.3798
   17MOL   H295 8327   3.290   3.156   1.480  1.5588  0.0825 -2.0506
   17MOL   H296 8328   3.134   3.237   1.476  0.9902  0.0737  1.5166
   17MOL   H297 8329   3.020   3.328   1.302  0.2171 -0.5167  0.7510
   17MOL   H298 8330   2.987   3.320   1.060 -1.1224 -1.1773  2.4240
   17MOL   H299 8331   3.165   3.217   0.908  1.3922  3.2720 -0.2880
   17MOL   H300 8332   3.365   3.118   1.015 -0.9928 -0.5874 -0.6663
   17MOL   H301 8333   3.407   3.138   1.263 -0.4897  1.9221  1.8922
   17MOL   C302 8334   3.345   3.569   1.692 -0.1033 -0.8278  0.2638
   17MOL   C303 8335   3.302   3.487   1.820  0.6889  0.3196 -0.1654
   17MOL   C304 8336   3.250   3.594   1.920 -0.6486  0.4837  0.0858
   17MOL   C305 8337   3.425   3.418   1.892  0.1714 -0.2844 -0.5648
   17MOL   O306 8338   3.436   3.295   1.904 -0.5588  0.4046  0.0878
   17MOL   O307 8339   3.520   3.507   1.932 -0.6454  0.3907 -0.4109
   17MOL   C308 8340   3.643   3.472   1.993  0.2457  0.5147  0.2219
   17MOL   C309 8341   3.687   3.574   2.095  1.0942 -0.0740  0.2496
   17MOL   C310 8342   3.822   3.614   2.095  0.1307 -0.9708  0.6522
   17MOL   C311 8343   3.859   3.715   2.185  0.0859 -0.4576 -0.6905
   17MOL   C312 8344   3.775   3.766   2.283 -0.2711 -0.2390  0.2335
   17MOL   C313 8345   3.653   3.698   2.303 -0.2009 -0.6768  0.7812
   17MOL   C314 8346   3.603   3.606   2.204  0.2508  0.1933  0.0551
   17MOL   H315 8347   3.251   3.604   1.650 -0.4315  0.4710  1.9861
   17MOL   H316 8348   3.385   3.666   1.723 -1.4766 -0.7020  1.7021
   17MOL   H317 8349   3.159   3.645   1.887  0.0631  0.0697 -2.5687
   17MOL   H318 8350   3.318   3.676   1.941  0.0164 -0.4166  1.4984
   17MOL   H319 8351   3.238   3.545   2.017  0.1809 -0.5814 -0.3441
   17MOL   H320 8352   3.644   3.373   2.039 -0.2001  1.4423  2.2860
   17MOL   H321 8353   3.719   3.465   1.915  0.0999 -3.8290  0.3519
   17MOL   H322 8354   3.884   3.575   2.016  0.4713 -1.9078  1.3773
   17MOL   H323 8355   3.964   3.743   2.185  0.1474 -0.6204  1.0897
   17MOL   H324 8356   3.793   3.842   2.358 -1.0422  0.7294 -0.5513
   17MOL   H325 8357   3.599   3.715   2.395 -0.8663 -0.6401  0.3879
   17MOL   H326 8358   3.507   3.557   2.211  1.3801 -2.1393 -0.1305
   17MOL   C327 8359   3.183   3.386   1.782 -0.2330  0.2800 -0.1510
   17MOL   C328 8360   3.068   3.340   1.875 -0.5481  0.9830  0.4226
   17MOL   C329 8361   3.133   3.271   2.001  0.2482  0.0700 -0.3135
   17MOL   C330 8362   2.976   3.236   1.807 -0.2164  0.4625  0.4361
   17MOL   O331 8363   2.980   3.210   1.689  0.0105 -0.1462  0.3133
   17MOL   O332 8364   2.887   3.178   1.890 -0.9702 -0.0856  0.6895
   17MOL   C333 8365   2.781   3.098   1.835 -0.3135  0.3067 -0.5153
   17MOL   C334 8366   2.748   2.985   1.927  0.0553  0.9464 -0.2342
   17MOL   C335 8367   2.620   2.934   1.909 -0.2574  0.4582  0.2181
   17MOL   C336 8368   2.578   2.826   1.989 -0.1022  0.3906  0.5716
   17MOL   C337 8369   2.672   2.757   2.067  0.7047 -0.9572  0.2558
   17MOL   C338 8370   2.795   2.819   2.098  0.1809  0.6829 -0.1294
   17MOL   C339 8371   2.835   2.925   2.020  0.0710  0.4715 -0.3482
   17MOL   H340 8372   3.225   3.290   1.753 -0.4490 -0.0870  0.7263
   17MOL   H341 8373   3.137   3.420   1.689  0.5818 -0.6052 -0.8843
   17MOL   H342 8374   3.065   3.242   2.082  0.5716  0.7660  0.2094
   17MOL   H343 8375   3.201   3.337   2.054 -1.6535 -0.8544  3.5107
   17MOL   H344 8376   3.194   3.184   1.977  0.9457  0.7454 -1.0032
   17MOL   H345 8377   2.689   3.156   1.828 -0.2348  0.3040 -1.6370
   17MOL   H346 8378   2.809   3.060   1.736 -0.2089 -2.0388  0.3886
   17MOL   H347 8379   2.542   2.978   1.849 -0.3918  3.0063  2.1717
   17MOL   H348 8380   2.480   2.787   1.966  0.1255  0.1828 -0.0790
   17MOL   H349 8381   2.650   2.666   2.122  0.6537 -1.0381  0.1017
   17MOL   H350 8382   2.861   2.773   2.170  0.4946  0.7187 -0.3928
   17MOL   H351 8383   2.926   2.977   2.046 -1.1257  2.2710  0.3164
   17MOL   C352 8384   2.967   3.450   1.922  0.9322  0.1912 -0.4389
   17MOL   C353 8385   2.873   3.532   1.830 -0.4357 -0.0482  0.9373
   17MOL   C354 8386   2.937   3.587   1.697 -0.7146 -0.7902  0.1579
   17MOL   C355 8387   2.853   3.654   1.928  0.5041  0.0439 -0.0462
   17MOL   O356 8388   2.774   3.644   2.026 -0.2123 -0.4613 -0.4266
   17MOL   O357 8389   2.923   3.757   1.900  0.0632 -0.0957  0.4395
   17MOL   C358 8390   2.907   3.886   1.953  0.0859 -0.6984  0.3523
   17MOL   C359 8391   3.038   3.951   1.976  0.1243  0.3311 -0.8419
   17MOL   C360 8392   3.118   3.911   2.089  0.6505 -0.2614  0.2708
   17MOL   C361 8393   3.248   3.963   2.112 -0.1205 -0.4029 -0.3759
   17MOL   C362 8394   3.290   4.071   2.024  0.1039  0.2049  0.0139
   17MOL   C363 8395   3.207   4.115   1.919  0.6270 -0.1895 -0.4105
   17MOL   C364 8396   3.080   4.058   1.894  0.2596 -0.1893 -0.2569
   17MOL   H365 8397   3.025   3.515   1.988 -0.6359 -1.9627  3.2518
   17MOL   H366 8398   2.901   3.412   2.000  0.7051  1.0496 -0.2010
   17MOL   H367 8399   2.948   3.516   1.616  0.8657  0.6187 -0.9059
   17MOL   H368 8400   3.034   3.634   1.717 -0.4503 -0.7807 -1.1090
   17MOL   H369 8401   2.888   3.679   1.665  0.3022 -0.9507 -1.9118
   17MOL   H370 8402   2.843   3.946   1.887 -1.9026  1.6832  4.2500
   17MOL   H371 8403   2.839   3.894   2.038 -0.6335  0.6594 -0.3338
   17MOL   H372 8404   3.074   3.830   2.146  1.4613 -1.5621 -0.9226
   17MOL   H373 8405   3.311   3.923   2.190 -1.2508 -2.5344 -0.5266
   17MOL   H374 8406   3.388   4.113   2.038 -0.4198  1.4121  0.1134
   17MOL   H375 8407   3.229   4.201   1.858  0.6166  1.7134  2.1835
   17MOL   H376 8408   3.010   4.097   1.821 -1.1593  0.1271  1.2530
   17MOL   C377 8409   2.738   3.451   1.796  0.7425  0.4237  0.1370
   17MOL   C378 8410   2.596   3.508   1.745  0.3670  0.5118  0.4704
   17MOL   C379 8411   2.541   3.402   1.647 -1.0076  0.7516 -0.1737
   17MOL   C380 8412   2.607   3.634   1.658 -0.8358 -0.0019 -0.3925
   17MOL   O381 8413   2.606   3.628   1.535 -0.2244 -0.3004  0.0049
   17MOL   O382 8414   2.622   3.748   1.734 -0.0952 -0.3009 -0.1293
   17MOL   C383 8415   2.623   3.869   1.666  1.0249  0.6059 -0.0289
   17MOL   C384 8416   2.557   3.982   1.742 -0.1625  0.0414  0.1030
   17MOL   C385 8417   2.530   3.983   1.883  1.1828 -0.0291  0.0701
   17MOL   C386 8418   2.462   4.101   1.934  0.2070  0.4465 -0.0132
   17MOL   C387 8419   2.424   4.208   1.864 -0.2302  0.4943  0.0374
   17MOL   C388 8420   2.449   4.204   1.728 -0.3849  0.1970  0.1674
   17MOL   C389 8421   2.509   4.089   1.664 -0.0092  0.9931 -0.0233
   17MOL   H390 8422   2.714   3.399   1.889 -0.2395  3.0269  1.4109
   17MOL   H391 8423   2.770   3.390   1.712 -1.1301  0.2340 -0.4514
   17MOL   H392 8424   2.606   3.356   1.573 -1.7122 -1.3162  0.4702
   17MOL   H393 8425   2.453   3.428   1.588 -0.7221 -1.9074 -1.8350
   17MOL   H394 8426   2.512   3.314   1.705  0.3181  0.6849  0.3926
   17MOL   H395 8427   2.725   3.906   1.662  0.8744  1.0388  0.1418
   17MOL   H396 8428   2.590   3.863   1.562  0.3582 -0.7710  0.2518
   17MOL   H397 8429   2.558   3.914   1.961 -0.1539 -1.1021 -0.3736
   17MOL   H398 8430   2.441   4.101   2.040  0.0464 -1.1636 -0.0380
   17MOL   H399 8431   2.361   4.286   1.903  0.6387  1.9436 -1.4076
   17MOL   H400 8432   2.411   4.281   1.662 -0.0302  0.0095 -0.2516
   17MOL   H401 8433   2.513   4.085   1.556  3.3384  0.5663  0.0643
   17MOL   C402 8434   2.499   3.530   1.869  0.3875  0.4546 -0.6831
   17MOL   C403 8435   2.345   3.581   1.867  0.8666 -0.1737 -0.3815
   17MOL   C404 8436   2.328   3.670   2.000 -0.7013 -0.0437 -0.5057
   17MOL   C405 8437   2.259   3.455   1.873 -0.3384 -0.2363  0.6048
   17MOL   O406 8438   2.175   3.430   1.957  0.1246  0.8062  0.3314
   17MOL   O407 8439   2.278   3.382   1.767 -0.0258 -0.3784 -0.7883
   17MOL   C408 8440   2.201   3.266   1.736  0.1657 -0.5715 -0.0212
   17MOL   C409 8441   2.277   3.183   1.634 -0.2929  0.6343 -0.5613
   17MOL   C410 8442   2.343   3.067   1.674 -0.3633  0.2728  0.0836
   17MOL   C411 8443   2.412   2.990   1.579  0.1856 -0.3365 -0.2354
   17MOL   C412 8444   2.412   3.026   1.445 -0.1137  0.2673 -0.5054
   17MOL   C413 8445   2.350   3.139   1.396  0.1573  0.7282 -0.7401
   17MOL   C414 8446   2.279   3.215   1.495 -0.2374 -0.9425 -0.6827
   17MOL   H415 8447   2.554   3.590   1.941  0.9137  0.0969 -0.7888
   17MOL   H416 8448   2.505   3.435   1.922  2.3763 -0.1342 -1.9342
   17MOL   H417 8449   2.223   3.681   2.028 -0.0969  1.8114  1.0877
   17MOL   H418 8450   2.373   3.768   1.982 -1.6358  0.1963 -1.6119
   17MOL   H419 8451   2.360   3.628   2.095 -0.9257 -0.2867 -0.5362
   17MOL   H420 8452   2.181   3.215   1.830  1.1284 -0.5865  0.1877
   17MOL   H421 8453   2.111   3.299   1.684  2.4174 -0.6486 -4.1620
   17MOL   H422 8454   2.341   3.042   1.780  1.6531  1.9494  0.5421
   17MOL   H423 8455   2.459   2.899   1.614  1.2799  0.2033 -0.2822
   17MOL   H424 8456   2.472   2.970   1.374  0.4534  0.3573 -0.1057
   17MOL   H425 8457   2.348   3.166   1.292  3.2679 -1.2953 -1.3770
   17MOL   H426 8458   2.226   3.302   1.461  2.7312  2.1999  2.3849
   17MOL   C427 8459   2.313   3.665   1.740  0.2216 -0.0264  0.0649
   17MOL   C428 8460   2.181   3.743   1.718  0.2991 -0.0433 -0.8903
   17MOL   C429 8461   2.137   3.843   1.825  0.1659 -0.9552  0.0999
   17MOL   C430 8462   2.067   3.642   1.683 -0.1802  0.2716  0.1305
   17MOL   O431 8463   2.073   3.561   1.589  0.4657  0.2862 -0.1247
   17MOL   O432 8464   1.964   3.646   1.770  0.1476  0.1369  0.5226
   17MOL   C433 8465   1.860   3.546   1.764 -0.7011 -0.5439  0.3509
   17MOL   C434 8466   1.748   3.566   1.864 -0.2702 -0.1535  0.2512
   17MOL   C435 8467   1.771   3.622   1.990 -0.1802  0.4722 -0.2426
   17MOL   C436 8468   1.663   3.632   2.086  0.4021  0.1076 -0.0565
   17MOL   C437 8469   1.535   3.591   2.046 -0.5078  0.3665 -0.6930
   17MOL   C438 8470   1.511   3.542   1.918 -0.0450 -0.4278 -0.7577
   17MOL   C439 8471   1.615   3.522   1.832 -0.5592  0.8177  0.0945
   17MOL   H440 8472   2.323   3.607   1.648  0.4153 -0.0505  0.1001
   17MOL   H441 8473   2.395   3.737   1.740 -0.0096  0.2559  1.7292
   17MOL   H442 8474   2.050   3.906   1.803  0.1773 -1.2359 -0.7929
   17MOL   H443 8475   2.219   3.913   1.840  0.6091 -1.5400  0.4093
   17MOL   H444 8476   2.120   3.805   1.925  1.8972  2.3298  1.7228
   17MOL   H445 8477   1.821   3.533   1.663 -0.3826 -0.9114  0.2731
   17MOL   H446 8478   1.891   3.445   1.790 -0.5456 -0.3037  1.0973
   17MOL   H447 8479   1.863   3.662   2.031 -0.6583 -1.0078  2.3697
   17MOL   H448 8480   1.667   3.681   2.182 -3.5373  0.9679 -0.2498
   17MOL   H449 8481   1.451   3.598   2.113  1.0226  0.3798  1.2693
   17MOL   H450 8482   1.410   3.521   1.883 -0.3123  0.7574 -0.7272
   17MOL   H451 8483   1.584   3.471   1.741 -0.8861  0.5779  0.3398
   17MOL   C452 8484   2.211   3.818   1.583  0.4707 -0.1841 -0.0460
   17MOL   C453 8485   2.113   3.920   1.511 -0.8405  0.9588 -0.0905
   17MOL   C454 8486   1.966   3.879   1.510  0.7195  0.2558  0.5441
   17MOL   C455 8487   2.159   3.936   1.359  0.3045 -0.2000 -0.4968
   17MOL   O456 8488   2.090   3.907   1.263  0.3088 -0.4784 -0.2936
   17MOL   O457 8489   2.292   3.958   1.365 -0.4236 -0.3649  0.2990
   17MOL   C458 8490   2.354   4.007   1.245  0.0604 -0.0895 -0.2194
   17MOL   C459 8491   2.506   4.021   1.268  0.5773 -0.4512 -0.7579
   17MOL   C460 8492   2.583   4.139   1.252  0.8308  0.7667  0.5688
   17MOL   C461 8493   2.728   4.133   1.275  0.6713  0.6776  0.0389
   17MOL   C462 8494   2.785   4.012   1.329 -0.9557  0.3682  0.5176
   17MOL   C463 8495   2.699   3.902   1.343 -0.3407  0.2809 -0.2224
   17MOL   C464 8496   2.564   3.897   1.308  0.6324 -0.3940  0.5275
   17MOL   H465 8497   2.234   3.740   1.511 -0.7740 -1.4532  0.9086
   17MOL   H466 8498   2.312   3.859   1.593  0.3149 -0.6317  4.1158
   17MOL   H467 8499   1.965   3.777   1.471 -0.3587 -0.1218  1.5364
   17MOL   H468 8500   1.896   3.939   1.452  1.0107 -0.4456 -0.5548
   17MOL   H469 8501   1.932   3.870   1.613  3.7013 -1.9756  1.4249
   17MOL   H470 8502   2.329   3.953   1.154 -3.1569  1.2512 -0.2340
   17MOL   H471 8503   2.321   4.110   1.235  0.6480 -0.0815 -2.0424
   17MOL   H472 8504   2.534   4.222   1.204 -0.2901  0.4289  1.0840
   17MOL   H473 8505   2.787   4.220   1.253 -0.4016  1.3058 -0.4196
   17MOL   H474 8506   2.892   4.008   1.339 -0.8164  0.7561 -0.7163
   17MOL   H475 8507   2.737   3.807   1.379 -0.9630 -0.0372 -0.3986
   17MOL   H476 8508   2.516   3.801   1.323  0.4686 -0.0657  2.2411
   17MOL   C477 8509   2.143   4.060   1.567 -0.0340  0.6676 -0.0440
   17MOL   C478 8510   2.061   4.181   1.517 -0.5036  0.1022 -0.6103
   17MOL   C479 8511   2.136   4.320   1.521  0.2954 -0.4308 -0.0449
   17MOL   C480 8512   1.936   4.189   1.604 -0.3005 -0.4059  0.6487
   17MOL   O481 8513   1.935   4.218   1.721 -0.2253  0.1833  0.2388
   17MOL   O482 8514   1.828   4.175   1.527  0.4274 -0.2226 -0.2296
   17MOL   C483 8515   1.696   4.184   1.577  0.1604 -1.0093  0.0689
   17MOL   C484 8516   1.633   4.047   1.571  0.0729  0.0642  0.0810
   17MOL   C485 8517   1.555   4.007   1.463  0.6750  0.1976  0.5968
   17MOL   C486 8518   1.506   3.877   1.445 -0.1961 -0.6500  0.3348
   17MOL   C487 8519   1.518   3.789   1.554  0.1266 -0.0811 -0.1813
   17MOL   C488 8520   1.581   3.824   1.672  0.0348 -0.0878 -0.3594
   17MOL   C489 8521   1.642   3.954   1.681  0.1700  0.2494  0.0714
   17MOL   H490 8522   2.252   4.072   1.566 -0.0913  1.0446 -1.9675
   17MOL   H491 8523   2.132   4.057   1.676  2.4252  1.1213  0.2588
   17MOL   H492 8524   2.069   4.403   1.543  0.3759  0.8897 -4.3572
   17MOL   H493 8525   2.165   4.352   1.420  0.4173  0.1705  0.1773
   17MOL   H494 8526   2.219   4.325   1.590  0.7362 -2.0152 -0.4515
   17MOL   H495 8527   1.694   4.228   1.677  0.9085  0.4656 -0.5418
   17MOL   H496 8528   1.631   4.246   1.515  0.5845 -1.1386 -0.5056
   17MOL   H497 8529   1.531   4.074   1.382  0.0232  0.9990  1.4311
   17MOL   H498 8530   1.454   3.855   1.353 -0.3296  0.2690  0.1867
   17MOL   H499 8531   1.476   3.689   1.547  0.1618 -0.0666 -0.6161
   17MOL   H500 8532   1.590   3.754   1.754 -1.9431 -1.9619 -1.6704
   17MOL   H501 8533   1.694   3.982   1.772  1.7802  1.5993 -1.2449
   17MOL   H502 8534   2.031   4.176   1.412 -2.7228  0.2915 -0.0157
   18MOL     C1 8535   5.381   4.285   2.271 -0.5332 -0.4146 -0.3285
   18MOL     C2 8536   5.313   4.147   2.247 -1.2189  0.0293 -0.3474
   18MOL     C3 8537   5.429   4.050   2.193 -0.3777 -0.1135  0.1489
   18MOL     C4 8538   5.203   4.157   2.140  0.8930  0.2474  0.0488
   18MOL     O5 8539   5.168   4.264   2.086 -0.1060  0.4221 -0.1372
   18MOL     O6 8540   5.157   4.037   2.105 -0.0158  0.3968  0.5035
   18MOL     C7 8541   5.075   4.021   1.990 -0.9829 -0.5631 -0.1157
   18MOL     C8 8542   4.959   3.926   2.010  0.2410 -0.4433  0.4309
   18MOL     C9 8543   4.952   3.847   2.129 -0.0688  0.4257 -0.2437
   18MOL    C10 8544   4.830   3.777   2.152  0.5367  0.2017 -0.8078
   18MOL    C11 8545   4.735   3.769   2.051 -0.3510 -0.1576 -0.3093
   18MOL    C12 8546   4.741   3.844   1.930 -0.8487  0.1228  0.3263
   18MOL    C13 8547   4.859   3.918   1.907  0.3683 -0.0086  0.2019
   18MOL    H14 8548   5.318   4.373   2.258 -1.1598 -0.6575  0.9323
   18MOL    H15 8549   5.425   4.304   2.369 -2.3258 -1.2761  0.6676
   18MOL    H16 8550   5.417   4.026   2.087 -2.9314 -0.3152  0.4517
   18MOL    H17 8551   5.422   3.955   2.246  0.8352  0.4643  1.3691
   18MOL    H18 8552   5.528   4.085   2.221 -0.3067 -1.5947  1.7984
   18MOL    H19 8553   5.021   4.111   1.960  0.2125 -0.1685 -1.1475
   18MOL    H20 8554   5.139   4.001   1.904  0.7075 -0.0623  0.9880
   18MOL    H21 8555   5.030   3.840   2.203  1.9309  0.9466 -2.2598
   18MOL    H22 8556   4.818   3.723   2.245 -1.5787  3.5213  0.9141
   18MOL    H23 8557   4.654   3.702   2.075 -0.0932 -0.7914 -1.1607
   18MOL    H24 8558   4.660   3.833   1.859  1.8602  1.1336 -3.0536
   18MOL    H25 8559   4.869   3.973   1.814 -3.7697 -0.7320 -0.7413
   18MOL    H26 8560   5.455   4.297   2.193 -0.0246 -1.6356 -0.0439
   18MOL    C27 8561   5.258   4.090   2.380 -0.3693  0.1267  0.1695
   18MOL    C28 8562   5.133   4.156   2.459 -0.4615 -0.5220  0.1657
   18MOL    C29 8563   4.995   4.162   2.387  0.2885 -0.0940 -0.4040
   18MOL    C30 8564   5.172   4.300   2.509  0.3402 -0.0422  0.1962
   18MOL    O31 8565   5.119   4.403   2.461 -0.0779 -0.4591 -0.1510
   18MOL    O32 8566   5.272   4.299   2.597 -0.1535 -0.0447 -0.2024
   18MOL    C33 8567   5.314   4.416   2.666  0.0547 -0.7689  0.2641
   18MOL    C34 8568   5.429   4.489   2.596 -0.2527  0.8981 -0.2110
   18MOL    C35 8569   5.405   4.586   2.499  1.0468  0.5419 -0.0698
   18MOL    C36 8570   5.511   4.638   2.427  0.0173  0.4795 -0.4857
   18MOL    C37 8571   5.645   4.592   2.457 -0.0284 -0.2634  0.4263
   18MOL    C38 8572   5.667   4.504   2.564 -0.3655  0.1421  0.0748
   18MOL    C39 8573   5.557   4.455   2.636  0.8128 -0.7642  0.8426
   18MOL    H40 8574   5.342   4.073   2.448  0.9233  0.7726 -1.2286
   18MOL    H41 8575   5.239   3.985   2.358  2.1572 -0.5113  0.8194
   18MOL    H42 8576   4.921   4.200   2.458  0.7220 -1.1260  0.6224
   18MOL    H43 8577   4.949   4.071   2.348 -0.3113 -0.6427  1.5075
   18MOL    H44 8578   4.990   4.248   2.320 -2.0484  0.3690  0.3066
   18MOL    H45 8579   5.226   4.479   2.680  0.5367 -0.5177  2.3208
   18MOL    H46 8580   5.344   4.402   2.770 -2.8086 -1.9761  0.9645
   18MOL    H47 8581   5.305   4.621   2.475  1.1831 -0.1988 -1.8090
   18MOL    H48 8582   5.497   4.711   2.348 -2.5120 -1.0667 -1.5273
   18MOL    H49 8583   5.731   4.623   2.401  0.3641 -2.1807 -0.0711
   18MOL    H50 8584   5.768   4.478   2.593 -0.2083  2.6209  1.9261
   18MOL    H51 8585   5.571   4.381   2.714  0.4460 -1.6084  0.1156
   18MOL    C52 8586   5.122   4.069   2.595  0.4755 -0.3233  0.0424
   18MOL    C53 8587   5.036   3.938   2.609 -0.2231 -0.4536  0.4556
   18MOL    C54 8588   5.061   3.835   2.492 -0.1348  0.1379  0.2276
   18MOL    C55 8589   4.882   3.971   2.611  0.1162 -0.2474 -0.8058
   18MOL    O56 8590   4.800   3.907   2.545 -0.0397  0.0848  0.7298
   18MOL    O57 8591   4.840   4.061   2.702  0.0527  0.2795  0.6458
   18MOL    C58 8592   4.707   4.100   2.705  0.2800  0.2879  0.2564
   18MOL    C59 8593   4.677   4.191   2.828  0.2821  0.1881  0.1130
   18MOL    C60 8594   4.727   4.162   2.956  0.0392  0.3125 -0.0916
   18MOL    C61 8595   4.701   4.249   3.062 -0.2543 -0.3644 -0.6008
   18MOL    C62 8596   4.610   4.357   3.043  0.2508  0.0140  0.0005
   18MOL    C63 8597   4.549   4.383   2.921 -0.2403 -0.2433  0.4785
   18MOL    C64 8598   4.593   4.303   2.809  0.5437 -0.0573 -1.1278
   18MOL    H65 8599   5.084   4.133   2.674  2.1586 -0.2378  0.8154
   18MOL    H66 8600   5.222   4.052   2.636  0.9706  0.2295 -0.8911
   18MOL    H67 8601   5.043   3.894   2.402 -0.6173  0.9582  0.8512
   18MOL    H68 8602   4.989   3.753   2.493 -1.8682  1.6355  0.7458
   18MOL    H69 8603   5.164   3.803   2.481 -0.7061 -1.1183 -1.7971
   18MOL    H70 8604   4.671   4.146   2.613  0.7156 -1.2582 -0.7072
   18MOL    H71 8605   4.639   4.016   2.715  0.7142 -0.1299 -0.2143
   18MOL    H72 8606   4.799   4.082   2.969 -1.0530 -0.3378  2.2137
   18MOL    H73 8607   4.743   4.232   3.160 -0.7395 -2.3448 -0.7233
   18MOL    H74 8608   4.592   4.418   3.130  3.2199 -1.5332  1.7966
   18MOL    H75 8609   4.485   4.469   2.907 -1.6773 -1.4519 -0.4987
   18MOL    H76 8610   4.563   4.328   2.709  1.3562 -2.3251 -1.9701
   18MOL    C77 8611   5.090   3.876   2.743 -0.3214  0.2572 -0.0378
   18MOL    C78 8612   5.066   3.734   2.797 -0.3108 -0.3722 -0.1847
   18MOL    C79 8613   5.156   3.638   2.714 -0.1375  0.3561  0.1417
   18MOL    C80 8614   4.917   3.699   2.787 -1.4701  0.5322 -0.2287
   18MOL    O81 8615   4.883   3.606   2.716  0.4228 -0.0870 -0.0295
   18MOL    O82 8616   4.841   3.775   2.859  0.3499  0.7026  0.0481
   18MOL    C83 8617   4.704   3.755   2.861 -0.0967 -0.0933  0.1997
   18MOL    C84 8618   4.643   3.694   2.989  0.2907 -0.1212 -0.6633
   18MOL    C85 8619   4.579   3.762   3.091  1.7393 -0.0125 -0.6105
   18MOL    C86 8620   4.539   3.699   3.207 -0.5349 -0.5019 -0.3605
   18MOL    C87 8621   4.567   3.569   3.228 -0.0932  0.2148  0.2947
   18MOL    C88 8622   4.637   3.501   3.129 -0.1835  0.3102 -0.5417
   18MOL    C89 8623   4.677   3.562   3.010  0.2523  0.1807 -0.2747
   18MOL    H90 8624   5.061   3.950   2.818  0.5190 -1.6551  2.2171
   18MOL    H91 8625   5.199   3.875   2.756 -0.2117 -0.5505 -1.0449
   18MOL    H92 8626   5.257   3.677   2.699  0.7427 -2.0720 -0.5257
   18MOL    H93 8627   5.112   3.612   2.617  1.7611  1.7547 -1.1480
   18MOL    H94 8628   5.161   3.538   2.756 -0.5090 -0.3819 -1.5060
   18MOL    H95 8629   4.658   3.852   2.842  2.6529  1.2389  0.0597
   18MOL    H96 8630   4.669   3.689   2.781 -1.2107  0.8102 -0.0666
   18MOL    H97 8631   4.549   3.865   3.077  2.4807  0.5653  1.7521
   18MOL    H98 8632   4.487   3.760   3.280  1.8397  0.4739  0.5474
   18MOL    H99 8633   4.527   3.516   3.314  2.4994 -0.9996  0.8246
   18MOL   H100 8634   4.661   3.396   3.143 -0.2452  0.6764  2.7677
   18MOL   H101 8635   4.724   3.497   2.938 -1.1034  1.6384 -2.5142
   18MOL   C102 8636   5.113   3.702   2.945  0.6703 -0.3338 -0.7727
   18MOL   C103 8637   5.122   3.805   3.064 -0.7397  0.2406 -0.4834
   18MOL   C104 8638   4.981   3.865   3.088  0.2344  0.7307  0.5914
   18MOL   C105 8639   5.225   3.922   3.044 -0.1494 -0.0539 -0.3638
   18MOL   O106 8640   5.212   4.030   3.099 -0.1430  0.0034  0.0856
   18MOL   O107 8641   5.324   3.888   2.963 -0.2036 -0.0077  0.2940
   18MOL   C108 8642   5.424   3.982   2.926  0.2056 -0.4427 -0.8427
   18MOL   C109 8643   5.482   3.951   2.792 -0.6948  0.3264  0.3459
   18MOL   C110 8644   5.503   4.055   2.704  0.1692 -0.0105  0.6340
   18MOL   C111 8645   5.547   4.030   2.572  0.4739  0.5960  0.7912
   18MOL   C112 8646   5.562   3.898   2.532 -0.4713  0.0545  0.2525
   18MOL   C113 8647   5.557   3.791   2.620  0.8037  0.0492  0.2369
   18MOL   C114 8648   5.513   3.818   2.754 -0.4666  0.3435  0.0228
   18MOL   H115 8649   5.215   3.665   2.937  0.7540 -0.5033  0.8703
   18MOL   H116 8650   5.067   3.616   2.992  2.2326 -1.3602 -1.0784
   18MOL   H117 8651   4.970   3.914   3.185 -1.0714  0.5112  0.5598
   18MOL   H118 8652   4.910   3.782   3.084  0.6892  0.2677  2.0079
   18MOL   H119 8653   4.943   3.937   3.015 -0.4297  0.0106  0.2192
   18MOL   H120 8654   5.386   4.084   2.929 -0.5222 -0.7077 -0.8444
   18MOL   H121 8655   5.507   3.972   2.996  1.2552 -1.9068 -2.2419
   18MOL   H122 8656   5.495   4.159   2.733  1.0972  1.0691 -2.7165
   18MOL   H123 8657   5.577   4.105   2.501 -0.5101 -0.9324 -1.2849
   18MOL   H124 8658   5.591   3.877   2.430  4.0508  3.2981  0.7270
   18MOL   H125 8659   5.572   3.690   2.585 -2.9889 -1.0987  1.6894
   18MOL   H126 8660   5.505   3.743   2.831  2.9236  1.9502  2.0418
   18MOL   C127 8661   5.154   3.715   3.197  0.2462  0.5447 -0.1809
   18MOL   C128 8662   5.298   3.647   3.228 -0.0364  0.1361  0.0899
   18MOL   C129 8663   5.429   3.745   3.209  0.3440 -0.4714  0.0044
   18MOL   C130 8664   5.307   3.530   3.122 -0.3913 -0.3332 -0.1513
   18MOL   O131 8665   5.235   3.428   3.141  0.0126  0.5548 -0.1063
   18MOL   O132 8666   5.396   3.543   3.014 -0.2935 -0.3471 -0.4023
   18MOL   C133 8667   5.408   3.431   2.928 -0.4566  0.5564 -0.4994
   18MOL   C134 8668   5.542   3.431   2.860 -0.2542 -0.8284 -0.0249
   18MOL   C135 8669   5.665   3.467   2.928 -0.0195 -1.1487  0.3898
   18MOL   C136 8670   5.788   3.469   2.866  0.2061 -0.6124  0.6268
   18MOL   C137 8671   5.791   3.435   2.729 -0.1165 -0.9165 -0.0698
   18MOL   C138 8672   5.676   3.401   2.655 -0.3758 -0.6937  0.3205
   18MOL   C139 8673   5.550   3.406   2.722  0.6279 -0.7189  0.1948
   18MOL   H140 8674   5.073   3.650   3.229  0.8343 -0.7119 -1.2138
   18MOL   H141 8675   5.146   3.791   3.275  0.9734 -0.1980  0.6374
   18MOL   H142 8676   5.520   3.693   3.237  0.7691 -0.3142 -1.0560
   18MOL   H143 8677   5.420   3.837   3.266  0.3110 -0.5927  0.1989
   18MOL   H144 8678   5.444   3.770   3.104  0.8759  0.7510  0.3738
   18MOL   H145 8679   5.397   3.335   2.978 -2.4369  1.3761  0.7085
   18MOL   H146 8680   5.322   3.438   2.861  0.3101  0.0659 -1.5503
   18MOL   H147 8681   5.662   3.494   3.033 -0.9121  0.6859 -0.0719
   18MOL   H148 8682   5.877   3.482   2.924 -0.6367  2.0466  1.3824
   18MOL   H149 8683   5.888   3.415   2.687  0.5100  1.1917  0.3413
   18MOL   H150 8684   5.690   3.384   2.549  0.2207  2.1168 -0.1023
   18MOL   H151 8685   5.466   3.387   2.657  0.5606  1.7952 -0.4888
   18MOL   C152 8686   5.293   3.592   3.377 -0.0428  0.3676 -0.1692
   18MOL   C153 8687   5.415   3.545   3.468  0.7792  0.4761 -0.0954
   18MOL   C154 8688   5.512   3.663   3.496 -0.0119 -0.4296  0.1195
   18MOL   C155 8689   5.499   3.427   3.409  1.0838 -0.6663  0.4065
   18MOL   O156 8690   5.473   3.364   3.309  0.0453 -0.5591  0.3265
   18MOL   O157 8691   5.601   3.410   3.495  0.3929 -0.2649 -0.2399
   18MOL   C158 8692   5.701   3.304   3.470 -0.3381 -0.3914  0.1470
   18MOL   C159 8693   5.837   3.357   3.434  0.2801 -0.2717  0.6153
   18MOL   C160 8694   5.859   3.463   3.345 -0.0672 -0.2288 -0.5820
   18MOL   C161 8695   5.988   3.491   3.315  0.1297 -0.2558 -0.1622
   18MOL   C162 8696   6.096   3.424   3.387 -0.4649  0.5812 -0.1202
   18MOL   C163 8697   6.075   3.328   3.483  1.0546  0.5152 -0.3117
   18MOL   C164 8698   5.943   3.293   3.502  0.9595 -0.2078 -0.5205
   18MOL   H165 8699   5.215   3.518   3.362 -0.3104  0.4460  0.8180
   18MOL   H166 8700   5.261   3.673   3.443  2.0122  0.2290  1.0448
   18MOL   H167 8701   5.597   3.679   3.430  0.3178 -1.2142  0.3433
   18MOL   H168 8702   5.561   3.661   3.594  0.5252  0.6902 -0.1136
   18MOL   H169 8703   5.457   3.756   3.502 -2.6371 -1.8717 -0.8039
   18MOL   H170 8704   5.705   3.233   3.553 -1.4224 -0.3109  0.2821
   18MOL   H171 8705   5.669   3.247   3.382 -0.4210  0.7495 -0.5731
   18MOL   H172 8706   5.783   3.517   3.289  1.2511  2.1860 -0.1074
   18MOL   H173 8707   6.011   3.578   3.255  1.2204 -0.5531 -0.1823
   18MOL   H174 8708   6.197   3.454   3.366 -0.3963  1.0064  0.8157
   18MOL   H175 8709   6.153   3.264   3.523  0.8497 -0.0253 -0.7613
   18MOL   H176 8710   5.914   3.202   3.553  0.2235 -0.7032 -1.7855
   18MOL   C177 8711   5.362   3.511   3.610 -0.5896  1.0822 -0.6369
   18MOL   C178 8712   5.244   3.411   3.650  0.4215  0.0506 -0.2969
   18MOL   C179 8713   5.276   3.374   3.794  0.7593  0.0768  0.4309
   18MOL   C180 8714   5.252   3.281   3.561  0.2383 -0.2027  0.5417
   18MOL   O181 8715   5.325   3.181   3.591 -0.1141  0.4770  0.5734
   18MOL   O182 8716   5.179   3.291   3.443 -0.4821 -0.7601 -0.0656
   18MOL   C183 8717   5.185   3.184   3.349 -0.8014  0.3740  0.8390
   18MOL   C184 8718   5.113   3.057   3.387 -0.0923  0.0247  0.5000
   18MOL   C185 8719   4.976   3.055   3.419  0.0031  0.1200  0.1286
   18MOL   C186 8720   4.906   2.934   3.448  0.3001  0.5719  0.3833
   18MOL   C187 8721   4.973   2.807   3.440  0.0064  0.1570  0.1181
   18MOL   C188 8722   5.111   2.810   3.402  0.4076  0.1835  0.0269
   18MOL   C189 8723   5.178   2.929   3.373  0.2178 -0.5349  0.3889
   18MOL   H190 8724   5.336   3.610   3.647  0.8961 -0.0001  3.6723
   18MOL   H191 8725   5.441   3.468   3.672 -1.0799  2.6415  1.1263
   18MOL   H192 8726   5.213   3.297   3.837  0.4001  1.0935  1.7603
   18MOL   H193 8727   5.277   3.461   3.860 -0.0270 -0.4225  1.1213
   18MOL   H194 8728   5.371   3.321   3.805  0.7099 -0.2014 -0.4711
   18MOL   H195 8729   5.130   3.218   3.261 -1.3641  2.0575  1.8030
   18MOL   H196 8730   5.290   3.170   3.324 -0.9784  0.8244 -0.2016
   18MOL   H197 8731   4.923   3.149   3.427 -0.9070 -0.2471 -1.5587
   18MOL   H198 8732   4.799   2.939   3.466  0.0603  0.8527 -1.0751
   18MOL   H199 8733   4.927   2.712   3.461  0.1376 -0.0023 -0.3065
   18MOL   H200 8734   5.151   2.713   3.379  3.2515  1.2679  0.1799
   18MOL   H201 8735   5.283   2.917   3.349  0.2455 -1.3625  0.9011
   18MOL   C202 8736   5.108   3.486   3.638  0.5059 -0.5562  0.3612
   18MOL   C203 8737   4.968   3.433   3.692  0.4533 -0.2549 -0.6416
   18MOL   C204 8738   4.953   3.280   3.701 -0.3141  0.2136 -0.5936
   18MOL   C205 8739   4.869   3.480   3.582  0.0767 -0.1393 -0.5283
   18MOL   O206 8740   4.797   3.403   3.512 -0.6558  0.0316 -0.2774
   18MOL   O207 8741   4.880   3.614   3.559 -0.1184 -0.9858 -0.0693
   18MOL   C208 8742   4.779   3.670   3.477 -0.1849 -0.5009 -0.1695
   18MOL   C209 8743   4.750   3.817   3.510  0.5175  0.4686  0.1957
   18MOL   C210 8744   4.739   3.912   3.409 -0.2120 -0.5592  1.3656
   18MOL   C211 8745   4.707   4.042   3.439 -0.5146 -0.1187  0.3841
   18MOL   C212 8746   4.698   4.091   3.567 -0.7515  0.6548  0.3112
   18MOL   C213 8747   4.705   3.995   3.674 -0.6342 -0.5204 -0.2594
   18MOL   C214 8748   4.736   3.859   3.646 -0.5639  0.0868  0.2970
   18MOL   H215 8749   5.101   3.523   3.536  1.0638 -0.2950  0.4195
   18MOL   H216 8750   5.126   3.584   3.682 -2.2670  1.5153 -2.8979
   18MOL   H217 8751   4.862   3.264   3.759  0.5190  0.0907  0.6960
   18MOL   H218 8752   5.027   3.228   3.762 -2.3963 -0.2581  1.5918
   18MOL   H219 8753   4.967   3.224   3.608  2.6459 -1.8395  1.0276
   18MOL   H220 8754   4.823   3.648   3.380  2.3443 -0.9706  1.0323
   18MOL   H221 8755   4.690   3.609   3.494 -1.2501  1.3102  0.9931
   18MOL   H222 8756   4.752   3.884   3.306  3.3383  2.1287  0.9768
   18MOL   H223 8757   4.705   4.109   3.354 -1.0004 -0.7835 -0.1314
   18MOL   H224 8758   4.664   4.192   3.586 -1.2341  0.5887 -0.1824
   18MOL   H225 8759   4.677   4.022   3.775  1.2993  0.0843  0.1382
   18MOL   H226 8760   4.749   3.782   3.721  1.6844  2.6562  2.6772
   18MOL   C227 8761   4.940   3.504   3.828 -0.7808  0.7990 -0.2351
   18MOL   C228 8762   4.816   3.480   3.925  0.2432 -0.4186 -0.2764
   18MOL   C229 8763   4.805   3.605   4.026 -0.7966  0.6852  0.3105
   18MOL   C230 8764   4.850   3.351   4.010  0.2345 -0.1266 -1.0497
   18MOL   O231 8765   4.796   3.241   3.992 -0.6609  0.1797  0.1598
   18MOL   O232 8766   4.949   3.376   4.097 -0.0350  0.4313 -0.0724
   18MOL   C233 8767   4.992   3.295   4.208 -0.1360 -0.0843 -0.3143
   18MOL   C234 8768   4.957   3.371   4.323 -0.4453 -0.5001 -0.0908
   18MOL   C235 8769   5.057   3.427   4.409  0.4589  0.2086  0.2367
   18MOL   C236 8770   5.029   3.497   4.521 -0.4768  0.1442 -0.3703
   18MOL   C237 8771   4.895   3.515   4.567  0.5033 -0.2815  0.2074
   18MOL   C238 8772   4.794   3.459   4.484 -0.3438  0.8400 -0.2571
   18MOL   C239 8773   4.822   3.385   4.365 -0.3149 -0.2936 -0.0145
   18MOL   H240 8774   4.953   3.611   3.811 -0.6299  1.1856  2.0926
   18MOL   H241 8775   5.024   3.478   3.892 -1.6261  2.8051  1.7418
   18MOL   H242 8776   4.903   3.642   4.055 -0.4406  1.1528 -1.4409
   18MOL   H243 8777   4.751   3.571   4.115  0.3811 -2.2841 -0.0460
   18MOL   H244 8778   4.757   3.691   3.980  2.7282  2.2087 -0.6470
   18MOL   H245 8779   4.947   3.196   4.221  0.7602 -0.4351  0.2506
   18MOL   H246 8780   5.100   3.278   4.208 -0.2081 -0.5654 -0.1547
   18MOL   H247 8781   5.158   3.411   4.376  0.0358 -0.6325 -0.6573
   18MOL   H248 8782   5.113   3.542   4.574  0.2520  0.7406 -2.0038
   18MOL   H249 8783   4.880   3.566   4.661 -0.0860 -2.7106  1.4662
   18MOL   H250 8784   4.689   3.463   4.507 -0.1985 -0.9764  0.7714
   18MOL   H251 8785   4.744   3.333   4.311 -1.5252 -0.5327  1.8817
   18MOL   C252 8786   4.686   3.473   3.834 -0.0399  0.2242  0.0492
   18MOL   C253 8787   4.535   3.498   3.866 -0.6763 -0.2925  0.4322
   18MOL   C254 8788   4.514   3.651   3.890  0.2936  0.1608  0.5759
   18MOL   C255 8789   4.501   3.427   3.998  1.3840 -0.4046  1.3539
   18MOL   O256 8790   4.461   3.488   4.093 -0.2450  0.6332  0.2929
   18MOL   O257 8791   4.513   3.296   3.994 -0.6383 -0.2536  0.1834
   18MOL   C258 8792   4.482   3.213   4.098 -0.1453 -1.0016 -0.0925
   18MOL   C259 8793   4.341   3.152   4.078 -0.0886  0.5403  0.0945
   18MOL   C260 8794   4.305   3.095   3.952  0.3741 -0.7169  0.3615
   18MOL   C261 8795   4.179   3.028   3.943  0.0085  0.8131 -0.2135
   18MOL   C262 8796   4.092   3.021   4.059  0.2550 -0.1218  0.6027
   18MOL   C263 8797   4.128   3.085   4.177 -0.2541  0.1353  0.2498
   18MOL   C264 8798   4.260   3.138   4.191 -0.6668  0.1344 -0.6290
   18MOL   H265 8799   4.683   3.369   3.800  0.1360  0.7304 -1.5954
   18MOL   H266 8800   4.700   3.537   3.747 -2.4039 -0.0034 -0.5159
   18MOL   H267 8801   4.557   3.712   3.810 -0.4362 -0.4867 -0.3230
   18MOL   H268 8802   4.552   3.689   3.985  1.5227 -2.2942  1.0910
   18MOL   H269 8803   4.409   3.680   3.896  0.4817  1.6829 -2.5606
   18MOL   H270 8804   4.555   3.132   4.102  0.1206 -0.7470  0.2459
   18MOL   H271 8805   4.486   3.262   4.195  0.8947  0.8594 -1.0580
   18MOL   H272 8806   4.375   3.096   3.870  0.5545 -1.6826  0.5113
   18MOL   H273 8807   4.146   2.981   3.852  0.7398  0.8681 -0.5101
   18MOL   H274 8808   4.002   2.962   4.054 -0.3707  0.5833  3.1832
   18MOL   H275 8809   4.060   3.087   4.261 -1.3354 -1.0656 -0.5904
   18MOL   H276 8810   4.298   3.177   4.285 -1.8991 -1.0731  0.3788
   18MOL   C277 8811   4.447   3.447   3.735 -0.1174 -0.4985 -0.8251
   18MOL   C278 8812   4.310   3.504   3.685 -0.3466  0.2578 -0.4759
   18MOL   C279 8813   4.358   3.630   3.601  0.5945  0.6815  0.3941
   18MOL   C280 8814   4.209   3.530   3.802 -0.4315  0.2192 -0.0077
   18MOL   O281 8815   4.140   3.631   3.802 -0.2693  0.5683 -0.0254
   18MOL   O282 8816   4.199   3.433   3.894 -0.4544 -0.0257  0.3282
   18MOL   C283 8817   4.115   3.438   4.016  0.1186 -0.5193  0.2666
   18MOL   C284 8818   3.970   3.405   3.993 -0.3910 -0.4101 -0.0418
   18MOL   C285 8819   3.934   3.303   3.904 -0.6758 -0.1004  0.4388
   18MOL   C286 8820   3.801   3.265   3.887  0.2961 -0.4413  0.4466
   18MOL   C287 8821   3.704   3.328   3.966 -0.0165  0.5130 -0.2973
   18MOL   C288 8822   3.737   3.437   4.055 -0.1871  0.0878  0.5990
   18MOL   C289 8823   3.871   3.478   4.063  0.2952 -0.4875  0.8308
   18MOL   H290 8824   4.418   3.343   3.751  0.4987 -0.5570 -0.0693
   18MOL   H291 8825   4.509   3.440   3.646  0.9641 -0.9025 -0.0432
   18MOL   H292 8826   4.400   3.601   3.505  0.8605  2.7105 -0.1353
   18MOL   H293 8827   4.432   3.697   3.645  1.4431  0.5661 -0.8485
   18MOL   H294 8828   4.275   3.697   3.579  0.2124 -0.5503 -1.9801
   18MOL   H295 8829   4.161   3.366   4.083 -0.7626 -0.3452  1.0725
   18MOL   H296 8830   4.131   3.532   4.069  1.7888  0.0934 -1.2639
   18MOL   H297 8831   4.019   3.254   3.858 -0.0507 -2.1204  3.6378
   18MOL   H298 8832   3.768   3.187   3.820 -0.3630 -0.4442  0.7696
   18MOL   H299 8833   3.599   3.308   3.955  0.2042 -0.9926  0.3128
   18MOL   H300 8834   3.667   3.485   4.121  0.5505  0.7890  0.8784
   18MOL   H301 8835   3.895   3.553   4.138 -1.6457 -0.8046  1.7950
   18MOL   C302 8836   4.247   3.399   3.578 -0.7373 -0.8320 -0.1431
   18MOL   C303 8837   4.119   3.427   3.487 -0.3650 -0.0663  0.3942
   18MOL   C304 8838   4.036   3.299   3.494  0.5892  1.0565  0.4354
   18MOL   C305 8839   4.175   3.453   3.347  0.1849 -0.2246 -0.3127
   18MOL   O306 8840   4.230   3.562   3.319 -0.0229 -0.1980  0.1255
   18MOL   O307 8841   4.175   3.346   3.268  0.0985  0.2959  0.1883
   18MOL   C308 8842   4.198   3.366   3.129 -0.5596 -0.2510  0.1613
   18MOL   C309 8843   4.181   3.244   3.048 -0.4651  0.1030  0.1410
   18MOL   C310 8844   4.085   3.148   3.087  0.5105  0.0053  0.2794
   18MOL   C311 8845   4.062   3.035   3.011  0.0978 -0.1410 -0.1859
   18MOL   C312 8846   4.142   3.007   2.901  0.4603 -0.3679  0.1515
   18MOL   C313 8847   4.233   3.100   2.857 -0.2931  0.0872 -0.1665
   18MOL   C314 8848   4.259   3.214   2.933 -0.5805 -0.7095 -0.3624
   18MOL   H315 8849   4.228   3.306   3.632 -2.3669 -0.9844 -0.9613
   18MOL   H316 8850   4.332   3.370   3.517  0.7057  0.6545  1.1360
   18MOL   H317 8851   3.958   3.300   3.418  0.4200  0.2990  0.5937
   18MOL   H318 8852   3.985   3.279   3.589  0.9997 -0.0853  0.4249
   18MOL   H319 8853   4.102   3.216   3.470  3.0491  3.3853 -1.1735
   18MOL   H320 8854   4.121   3.443   3.119 -0.5532 -0.6194 -3.0877
   18MOL   H321 8855   4.292   3.414   3.104 -0.7776  0.5854  0.9018
   18MOL   H322 8856   4.015   3.166   3.167  0.1945 -1.2943  0.3051
   18MOL   H323 8857   3.989   2.965   3.050  3.0694 -2.0088  2.2409
   18MOL   H324 8858   4.132   2.921   2.836  0.1079  1.3329 -2.1222
   18MOL   H325 8859   4.283   3.083   2.764 -0.0254  0.7247 -0.1449
   18MOL   H326 8860   4.329   3.285   2.892 -1.0150 -0.0690 -0.0172
   18MOL   C327 8861   4.028   3.550   3.530 -0.6915  0.1243  0.9848
   18MOL   C328 8862   3.902   3.611   3.450  0.3801  0.6252  0.4310
   18MOL   C329 8863   3.796   3.501   3.446 -0.4697  0.2362 -0.2413
   18MOL   C330 8864   3.938   3.670   3.311  0.8410  0.0733  0.1499
   18MOL   O331 8865   3.893   3.614   3.210  0.0300  0.3242  0.7284
   18MOL   O332 8866   4.024   3.780   3.308 -0.1137  0.6113 -0.2944
   18MOL   C333 8867   4.068   3.828   3.186  0.2100 -0.5406 -0.0879
   18MOL   C334 8868   4.178   3.934   3.197  0.3674  0.4415 -0.5213
   18MOL   C335 8869   4.205   4.019   3.093  0.6753  0.2591  0.4780
   18MOL   C336 8870   4.308   4.113   3.100 -0.7861 -0.0914  0.2965
   18MOL   C337 8871   4.393   4.110   3.217  0.0880  0.1783  0.4894
   18MOL   C338 8872   4.356   4.029   3.325 -0.0093  0.2255  0.8152
   18MOL   C339 8873   4.249   3.938   3.316 -0.2848  0.1314 -0.2244
   18MOL   H340 8874   4.091   3.638   3.542  1.4615 -1.4550  1.5562
   18MOL   H341 8875   4.004   3.520   3.632 -0.8373  0.4878  1.0591
   18MOL   H342 8876   3.774   3.448   3.538  0.6333 -0.3356 -0.3033
   18MOL   H343 8877   3.825   3.427   3.371  0.0600  0.6134 -0.4082
   18MOL   H344 8878   3.696   3.528   3.410  0.0918 -0.6001 -2.5111
   18MOL   H345 8879   4.104   3.749   3.120  0.2171 -0.9913  0.4502
   18MOL   H346 8880   3.988   3.879   3.133  1.6953  0.6959 -1.1935
   18MOL   H347 8881   4.160   3.998   2.997  3.3825  1.1588 -1.0357
   18MOL   H348 8882   4.334   4.174   3.014 -3.2031  1.3190  0.5144
   18MOL   H349 8883   4.469   4.188   3.220 -1.3196  1.5722  0.6169
   18MOL   H350 8884   4.404   4.043   3.420 -0.3812 -0.5270  1.1137
   18MOL   H351 8885   4.221   3.875   3.399  2.2486  0.5635  1.0065
   18MOL   C352 8886   3.853   3.726   3.545 -1.1970  0.5905  0.7728
   18MOL   C353 8887   3.728   3.816   3.506 -0.8803 -0.2494  0.3963
   18MOL   C354 8888   3.605   3.741   3.440 -0.6263 -0.4040  0.0004
   18MOL   C355 8889   3.777   3.929   3.416  1.0061  0.1636  0.1795
   18MOL   O356 8890   3.732   3.937   3.299  0.7554 -0.2548 -0.7194
   18MOL   O357 8891   3.871   4.012   3.467  0.1904 -0.1659  0.5378
   18MOL   C358 8892   3.907   4.133   3.394  0.3597  0.2396 -0.1540
   18MOL   C359 8893   3.798   4.233   3.398  0.1178 -0.1811  0.1029
   18MOL   C360 8894   3.751   4.297   3.279  0.4837 -0.0634 -0.4216
   18MOL   C361 8895   3.663   4.408   3.282 -0.1559  0.5485  0.1010
   18MOL   C362 8896   3.609   4.437   3.407  0.3368  0.0951  0.0877
   18MOL   C363 8897   3.650   4.371   3.526  0.2264 -0.9546  0.3098
   18MOL   C364 8898   3.746   4.269   3.526 -0.4813 -0.2400  0.3284
   18MOL   H365 8899   3.934   3.796   3.569 -1.6551  0.8822  1.5037
   18MOL   H366 8900   3.836   3.673   3.638  0.8376 -0.0841  0.7984
   18MOL   H367 8901   3.627   3.711   3.337  2.0740  0.7181  0.2123
   18MOL   H368 8902   3.522   3.811   3.426  0.2514  0.5706 -0.4510
   18MOL   H369 8903   3.565   3.666   3.507  1.4605  0.7871  2.6475
   18MOL   H370 8904   3.999   4.180   3.430  1.3163  0.2479 -2.5317
   18MOL   H371 8905   3.923   4.102   3.291 -1.1909  0.2093 -0.3941
   18MOL   H372 8906   3.797   4.268   3.185  1.3946 -0.8989  0.2727
   18MOL   H373 8907   3.637   4.459   3.190 -2.2605  3.2162  2.0682
   18MOL   H374 8908   3.540   4.520   3.409 -1.7323 -1.6027  0.9345
   18MOL   H375 8909   3.614   4.411   3.620 -0.6076  2.9304 -1.5477
   18MOL   H376 8910   3.789   4.221   3.612  1.2081 -2.2111 -1.5547
   18MOL   C377 8911   3.685   3.897   3.639  0.0976  1.2781  0.7764
   18MOL   C378 8912   3.590   3.840   3.750  0.1673  0.1840 -0.1103
   18MOL   C379 8913   3.622   3.688   3.787 -0.0911  0.0413  0.3954
   18MOL   C380 8914   3.442   3.853   3.703  0.2995 -0.4115 -0.4169
   18MOL   O381 8915   3.364   3.760   3.679  0.5094 -0.6946 -0.0147
   18MOL   O382 8916   3.407   3.994   3.705  0.4782 -0.4244 -0.2176
   18MOL   C383 8917   3.271   4.025   3.683 -0.8081 -0.3616  0.7192
   18MOL   C384 8918   3.241   4.043   3.539 -0.0384  0.2797  0.4484
   18MOL   C385 8919   3.110   4.033   3.490 -0.3173 -0.9193 -0.7791
   18MOL   C386 8920   3.083   4.061   3.355  0.1212 -0.0211  0.6373
   18MOL   C387 8921   3.182   4.113   3.269 -0.6499 -0.0262  0.5681
   18MOL   C388 8922   3.312   4.128   3.317 -0.1913 -0.3389  0.2058
   18MOL   C389 8923   3.344   4.087   3.450 -0.1510 -0.8796  0.4288
   18MOL   H390 8924   3.648   3.995   3.608 -1.0708  0.6797  0.2584
   18MOL   H391 8925   3.780   3.925   3.684  1.2634 -0.5441 -0.4592
   18MOL   H392 8926   3.541   3.644   3.845  0.7671 -0.3497  1.3214
   18MOL   H393 8927   3.716   3.684   3.843 -0.0596 -1.5814  0.2634
   18MOL   H394 8928   3.626   3.621   3.701  2.2488  1.1637 -0.4092
   18MOL   H395 8929   3.195   3.954   3.718 -0.2529 -1.3570 -0.0560
   18MOL   H396 8930   3.253   4.114   3.742  0.3620 -2.0743  3.7602
   18MOL   H397 8931   3.035   4.003   3.562 -0.0068  0.0975 -0.0193
   18MOL   H398 8932   2.982   4.046   3.320 -0.2106  1.4565  0.9022
   18MOL   H399 8933   3.161   4.145   3.168 -1.7661 -1.0638  0.4649
   18MOL   H400 8934   3.394   4.162   3.255  1.4569 -0.2306  2.4036
   18MOL   H401 8935   3.443   4.101   3.490  0.1354  0.2460 -0.6466
   18MOL   C402 8936   3.611   3.932   3.877  0.3176 -0.0402 -0.0444
   18MOL   C403 8937   3.568   3.905   4.023 -0.6445  0.1274  0.0693
   18MOL   C404 8938   3.655   3.783   4.073 -0.3934  0.6350  0.3365
   18MOL   C405 8939   3.412   3.881   4.028 -0.3764 -0.1099 -0.8098
   18MOL   O406 8940   3.333   3.969   4.019 -0.4895  0.0208  0.0966
   18MOL   O407 8941   3.385   3.755   4.029 -0.2338 -0.2380  0.4710
   18MOL   C408 8942   3.257   3.698   3.998  0.2156 -0.1490  0.5779
   18MOL   C409 8943   3.248   3.553   3.954  0.0215  0.2297  1.1151
   18MOL   C410 8944   3.185   3.511   3.837  0.6587 -0.1221  0.0275
   18MOL   C411 8945   3.195   3.381   3.796  0.2261 -0.0353 -0.1108
   18MOL   C412 8946   3.247   3.282   3.881 -0.5040 -0.4922  0.3401
   18MOL   C413 8947   3.293   3.318   4.006  0.1690 -0.3386 -0.1856
   18MOL   C414 8948   3.300   3.454   4.039  0.4468 -0.7867 -0.3208
   18MOL   H415 8949   3.590   4.034   3.844 -0.5698 -0.7727 -1.8191
   18MOL   H416 8950   3.719   3.945   3.879  0.1745  1.3588 -0.6388
   18MOL   H417 8951   3.756   3.785   4.034 -0.0789  1.6946  1.1779
   18MOL   H418 8952   3.606   3.687   4.057  2.4948 -1.1855  1.9578
   18MOL   H419 8953   3.666   3.785   4.182 -0.0739 -2.5248  0.4047
   18MOL   H420 8954   3.188   3.722   4.079 -2.7468 -0.0697 -1.8958
   18MOL   H421 8955   3.232   3.768   3.919  1.5882 -0.3870 -0.0917
   18MOL   H422 8956   3.150   3.583   3.764  0.1333 -0.1662  0.2286
   18MOL   H423 8957   3.148   3.353   3.702  0.2024 -1.6516  0.3772
   18MOL   H424 8958   3.241   3.180   3.847  0.6164 -0.7343  0.8479
   18MOL   H425 8959   3.339   3.237   4.061 -1.3694 -0.6212  0.6949
   18MOL   H426 8960   3.339   3.488   4.134  1.6401 -1.1797 -0.6720
   18MOL   C427 8961   3.588   4.020   4.125  0.0692 -0.4330  0.3812
   18MOL   C428 8962   3.728   4.108   4.140 -0.3952  0.3957 -0.3854
   18MOL   C429 8963   3.731   4.200   4.019 -0.3427 -0.2567 -0.1147
   18MOL   C430 8964   3.854   4.019   4.144  0.0162  0.4086  0.5446
   18MOL   O431 8965   3.873   3.946   4.239  0.3932  0.1034 -0.4668
   18MOL   O432 8966   3.943   4.036   4.047  0.0046  0.1591  0.0093
   18MOL   C433 8967   4.056   3.948   4.045  0.0918 -0.3039 -0.5260
   18MOL   C434 8968   4.142   3.958   3.920 -0.3386  0.0809  0.2736
   18MOL   C435 8969   4.094   3.991   3.792 -1.0072 -0.3054  0.8009
   18MOL   C436 8970   4.181   4.030   3.681 -0.5081 -0.4361  0.1603
   18MOL   C437 8971   4.319   4.046   3.706 -0.1329 -0.2570  0.6415
   18MOL   C438 8972   4.365   4.015   3.833  0.6667 -0.1606 -0.1878
   18MOL   C439 8973   4.283   3.963   3.934  0.9962 -0.2094  0.1714
   18MOL   H440 8974   3.559   3.984   4.224  1.0518 -0.4158  0.6818
   18MOL   H441 8975   3.519   4.098   4.092  1.9499  0.0638 -2.6041
   18MOL   H442 8976   3.809   4.276   4.021  1.1971 -1.8252  1.1641
   18MOL   H443 8977   3.645   4.267   4.014 -0.3761 -0.4045 -2.2283
   18MOL   H444 8978   3.753   4.149   3.925  2.3309  1.3624 -0.4240
   18MOL   H445 8979   4.106   3.966   4.140 -1.9132 -1.0623  0.7183
   18MOL   H446 8980   4.027   3.843   4.055  2.4540 -1.1658 -2.4256
   18MOL   H447 8981   3.988   3.989   3.775 -0.8836  0.5232 -0.0782
   18MOL   H448 8982   4.149   4.063   3.583 -1.8496 -0.9489  0.4070
   18MOL   H449 8983   4.381   4.083   3.626  0.2352 -1.1949  0.4872
   18MOL   H450 8984   4.466   4.025   3.868  0.3097 -0.8901  1.0741
   18MOL   H451 8985   4.334   3.940   4.027  0.7514 -1.9320 -0.1143
   18MOL   C452 8986   3.708   4.186   4.276  0.2962  0.8435 -0.3878
   18MOL   C453 8987   3.812   4.277   4.350  1.3179 -0.0490  0.2226
   18MOL   C454 8988   3.735   4.365   4.453  0.1382 -0.6746  0.4284
   18MOL   C455 8989   3.889   4.375   4.260  1.0427 -0.3471 -0.9056
   18MOL   O456 8990   3.852   4.494   4.242  0.4007  0.0347  0.1836
   18MOL   O457 8991   3.998   4.333   4.190  0.8412 -0.0610  0.1913
   18MOL   C458 8992   4.095   4.418   4.125 -0.0367  0.3197 -0.5642
   18MOL   C459 8993   4.232   4.362   4.108  0.2792  0.2251  0.4200
   18MOL   C460 8994   4.260   4.243   4.175 -0.1398  0.7661 -0.7610
   18MOL   C461 8995   4.393   4.195   4.168  0.2466  0.4692 -1.0246
   18MOL   C462 8996   4.493   4.257   4.090  0.3618  0.3870  0.1052
   18MOL   C463 8997   4.466   4.387   4.038  0.0678  0.2995  0.1091
   18MOL   C464 8998   4.334   4.440   4.043 -0.2087 -1.0058  0.2278
   18MOL   H465 8999   3.656   4.122   4.348 -2.5763  0.7695 -2.4457
   18MOL   H466 9000   3.629   4.257   4.248  2.5063  3.1749 -0.9320
   18MOL   H467 9001   3.678   4.304   4.522 -1.4404 -0.2810 -0.5046
   18MOL   H468 9002   3.668   4.432   4.399 -1.7760 -1.7475  1.4242
   18MOL   H469 9003   3.806   4.429   4.506 -0.0896 -1.6544  1.9292
   18MOL   H470 9004   4.058   4.440   4.025  1.7437  1.1478 -1.0503
   18MOL   H471 9005   4.117   4.501   4.192 -0.4366  0.2711 -0.3732
   18MOL   H472 9006   4.185   4.185   4.228  2.6708 -1.6316  0.7313
   18MOL   H473 9007   4.415   4.110   4.231 -1.5311  1.7015  1.3558
   18MOL   H474 9008   4.594   4.226   4.069 -1.0564 -2.8528 -2.3884
   18MOL   H475 9009   4.554   4.438   4.003  0.7978 -1.1086 -0.1443
   18MOL   H476 9010   4.313   4.537   4.001  2.4055 -0.2836  0.5005
   18MOL   C477 9011   3.911   4.181   4.434  0.2837 -0.3700  0.3373
   18MOL   C478 9012   3.971   4.227   4.570  0.0049 -0.2889  0.4281
   18MOL   C479 9013   4.090   4.328   4.546 -0.3084 -0.1995  0.7870
   18MOL   C480 9014   4.013   4.117   4.669 -0.3728  0.2515 -0.2616
   18MOL   O481 9015   3.969   4.114   4.779 -0.0074 -0.0226 -0.2031
   18MOL   O482 9016   4.113   4.043   4.612 -0.4043 -0.5824  0.2391
   18MOL   C483 9017   4.163   3.925   4.672  0.8258  0.0605 -0.0623
   18MOL   C484 9018   4.218   3.827   4.565  0.0062  0.2963 -0.3257
   18MOL   C485 9019   4.149   3.801   4.443  0.1092 -0.7050 -0.3168
   18MOL   C486 9020   4.190   3.710   4.349  0.4153 -0.1701  0.5444
   18MOL   C487 9021   4.311   3.648   4.353  0.2409 -0.6651  0.5942
   18MOL   C488 9022   4.383   3.669   4.471  0.3845  0.8066 -0.1430
   18MOL   C489 9023   4.341   3.752   4.577  0.0706  0.5774  0.0475
   18MOL   H490 9024   3.990   4.166   4.360 -0.5714 -0.4741 -0.5608
   18MOL   H491 9025   3.863   4.084   4.447 -1.5356  0.8641  3.3722
   18MOL   H492 9026   4.156   4.331   4.633  2.2800  2.3180 -1.1441
   18MOL   H493 9027   4.066   4.434   4.538  1.8652  0.2665  0.1678
   18MOL   H494 9028   4.145   4.299   4.456 -3.2817  1.5897 -1.7339
   18MOL   H495 9029   4.232   3.936   4.755 -1.4144 -0.3001  1.9168
   18MOL   H496 9030   4.081   3.884   4.731 -0.1779  0.1668 -1.3469
   18MOL   H497 9031   4.059   3.860   4.434  1.7473  1.8127 -0.7942
   18MOL   H498 9032   4.143   3.700   4.252  3.0160  0.2419 -0.7967
   18MOL   H499 9033   4.357   3.585   4.279 -0.2697  2.1808 -2.2210
   18MOL   H500 9034   4.488   3.648   4.471  0.3859  0.8256  0.4177
   18MOL   H501 9035   4.401   3.765   4.666 -1.0978  1.1170  0.7671
   18MOL   H502 9036   3.893   4.284   4.622 -1.0930 -1.7423  0.3930
   19MOL     C1 9037   7.990   1.443   6.707  0.4230  0.0506  0.1464
   19MOL     C2 9038   0.134   1.437   6.746  0.1744 -0.0219 -0.4251
   19MOL     C3 9039   0.171   1.583   6.784 -0.1668 -0.4682  0.1983
   19MOL     C4 9040   0.208   1.382   6.617  0.0644 -0.2881 -0.0456
   19MOL     O5 9041   0.311   1.440   6.575  0.0517  0.5971 -0.2871
   19MOL     O6 9042   0.169   1.271   6.564  0.1020 -0.3400 -0.2114
   19MOL     C7 9043   0.203   1.239   6.429 -0.1811  0.1744 -0.1345
   19MOL     C8 9044   0.221   1.087   6.400 -0.9987  0.0840  0.4419
   19MOL     C9 9045   0.291   0.996   6.483  0.9585 -0.6643 -0.3855
   19MOL    C10 9046   0.314   0.864   6.437 -0.0737 -0.6162 -0.3124
   19MOL    C11 9047   0.260   0.820   6.316 -0.5952  0.0310 -0.0265
   19MOL    C12 9048   0.186   0.905   6.232 -0.5390 -0.1362 -0.4342
   19MOL    C13 9049   0.173   1.045   6.274 -0.6060 -0.4062 -0.0792
   19MOL    H14 9050   7.980   1.503   6.617 -1.4104  1.6706  1.3949
   19MOL    H15 9051   7.955   1.346   6.669  1.6967 -0.8095  1.1178
   19MOL    H16 9052   0.258   1.604   6.846  0.1956  1.5092 -0.9582
   19MOL    H17 9053   0.093   1.645   6.828 -0.3110  0.7835 -1.7762
   19MOL    H18 9054   0.192   1.642   6.695 -1.9628  1.9331  1.3333
   19MOL    H19 9055   0.112   1.276   6.383 -0.2305  1.8113  1.2533
   19MOL    H20 9056   0.287   1.295   6.387 -0.6442  0.1883 -1.0544
   19MOL    H21 9057   0.329   1.019   6.582 -0.4377 -0.4954  0.1241
   19MOL    H22 9058   0.371   0.799   6.502  2.6171  2.0867  0.1226
   19MOL    H23 9059   0.266   0.713   6.301  0.6442 -0.1590  1.6165
   19MOL    H24 9060   0.129   0.876   6.144 -2.0124 -2.9434  1.3621
   19MOL    H25 9061   0.128   1.116   6.207 -1.4124 -2.2649 -1.5611
   19MOL    H26 9062   7.925   1.492   6.779  2.8022  2.4597  0.7152
   19MOL    C27 9063   0.170   1.328   6.866  0.3749 -0.4922  0.5761
   19MOL    C28 9064   0.082   1.304   6.994  0.3572  0.3838  0.0417
   19MOL    C29 9065   7.958   1.232   6.947 -0.2568  0.1070  0.2541
   19MOL    C30 9066   0.047   1.446   7.057 -0.7315 -0.5474  0.1686
   19MOL    O31 9067   7.940   1.487   7.066  0.8163  0.3743 -0.3021
   19MOL    O32 9068   0.147   1.506   7.117 -0.5031  0.5561  0.4466
   19MOL    C33 9069   0.142   1.642   7.153  0.5772 -0.4128  0.0581
   19MOL    C34 9070   0.232   1.679   7.265  0.0226  0.2266 -0.2526
   19MOL    C35 9071   0.214   1.623   7.394 -0.0045  0.6623 -0.0425
   19MOL    C36 9072   0.297   1.666   7.505  0.1757 -0.4304 -0.4742
   19MOL    C37 9073   0.396   1.759   7.475 -0.2927 -0.0183  0.2435
   19MOL    C38 9074   0.420   1.814   7.348 -0.9245 -0.3621  0.0563
   19MOL    C39 9075   0.341   1.763   7.243  0.4613  0.3169 -0.2007
   19MOL    H40 9076   0.271   1.361   6.891  1.9387 -4.4065 -0.0374
   19MOL    H41 9077   0.182   1.237   6.806 -1.0317  0.4491 -1.1846
   19MOL    H42 9078   7.994   1.163   6.871 -0.7266 -0.9017  0.9344
   19MOL    H43 9079   7.882   1.297   6.904 -0.2117  0.1278  0.2049
   19MOL    H44 9080   7.916   1.167   7.023 -1.9030 -0.2864 -0.9787
   19MOL    H45 9081   0.151   1.704   7.063  0.8621  0.3561  0.6191
   19MOL    H46 9082   0.041   1.663   7.187  0.9685  1.2304  0.2237
   19MOL    H47 9083   0.122   1.570   7.413 -0.6766  1.7838 -0.0915
   19MOL    H48 9084   0.274   1.633   7.605  0.0384  1.8455  0.2862
   19MOL    H49 9085   0.445   1.794   7.565 -2.1682  0.3380  1.1455
   19MOL    H50 9086   0.500   1.885   7.332 -2.7838  1.6545 -0.5642
   19MOL    H51 9087   0.361   1.797   7.143  1.5851  1.5329  0.4185
   19MOL    C52 9088   0.158   1.224   7.105 -0.2231  0.2411 -0.6987
   19MOL    C53 9089   0.228   1.083   7.094  0.0111  0.0973  0.0040
   19MOL    C54 9090   0.306   1.074   6.965  0.3468 -0.7599 -0.0360
   19MOL    C55 9091   0.114   0.974   7.102 -0.1442 -0.0950 -0.2108
   19MOL    O56 9092   0.017   0.979   7.176  0.3042 -0.5662 -0.7954
   19MOL    O57 9093   0.129   0.871   7.014 -0.3387  0.2277 -0.6054
   19MOL    C58 9094   0.027   0.780   7.008  0.1702 -0.6310  0.4884
   19MOL    C59 9095   0.028   0.681   6.896 -0.1830 -0.5382 -0.1544
   19MOL    C60 9096   0.144   0.599   6.894 -0.6167  0.1537  0.0981
   19MOL    C61 9097   0.164   0.507   6.793  0.0301  0.2127 -0.8590
   19MOL    C62 9098   0.063   0.494   6.699  0.2205 -0.6598 -0.1828
   19MOL    C63 9099   7.953   0.571   6.699  0.0083  0.0263 -0.3403
   19MOL    C64 9100   7.936   0.667   6.800  0.9426  1.1709  0.4856
   19MOL    H65 9101   0.117   1.236   7.205  2.2926  2.0315  0.1854
   19MOL    H66 9102   0.244   1.289   7.122  0.5541 -0.3858 -2.1541
   19MOL    H67 9103   0.365   0.982   6.970 -0.0022 -1.0011 -0.3368
   19MOL    H68 9104   0.366   1.162   6.942 -1.0280 -0.0945 -1.1456
   19MOL    H69 9105   0.254   1.061   6.871 -0.4705  2.2144 -0.0444
   19MOL    H70 9106   0.033   0.719   7.098 -0.5461 -1.5424 -0.0721
   19MOL    H71 9107   7.938   0.829   6.992 -0.2237 -1.7527 -0.6538
   19MOL    H72 9108   0.214   0.609   6.975  0.8536 -0.8760 -1.0291
   19MOL    H73 9109   0.251   0.445   6.779 -0.2594 -0.4591  0.2957
   19MOL    H74 9110   0.072   0.423   6.618  1.8066 -0.0294 -0.5790
   19MOL    H75 9111   7.880   0.563   6.620 -0.1889 -1.9316  0.0350
   19MOL    H76 9112   7.847   0.728   6.801 -0.3637 -0.6859  0.7960
   19MOL    C77 9113   0.322   1.082   7.223 -0.4625  0.8532  0.2617
   19MOL    C78 9114   0.438   0.985   7.265 -0.3877 -0.0035  0.3445
   19MOL    C79 9115   0.437   0.985   7.423 -0.4375  0.2445 -0.4116
   19MOL    C80 9116   0.582   1.035   7.219 -0.7428 -0.5469 -0.4849
   19MOL    O81 9117   0.667   1.077   7.297 -0.4366  0.3404 -0.2931
   19MOL    O82 9118   0.595   1.035   7.086  0.2605 -0.1740 -0.6297
   19MOL    C83 9119   0.687   1.124   7.024  0.4159 -0.3357 -0.1461
   19MOL    C84 9120   0.679   1.100   6.877 -0.4678 -0.1518 -0.2474
   19MOL    C85 9121   0.626   1.202   6.795 -0.6037  0.7595 -0.3538
   19MOL    C86 9122   0.594   1.174   6.661  0.8859 -0.4817  0.1128
   19MOL    C87 9123   0.627   1.056   6.603  0.2055 -0.4958 -0.6865
   19MOL    C88 9124   0.714   0.966   6.671  0.5150 -0.5377  0.0365
   19MOL    C89 9125   0.744   0.991   6.806  0.5039  0.1553 -0.0491
   19MOL    H90 9126   0.254   1.077   7.308 -0.5428 -0.8105  0.1212
   19MOL    H91 9127   0.362   1.182   7.235  0.4570  0.3428  1.4810
   19MOL    H92 9128   0.526   0.938   7.466  1.3887  3.8205 -0.1060
   19MOL    H93 9129   0.343   0.948   7.464  0.1343  0.4854  1.1712
   19MOL    H94 9130   0.440   1.090   7.451 -1.2684  0.5364 -1.3997
   19MOL    H95 9131   0.669   1.231   7.037  0.3724 -0.2984 -0.5094
   19MOL    H96 9132   0.789   1.109   7.058  1.1740 -1.4190 -2.7853
   19MOL    H97 9133   0.598   1.295   6.841  2.9761  0.7746  1.9277
   19MOL    H98 9134   0.542   1.246   6.601 -1.6508 -1.1407  1.4375
   19MOL    H99 9135   0.583   1.034   6.507 -4.3778 -0.4319  1.2748
   19MOL   H100 9136   0.762   0.881   6.624  2.0983 -0.2499  1.0930
   19MOL   H101 9137   0.802   0.930   6.873  0.6408  1.1517  0.7594
   19MOL   C102 9138   0.428   0.839   7.198  0.5955  0.1985  0.0718
   19MOL   C103 9139   0.486   0.705   7.264  0.0482 -0.0277  0.3604
   19MOL   C104 9140   0.434   0.592   7.174 -0.1155 -0.1506 -0.0546
   19MOL   C105 9141   0.422   0.675   7.401 -0.3069 -0.0526  0.1417
   19MOL   O106 9142   0.488   0.668   7.505 -0.2125  0.4805 -0.2915
   19MOL   O107 9143   0.293   0.658   7.405  0.2405 -0.0641  0.0210
   19MOL   C108 9144   0.223   0.636   7.525 -0.6891 -0.0224 -0.1681
   19MOL   C109 9145   0.094   0.717   7.517 -0.2069 -0.0073 -0.3546
   19MOL   C110 9146   0.000   0.702   7.417  0.1694 -0.0032  0.4643
   19MOL   C111 9147   7.887   0.781   7.413 -0.2644 -0.3271 -0.1395
   19MOL   C112 9148   7.860   0.877   7.515  0.1556 -0.4223 -0.4416
   19MOL   C113 9149   7.959   0.894   7.611 -0.3416 -0.1353  0.5995
   19MOL   C114 9150   0.074   0.820   7.609 -0.2077 -1.0344 -0.6638
   19MOL   H115 9151   0.442   0.845   7.090 -1.4356  0.7695 -0.1819
   19MOL   H116 9152   0.323   0.807   7.206  0.7511 -0.7707 -1.4808
   19MOL   H117 9153   0.467   0.592   7.070 -1.0966 -1.0957 -0.3751
   19MOL   H118 9154   0.325   0.593   7.171 -0.0800  0.7647 -1.4174
   19MOL   H119 9155   0.476   0.498   7.210  1.5394  0.1296 -1.1920
   19MOL   H120 9156   0.197   0.531   7.535  2.8397 -0.9229  0.0719
   19MOL   H121 9157   0.280   0.665   7.613 -0.3990  1.5530 -0.8512
   19MOL   H122 9158   0.012   0.628   7.339 -0.4832 -0.6165  0.9452
   19MOL   H123 9159   7.820   0.761   7.330 -1.5724  0.5849  0.6798
   19MOL   H124 9160   7.771   0.937   7.528  0.2524  0.2594 -2.7052
   19MOL   H125 9161   7.944   0.961   7.695 -3.0205 -0.8423  0.7345
   19MOL   H126 9162   0.148   0.835   7.687 -0.6012 -0.1359 -0.4549
   19MOL   C127 9163   0.639   0.706   7.284 -0.2192 -0.8265 -1.2405
   19MOL   C128 9164   0.745   0.650   7.176 -0.4075 -0.0617 -0.8688
   19MOL   C129 9165   0.718   0.708   7.037  0.4298  1.4630 -0.1639
   19MOL   C130 9166   0.740   0.492   7.172 -0.0332  0.2810  0.0863
   19MOL   O131 9167   0.755   0.429   7.278 -0.1403  0.1069  0.2139
   19MOL   O132 9168   0.725   0.443   7.055  0.1610 -0.1833  0.3018
   19MOL   C133 9169   0.749   0.305   7.040  0.0839 -0.6562 -0.0097
   19MOL   C134 9170   0.742   0.258   6.896 -0.9620 -0.1526  0.2427
   19MOL   C135 9171   0.850   0.278   6.798  0.0823  0.0844  0.1136
   19MOL   C136 9172   0.846   0.222   6.670 -0.1540 -0.7444  0.3392
   19MOL   C137 9173   0.728   0.156   6.631 -0.1643  0.3008 -0.0676
   19MOL   C138 9174   0.644   0.117   6.732  0.3774 -0.1428 -0.2599
   19MOL   C139 9175   0.637   0.181   6.857 -0.1732  0.9431 -0.0017
   19MOL   H140 9176   0.673   0.643   7.366  1.2017 -1.0573 -1.9902
   19MOL   H141 9177   0.669   0.806   7.315  0.9284 -1.6503  0.4568
   19MOL   H142 9178   0.630   0.665   6.990 -0.2055  0.9760  1.4306
   19MOL   H143 9179   0.789   0.684   6.958  1.6419  0.2354  1.2750
   19MOL   H144 9180   0.708   0.816   7.050 -1.4060  1.2639  0.2300
   19MOL   H145 9181   0.855   0.295   7.063  0.5989 -2.3359 -2.8324
   19MOL   H146 9182   0.684   0.238   7.097  0.7628 -1.3314 -0.0155
   19MOL   H147 9183   0.943   0.325   6.827  0.8491  0.1463 -2.3198
   19MOL   H148 9184   0.929   0.247   6.604  0.6078  2.1909  2.2888
   19MOL   H149 9185   0.718   0.112   6.533 -0.0650  0.2470 -0.0534
   19MOL   H150 9186   0.558   0.058   6.705  0.3168  0.0848 -0.5759
   19MOL   H151 9187   0.550   0.169   6.920  0.3232 -0.6304  0.4034
   19MOL   C152 9188   0.888   0.694   7.229  0.1032 -0.4697  0.2411
   19MOL   C153 9189   1.023   0.671   7.149 -0.4718 -0.1027 -0.5447
   19MOL   C154 9190   1.121   0.719   7.254 -0.5348  0.4156  0.3027
   19MOL   C155 9191   1.030   0.762   7.023 -0.5824  0.4424 -0.9319
   19MOL   O156 9192   1.015   0.717   6.911 -0.0738  0.6494  0.0072
   19MOL   O157 9193   1.052   0.890   7.046 -0.0168  0.4686 -0.6957
   19MOL   C158 9194   1.076   0.984   6.939 -0.1349 -0.3654 -0.3705
   19MOL   C159 9195   1.044   1.125   6.985 -0.1923  0.5976  0.8302
   19MOL   C160 9196   1.035   1.231   6.887 -0.0161  0.1685  0.8212
   19MOL   C161 9197   1.006   1.369   6.929 -0.1948  0.0727 -0.4824
   19MOL   C162 9198   1.000   1.391   7.065  0.3559  0.7102 -0.8255
   19MOL   C163 9199   1.009   1.281   7.158 -0.6352 -0.3934  0.0153
   19MOL   C164 9200   1.030   1.150   7.125  0.0442 -0.0429  0.3909
   19MOL   H165 9201   0.887   0.670   7.335 -3.1627 -0.6130  0.2249
   19MOL   H166 9202   0.889   0.803   7.238  2.1057 -0.2757 -1.8018
   19MOL   H167 9203   1.221   0.747   7.222  0.1001 -0.4951  1.4346
   19MOL   H168 9204   1.126   0.639   7.328  0.6214  0.4494  0.2655
   19MOL   H169 9205   1.089   0.810   7.306  3.6819  1.3123  1.4941
   19MOL   H170 9206   1.183   0.977   6.917 -0.5612  0.6660 -3.0028
   19MOL   H171 9207   1.032   0.963   6.842  1.5444  0.8485 -1.4310
   19MOL   H172 9208   1.053   1.213   6.782 -0.7256  1.8413  0.3962
   19MOL   H173 9209   0.983   1.448   6.859  1.5269  1.3998  0.4360
   19MOL   H174 9210   0.982   1.493   7.096  1.2700  0.7574 -0.4135
   19MOL   H175 9211   1.000   1.310   7.262 -1.2877  0.9600 -0.4058
   19MOL   H176 9212   1.032   1.069   7.197  0.3009 -0.6083 -0.2403
   19MOL   C177 9213   1.042   0.520   7.106  0.1388 -0.4914 -0.2592
   19MOL   C178 9214   1.174   0.445   7.067  0.4113 -0.0748  0.3291
   19MOL   C179 9215   1.136   0.298   7.063  0.3510  0.1878 -0.0722
   19MOL   C180 9216   1.282   0.461   7.176 -0.5642  0.9543 -0.7646
   19MOL   O181 9217   1.284   0.384   7.274 -0.0925 -0.9941  0.1070
   19MOL   O182 9218   1.369   0.561   7.155 -0.4848 -0.2370  0.9506
   19MOL   C183 9219   1.475   0.595   7.248  0.2395 -0.1648  0.6583
   19MOL   C184 9220   1.564   0.700   7.186 -0.0285 -0.0281  0.5877
   19MOL   C185 9221   1.697   0.699   7.225 -0.8621 -0.3256  0.6752
   19MOL   C186 9222   1.788   0.773   7.151 -0.7939 -0.1645  0.3142
   19MOL   C187 9223   1.751   0.858   7.052 -0.4965 -0.2024 -0.0346
   19MOL   C188 9224   1.615   0.871   7.018  0.7394  0.1988 -0.4805
   19MOL   C189 9225   1.522   0.791   7.086  0.2292  0.2719 -0.5208
   19MOL   H190 9226   0.964   0.506   7.032 -1.0862  0.3173  0.8727
   19MOL   H191 9227   1.004   0.470   7.195 -0.1196  2.9528  1.6365
   19MOL   H192 9228   1.093   0.256   7.155  0.6975 -2.0154 -0.8884
   19MOL   H193 9229   1.224   0.241   7.035  0.9775 -1.0188  4.0083
   19MOL   H194 9230   1.061   0.268   6.990  0.2834  1.4311 -0.5176
   19MOL   H195 9231   1.439   0.622   7.347  0.0733  0.1855  0.5023
   19MOL   H196 9232   1.537   0.510   7.277 -2.0524 -1.9802  0.4286
   19MOL   H197 9233   1.738   0.637   7.304 -0.0538  1.0874  1.3810
   19MOL   H198 9234   1.891   0.764   7.183 -0.5212  1.8149  0.0573
   19MOL   H199 9235   1.835   0.904   7.003 -0.2446 -0.1232  0.4693
   19MOL   H200 9236   1.583   0.943   6.945  4.3099  0.4388 -1.9525
   19MOL   H201 9237   1.417   0.803   7.067  0.2011  0.5346 -0.2047
   19MOL   C202 9238   1.222   0.494   6.922 -0.8178  0.2838 -0.5087
   19MOL   C203 9239   1.318   0.424   6.821  0.3142 -0.5144 -0.0362
   19MOL   C204 9240   1.238   0.326   6.735 -0.2722  0.2148  0.0535
   19MOL   C205 9241   1.438   0.349   6.897 -0.0939  0.2004  0.1724
   19MOL   O206 9242   1.444   0.226   6.901  0.0837  0.1399  0.3855
   19MOL   O207 9243   1.523   0.430   6.962 -0.2876 -0.8854  0.0156
   19MOL   C208 9244   1.625   0.365   7.047  0.2957  0.2249 -0.3930
   19MOL   C209 9245   1.771   0.408   7.022 -0.0822  0.7236 -0.2045
   19MOL   C210 9246   1.875   0.335   7.081  0.4889  0.8226  0.1343
   19MOL   C211 9247   2.005   0.375   7.065 -0.4746  0.6069  0.2208
   19MOL   C212 9248   2.036   0.491   6.981  0.3007  0.4749 -0.5050
   19MOL   C213 9249   1.928   0.566   6.937 -0.9119 -0.1394 -0.5721
   19MOL   C214 9250   1.797   0.517   6.945  0.3031 -0.2508  0.2862
   19MOL   H215 9251   1.249   0.599   6.936  1.0719 -0.2975  0.4207
   19MOL   H216 9252   1.124   0.494   6.876 -1.4533 -0.5686  0.8100
   19MOL   H217 9253   1.289   0.267   6.659 -1.9978 -0.8925 -0.2642
   19MOL   H218 9254   1.172   0.381   6.668 -1.3276  0.0403  0.9299
   19MOL   H219 9255   1.173   0.261   6.794 -1.3898 -1.4218 -2.8637
   19MOL   H220 9256   1.617   0.389   7.153  2.2637 -0.0224 -0.1819
   19MOL   H221 9257   1.612   0.257   7.040  0.0763  0.2140  0.1559
   19MOL   H222 9258   1.855   0.244   7.135  2.4072 -0.0581 -0.6062
   19MOL   H223 9259   2.083   0.310   7.101 -0.8005 -0.2064 -0.5300
   19MOL   H224 9260   2.136   0.519   6.951  0.8493  0.4777  1.2255
   19MOL   H225 9261   1.951   0.655   6.881 -1.1724  0.8142  0.8003
   19MOL   H226 9262   1.722   0.568   6.886 -0.4565  0.1446  1.5634
   19MOL   C227 9263   1.379   0.548   6.749  0.3583  0.0818 -0.8828
   19MOL   C228 9264   1.464   0.550   6.612  0.0500  0.5195 -0.5083
   19MOL   C229 9265   1.518   0.698   6.599 -0.3616 -0.2825  0.5300
   19MOL   C230 9266   1.372   0.521   6.486  0.0614  0.5301 -0.6220
   19MOL   O231 9267   1.380   0.421   6.416 -0.3918 -0.2774  0.1182
   19MOL   O232 9268   1.270   0.612   6.481  0.2175  0.7914  0.1958
   19MOL   C233 9269   1.173   0.607   6.374  0.0257  0.9145  0.2442
   19MOL   C234 9270   1.024   0.618   6.416  0.8278 -0.3216  0.3938
   19MOL   C235 9271   0.991   0.594   6.550  0.0676  0.0910 -0.0447
   19MOL   C236 9272   0.861   0.606   6.601  0.3482 -0.1500 -1.2692
   19MOL   C237 9273   0.753   0.646   6.514 -0.3448 -0.5737 -0.6945
   19MOL   C238 9274   0.790   0.675   6.378  0.3034 -0.6652  0.4864
   19MOL   C239 9275   0.922   0.662   6.331  0.0167  0.3884 -0.0218
   19MOL   H240 9276   1.427   0.622   6.813 -0.5362  0.6584 -0.8637
   19MOL   H241 9277   1.292   0.606   6.718 -0.7960 -1.9902 -1.5652
   19MOL   H242 9278   1.614   0.726   6.642  0.6206 -3.1166  0.2768
   19MOL   H243 9279   1.443   0.767   6.636 -0.7172 -0.2857 -0.1820
   19MOL   H244 9280   1.525   0.721   6.492  3.3312  0.6349  0.8937
   19MOL   H245 9281   1.205   0.684   6.303 -2.7304  2.2405  0.3531
   19MOL   H246 9282   1.179   0.516   6.316 -1.2003  2.1470 -1.8732
   19MOL   H247 9283   1.063   0.560   6.624 -0.1411  1.4013  0.7863
   19MOL   H248 9284   0.844   0.571   6.702 -3.4105 -2.5904 -2.6165
   19MOL   H249 9285   0.656   0.663   6.559  0.9636  0.9413  1.6724
   19MOL   H250 9286   0.717   0.727   6.319  1.8018  0.9125 -0.0402
   19MOL   H251 9287   0.939   0.690   6.228 -0.6129 -1.6933 -0.7228
   19MOL   C252 9288   1.588   0.450   6.625  0.6180  0.2288 -0.5095
   19MOL   C253 9289   1.713   0.442   6.528 -0.5057  0.3067 -0.3937
   19MOL   C254 9290   1.846   0.468   6.611  0.2738 -0.2839  0.2674
   19MOL   C255 9291   1.720   0.543   6.413 -0.1561 -0.2381 -0.4598
   19MOL   O256 9292   1.777   0.655   6.415 -0.0079  0.1991 -0.4617
   19MOL   O257 9293   1.645   0.499   6.309 -0.9411  0.2054  0.1433
   19MOL   C258 9294   1.630   0.580   6.198 -0.1827  0.0910 -0.9508
   19MOL   C259 9295   1.613   0.503   6.073 -0.4119 -0.0079  0.0108
   19MOL   C260 9296   1.581   0.368   6.068 -0.7160 -0.5082 -0.6239
   19MOL   C261 9297   1.566   0.300   5.947  0.4787  0.2356  0.9085
   19MOL   C262 9298   1.592   0.365   5.822  0.3978 -0.0225 -0.9229
   19MOL   C263 9299   1.639   0.498   5.833 -0.0106 -0.6424 -0.6199
   19MOL   C264 9300   1.638   0.570   5.953 -0.0939  0.1976  0.6276
   19MOL   H265 9301   1.529   0.359   6.617  0.1297  0.4971  0.0042
   19MOL   H266 9302   1.622   0.457   6.729 -0.6224  2.4411 -0.2201
   19MOL   H267 9303   1.846   0.408   6.702 -1.8313  1.9389  1.8157
   19MOL   H268 9304   1.837   0.570   6.648 -0.6830 -1.0919  2.3353
   19MOL   H269 9305   1.938   0.465   6.552 -0.2605  0.3584 -0.6102
   19MOL   H270 9306   1.545   0.646   6.215  0.6011  1.4272 -2.0819
   19MOL   H271 9307   1.709   0.655   6.197 -1.0171  1.0365  1.0686
   19MOL   H272 9308   1.565   0.319   6.163 -0.8962  0.9349  0.0931
   19MOL   H273 9309   1.546   0.194   5.957  2.3894  0.0646  3.3853
   19MOL   H274 9310   1.583   0.306   5.732 -1.0035  0.2150 -0.9491
   19MOL   H275 9311   1.647   0.559   5.744  0.4373  0.4752  0.1826
   19MOL   H276 9312   1.665   0.675   5.953 -0.8636  0.4172 -0.8315
   19MOL   C277 9313   1.723   0.292   6.473 -0.1553 -0.0068  0.0386
   19MOL   C278 9314   1.779   0.161   6.543 -0.4226 -0.2842  0.3496
   19MOL   C279 9315   1.741   0.148   6.694 -0.6281  1.1324  0.3059
   19MOL   C280 9316   1.935   0.150   6.538 -0.5861 -0.2377 -0.4337
   19MOL   O281 9317   1.998   0.211   6.449 -0.2058  0.8114  0.0686
   19MOL   O282 9318   2.000   0.076   6.631  0.7690 -0.3589 -0.0622
   19MOL   C283 9319   2.131   0.043   6.614  0.0832  0.1020  0.5288
   19MOL   C284 9320   2.227   0.140   6.677  0.2234 -0.1546 -0.7942
   19MOL   C285 9321   2.207   0.173   6.814 -0.0988 -0.7624 -0.1423
   19MOL   C286 9322   2.296   0.253   6.884 -0.5457 -0.0130  0.1370
   19MOL   C287 9323   2.395   0.317   6.815  0.3155  0.2034  0.2346
   19MOL   C288 9324   2.411   0.285   6.679  0.2180 -0.8743 -0.2809
   19MOL   C289 9325   2.337   0.192   6.610 -0.4879 -0.2080  0.1667
   19MOL   H290 9326   1.773   0.296   6.376  2.5426  1.0080  1.4231
   19MOL   H291 9327   1.624   0.264   6.437  1.2666 -4.1028 -0.9506
   19MOL   H292 9328   1.799   0.219   6.753  1.2165  0.4686 -0.6543
   19MOL   H293 9329   1.769   0.052   6.738 -0.0262  0.2363 -1.9541
   19MOL   H294 9330   1.646   0.178   6.737  0.5180  1.3786  2.7245
   19MOL   H295 9331   2.152   7.947   6.643  1.9942  0.3312  0.0757
   19MOL   H296 9332   2.145   0.044   6.506 -0.5498  1.0099  0.4580
   19MOL   H297 9333   2.130   0.126   6.874 -0.2547  1.6290  1.5802
   19MOL   H298 9334   2.288   0.268   6.991  2.6207  1.1518  0.2462
   19MOL   H299 9335   2.460   0.389   6.864  1.5124  1.2338 -2.7714
   19MOL   H300 9336   2.487   0.338   6.623  0.0916 -0.4936 -0.0983
   19MOL   H301 9337   2.348   0.165   6.506  3.7682  0.1884  0.4434
   19MOL   C302 9338   1.721   0.042   6.453  0.6898  0.3325  0.2073
   19MOL   C303 9339   1.601   7.960   6.478 -0.0850 -1.2671  0.7350
   19MOL   C304 9340   1.478   0.048   6.499 -0.1730  0.5419  1.0852
   19MOL   C305 9341   1.627   7.871   6.601 -0.5165  0.0211  0.4407
   19MOL   O306 9342   1.745   7.838   6.635 -0.3225 -0.1758 -0.1354
   19MOL   O307 9343   1.517   7.815   6.641 -0.5294  0.2363  0.5093
   19MOL   C308 9344   1.534   7.723   6.751 -0.4896  0.0353  1.0369
   19MOL   C309 9345   1.447   7.768   6.870 -0.2686 -0.6927  0.1969
   19MOL   C310 9346   1.353   7.685   6.931 -0.2608  0.1749 -0.4961
   19MOL   C311 9347   1.283   7.722   7.050 -0.4591 -0.1247  0.1202
   19MOL   C312 9348   1.295   7.851   7.101 -0.4174 -0.2440  0.7830
   19MOL   C313 9349   1.388   7.939   7.039  0.5214  0.0574  1.1312
   19MOL   C314 9350   1.465   7.895   6.928  0.1759 -0.0566  0.2053
   19MOL   H315 9351   1.803   7.979   6.443  0.1110 -0.2236 -0.7100
   19MOL   H316 9352   1.716   0.084   6.353  2.5281 -0.7368 -0.3520
   19MOL   H317 9353   1.476   0.099   6.596 -0.7621  0.3389  1.1815
   19MOL   H318 9354   1.379   0.003   6.511 -0.9422  1.5274 -1.1941
   19MOL   H319 9355   1.478   0.127   6.424 -2.2839 -0.0682  0.4028
   19MOL   H320 9356   1.501   7.622   6.725 -1.0812 -0.0084  1.9173
   19MOL   H321 9357   1.636   7.716   6.787 -0.2051  0.7524  0.3934
   19MOL   H322 9358   1.344   7.586   6.890  1.9522 -0.1338 -0.2927
   19MOL   H323 9359   1.203   7.662   7.090 -0.1986 -1.9678 -1.9764
   19MOL   H324 9360   1.236   7.878   7.188 -0.2831  0.9690  0.5009
   19MOL   H325 9361   1.395   0.025   7.092 -2.1541 -0.4803  2.5419
   19MOL   H326 9362   1.538   7.965   6.890 -0.4743  0.0815 -0.8066
   19MOL   C327 9363   1.575   7.871   6.346  0.5172  0.1584 -0.0810
   19MOL   C328 9364   1.646   7.743   6.292  0.1666 -0.4012  0.5934
   19MOL   C329 9365   1.609   7.623   6.371  0.1586  0.1850  0.0312
   19MOL   C330 9366   1.803   7.769   6.285  0.8397  0.3068 -0.5132
   19MOL   O331 9367   1.879   7.695   6.350  0.3154  0.0650  0.2979
   19MOL   O332 9368   1.835   7.877   6.213 -0.2986  0.2399 -0.2630
   19MOL   C333 9369   1.956   7.931   6.207  0.3119 -0.3838 -0.0584
   19MOL   C334 9370   1.961   0.035   6.104 -0.4897  0.5986  0.3462
   19MOL   C335 9371   1.884   0.035   5.985  0.2058  0.0577 -0.0198
   19MOL   C336 9372   1.893   0.142   5.896  0.2700 -0.8887 -0.4065
   19MOL   C337 9373   1.975   0.251   5.923 -0.1777  0.9997 -1.6202
   19MOL   C338 9374   2.047   0.257   6.047 -0.3974 -0.0900 -0.0738
   19MOL   C339 9375   2.044   0.145   6.128  0.7883  0.2968  0.1359
   19MOL   H340 9376   1.561   7.942   6.264 -0.4208 -1.5004 -1.4059
   19MOL   H341 9377   1.473   7.839   6.364  0.4701 -0.4914 -1.4431
   19MOL   H342 9378   1.653   7.535   6.325  2.2993  1.3597 -0.2224
   19MOL   H343 9379   1.501   7.608   6.381 -0.2517 -0.1588 -3.8688
   19MOL   H344 9380   1.621   7.616   6.479 -1.7818  0.1488  0.2620
   19MOL   H345 9381   1.980   7.977   6.303 -2.1756  1.1780 -0.1640
   19MOL   H346 9382   2.026   7.850   6.184  2.0916  1.3693 -0.9363
   19MOL   H347 9383   1.813   7.961   5.978  1.5427 -1.0632 -0.7694
   19MOL   H348 9384   1.836   0.137   5.804  0.4794  1.5919 -0.7028
   19MOL   H349 9385   1.996   0.327   5.849  1.8806  0.1017 -2.0110
   19MOL   H350 9386   2.108   0.339   6.082  2.2668 -2.0314 -0.0616
   19MOL   H351 9387   2.092   0.153   6.225 -0.8519  1.0799  0.8932
   19MOL   C352 9388   1.605   7.718   6.136  0.2533  0.4325 -0.1992
   19MOL   C353 9389   1.472   7.650   6.087 -0.4001 -0.5624  0.1865
   19MOL   C354 9390   1.347   7.710   6.151 -0.8567  0.0145  0.0540
   19MOL   C355 9391   1.468   7.497   6.115 -0.1213 -1.0724 -0.3199
   19MOL   O356 9392   1.360   7.447   6.151  0.6492 -0.5807 -0.3882
   19MOL   O357 9393   1.568   7.428   6.091  0.2181  0.3384 -0.2187
   19MOL   C358 9394   1.572   7.289   6.103  0.1203  0.3339 -0.3489
   19MOL   C359 9395   1.618   7.226   5.979  0.0831 -0.0795 -0.6589
   19MOL   C360 9396   1.725   7.279   5.908  0.0559 -0.4330  0.0886
   19MOL   C361 9397   1.762   7.221   5.782 -0.0011  0.7941  0.1139
   19MOL   C362 9398   1.687   7.114   5.727  0.0681 -0.3480 -0.6544
   19MOL   C363 9399   1.583   7.055   5.802 -1.0521  0.4405 -0.1701
   19MOL   C364 9400   1.548   7.112   5.930 -0.7060 -0.8859 -0.1798
   19MOL   H365 9401   1.694   7.670   6.094  2.3301  2.3526  1.8777
   19MOL   H366 9402   1.613   7.818   6.094  0.2205  0.1448 -0.9103
   19MOL   H367 9403   1.351   7.700   6.260  1.0975 -1.8066 -0.1678
   19MOL   H368 9404   1.250   7.662   6.137 -0.5309 -0.7778  0.4762
   19MOL   H369 9405   1.336   7.815   6.124 -1.0032  0.5872  2.2579
   19MOL   H370 9406   1.650   7.261   6.174 -1.1692  0.4946  1.1725
   19MOL   H371 9407   1.489   7.231   6.144 -0.2685  0.7665 -0.5210
   19MOL   H372 9408   1.770   7.369   5.948 -1.4633 -1.0263  3.2796
   19MOL   H373 9409   1.844   7.257   5.722  1.4636  0.6809  1.9930
   19MOL   H374 9410   1.715   7.083   5.628  1.6571 -0.1400 -0.2795
   19MOL   H375 9411   1.527   6.966   5.776  1.2820 -1.1155 -0.0369
   19MOL   H376 9412   1.464   7.084   5.992  1.7006 -0.6929  3.3270
   19MOL   C377 9413   1.481   7.675   5.937 -0.0552 -0.5799 -0.2991
   19MOL   C378 9414   1.365   7.634   5.840  0.2575  0.1872  0.0892
   19MOL   C379 9415   1.430   7.692   5.707  0.0450  0.3382 -0.0854
   19MOL   C380 9416   1.229   7.715   5.865 -0.5450  0.0776  0.6978
   19MOL   O381 9417   1.123   7.655   5.886  0.3782 -0.3532  0.5187
   19MOL   O382 9418   1.242   7.846   5.877 -0.1210  0.2797  0.4014
   19MOL   C383 9419   1.135   7.931   5.907 -0.6413  1.2884 -0.4262
   19MOL   C384 9420   1.154   7.997   6.040  0.0565  0.4606  0.1330
   19MOL   C385 9421   1.250   0.096   6.053 -0.6752  0.2607  0.0849
   19MOL   C386 9422   1.266   0.166   6.176  0.2672 -0.4632  0.1921
   19MOL   C387 9423   1.184   0.124   6.286 -0.1505 -0.8179  0.5559
   19MOL   C388 9424   1.086   0.020   6.273  0.0434 -0.0246 -0.0854
   19MOL   C389 9425   1.074   7.959   6.149 -0.4372  0.1271  0.1293
   19MOL   H390 9426   1.579   7.636   5.907  0.8268  2.0344 -0.9227
   19MOL   H391 9427   1.486   7.784   5.935 -0.1691 -0.5908 -1.5282
   19MOL   H392 9428   1.491   7.782   5.715  0.5425  0.0807 -0.9527
   19MOL   H393 9429   1.359   7.726   5.632 -0.3156  1.1348  0.6102
   19MOL   H394 9430   1.497   7.628   5.649 -1.2176 -2.4296  1.3840
   19MOL   H395 9431   1.128   0.002   5.831  1.4598  1.8252 -0.0971
   19MOL   H396 9432   1.037   7.885   5.912  0.4553 -1.0233  0.4722
   19MOL   H397 9433   1.307   0.124   5.965  2.2077 -0.2989  1.7232
   19MOL   H398 9434   1.340   0.242   6.195  0.3045 -0.2031 -0.9401
   19MOL   H399 9435   1.180   0.174   6.381  1.2012  1.6494 -0.6450
   19MOL   H400 9436   1.012   8.005   6.349  0.7250 -0.8358  0.3455
   19MOL   H401 9437   1.003   7.879   6.138  0.2145 -0.4541  0.1228
   19MOL   C402 9438   1.337   7.484   5.823  0.3730  0.9821 -0.0249
   19MOL   C403 9439   1.277   7.408   5.700  0.1062  0.0990  0.3127
   19MOL   C404 9440   1.398   7.349   5.624  0.3040 -0.6536 -0.3914
   19MOL   C405 9441   1.188   7.496   5.608 -0.3783  0.1651  0.5873
   19MOL   O406 9442   1.232   7.528   5.494  0.6921 -0.2179 -0.0064
   19MOL   O407 9443   1.065   7.522   5.653 -0.6187  0.4964 -0.5987
   19MOL   C408 9444   0.990   7.617   5.581 -1.1796 -0.3112  0.7102
   19MOL   C409 9445   0.855   7.638   5.636 -0.4284 -1.0136  0.2876
   19MOL   C410 9446   0.818   7.742   5.719 -0.2086 -0.1934  0.0465
   19MOL   C411 9447   0.683   7.750   5.765 -0.6469  0.1496  0.1995
   19MOL   C412 9448   0.593   7.644   5.745 -0.4436  0.2302 -0.0161
   19MOL   C413 9449   0.637   7.541   5.662 -0.3133  0.2372  0.4056
   19MOL   C414 9450   0.766   7.541   5.604  0.5276 -0.3525 -0.0384
   19MOL   H415 9451   1.272   7.462   5.909 -0.5369  1.4640 -0.5765
   19MOL   H416 9452   1.430   7.436   5.852 -0.0746 -0.1126 -0.4087
   19MOL   H417 9453   1.468   7.287   5.679  1.3484 -0.5717 -1.5813
   19MOL   H418 9454   1.452   7.427   5.570  0.5074 -0.3922  0.1925
   19MOL   H419 9455   1.365   7.287   5.540 -0.7762  1.4794 -1.5960
   19MOL   H420 9456   1.040   7.714   5.579 -1.4493 -0.1836 -1.1214
   19MOL   H421 9457   0.974   7.592   5.476  0.9459  4.6976 -0.9652
   19MOL   H422 9458   0.890   7.821   5.731  2.2011 -2.1616 -1.1122
   19MOL   H423 9459   0.657   7.839   5.820 -0.5319 -0.3015  0.9973
   19MOL   H424 9460   0.492   7.655   5.782 -0.3823 -2.6293  1.1286
   19MOL   H425 9461   0.573   7.461   5.628  2.1374 -1.8657  0.6163
   19MOL   H426 9462   0.799   7.464   5.535 -0.1283  0.2043 -0.9924
   19MOL   C427 9463   1.193   7.291   5.756  0.0157  0.1620 -0.2071
   19MOL   C428 9464   1.125   7.167   5.690 -1.4462 -0.1402  0.9153
   19MOL   C429 9465   1.030   7.116   5.797 -0.4019 -0.0659  0.2738
   19MOL   C430 9466   1.235   7.058   5.662  0.2956 -0.1004  0.5029
   19MOL   O431 9467   1.279   6.984   5.753  0.2213  0.3416 -0.0039
   19MOL   O432 9468   1.284   7.064   5.542  0.5539 -0.0094 -0.3269
   19MOL   C433 9469   1.369   6.962   5.483 -0.2866 -0.1907 -0.1754
   19MOL   C434 9470   1.490   7.014   5.405  0.1070 -0.2721 -0.2897
   19MOL   C435 9471   1.616   6.946   5.425  0.7600  0.3777 -0.4386
   19MOL   C436 9472   1.723   6.978   5.345 -0.8569 -0.2327  0.3372
   19MOL   C437 9473   1.712   7.082   5.252 -1.1533 -0.7692  0.3613
   19MOL   C438 9474   1.592   7.157   5.245  0.2850 -0.3731  0.4407
   19MOL   C439 9475   1.482   7.127   5.322 -0.3432  0.9170 -0.2695
   19MOL   H440 9476   1.105   7.336   5.802 -0.1407 -0.9131  0.5927
   19MOL   H441 9477   1.247   7.249   5.842  1.9575  1.8202 -0.5804
   19MOL   H442 9478   1.068   7.126   5.899 -1.9990  0.0213  0.8835
   19MOL   H443 9479   0.996   7.013   5.791  1.3009 -0.5949 -0.6137
   19MOL   H444 9480   0.944   7.183   5.809 -0.6204 -0.6646  2.2887
   19MOL   H445 9481   1.400   6.884   5.552  1.7321 -1.4150 -2.3783
   19MOL   H446 9482   1.307   6.906   5.414  0.2172 -2.4453  1.1356
   19MOL   H447 9483   1.629   6.872   5.503 -0.3517  0.8620  0.2137
   19MOL   H448 9484   1.814   6.927   5.375 -1.5010 -1.0009  1.0021
   19MOL   H449 9485   1.794   7.102   5.184  0.4071  0.2070  2.4752
   19MOL   H450 9486   1.601   7.241   5.178  2.0660 -0.4533  0.5525
   19MOL   H451 9487   1.391   7.184   5.312 -0.0874  1.4513  0.3929
   19MOL   C452 9488   1.046   7.197   5.561 -0.0243 -0.1246  0.7746
   19MOL   C453 9489   0.936   7.109   5.493  0.4280  0.2165 -0.3070
   19MOL   C454 9490   0.908   7.180   5.360 -0.4168  0.1260  0.3328
   19MOL   C455 9491   0.797   7.108   5.573  0.1274  0.0503 -0.4080
   19MOL   O456 9492   0.707   7.186   5.538 -0.5829 -0.0333 -0.1896
   19MOL   O457 9493   0.786   7.023   5.671  0.4097 -0.0636 -0.3320
   19MOL   C458 9494   0.655   6.990   5.743  0.2497 -0.6938 -0.4118
   19MOL   C459 9495   0.624   6.839   5.725  0.8802 -0.3003 -0.1678
   19MOL   C460 9496   0.718   6.735   5.739 -0.0170 -0.2089  0.2661
   19MOL   C461 9497   0.680   6.601   5.724 -0.4124 -0.5978  0.1134
   19MOL   C462 9498   0.553   6.567   5.685  0.2167 -0.0873  0.1537
   19MOL   C463 9499   0.457   6.670   5.676  0.0183  0.3315  0.3044
   19MOL   C464 9500   0.492   6.807   5.694 -0.2852  0.3428 -0.2732
   19MOL   H465 9501   1.123   7.235   5.493  1.0107 -0.8690  1.5083
   19MOL   H466 9502   0.994   7.288   5.589 -0.5998  0.0810 -0.9065
   19MOL   H467 9503   0.890   7.287   5.372 -0.3714  0.4758 -2.4658
   19MOL   H468 9504   0.821   7.138   5.309 -0.0825 -0.5646  0.3285
   19MOL   H469 9505   0.994   7.172   5.294 -0.6676  0.1750  0.0010
   19MOL   H470 9506   0.659   7.003   5.852 -1.7453  0.0501 -0.4142
   19MOL   H471 9507   0.566   7.043   5.711  0.4929  0.2124  0.3804
   19MOL   H472 9508   0.819   6.762   5.765  0.0466 -0.0938 -0.1066
   19MOL   H473 9509   0.751   6.520   5.736 -0.7338 -1.0230 -0.8455
   19MOL   H474 9510   0.516   6.466   5.672 -1.2686  0.5985 -1.1169
   19MOL   H475 9511   0.356   6.650   5.643  0.8594 -0.3252 -1.9250
   19MOL   H476 9512   0.412   6.880   5.690 -1.1628 -0.5286  0.9216
   19MOL   C477 9513   0.990   6.962   5.460 -0.0967 -0.1060  0.5843
   19MOL   C478 9514   0.903   6.876   5.357  0.0606 -0.2720  0.0628
   19MOL   C479 9515   0.901   6.734   5.418  0.0798 -0.3441 -0.0135
   19MOL   C480 9516   0.978   6.870   5.226  0.2563  0.2010 -0.6321
   19MOL   O481 9517   0.930   6.913   5.118 -0.6099  0.1468  0.5947
   19MOL   O482 9518   1.097   6.814   5.240  0.1040  0.3971  0.0944
   19MOL   C483 9519   1.197   6.818   5.138 -0.4766  0.3543  0.8400
   19MOL   C484 9520   1.309   6.720   5.158 -0.5620 -0.4192 -0.9436
   19MOL   C485 9521   1.434   6.763   5.110 -1.0978 -0.1224 -0.2896
   19MOL   C486 9522   1.543   6.677   5.121  0.4057  0.2104  0.4792
   19MOL   C487 9523   1.540   6.554   5.184  0.4122  0.2033 -0.2258
   19MOL   C488 9524   1.418   6.506   5.237 -0.8013  0.0094 -0.5368
   19MOL   C489 9525   1.303   6.595   5.225 -0.5920  0.8734  0.1871
   19MOL   H490 9526   0.995   6.911   5.556 -0.4588 -1.1374  0.0644
   19MOL   H491 9527   1.092   6.975   5.426 -1.0092  0.0729 -2.2487
   19MOL   H492 9528   0.834   6.739   5.504  2.6828 -0.6730  2.0694
   19MOL   H493 9529   1.000   6.696   5.442  0.7177  0.2608 -1.6396
   19MOL   H494 9530   0.866   6.660   5.346  0.2218  0.4155 -0.8630
   19MOL   H495 9531   1.155   6.810   5.037 -0.3924 -2.7129  1.0090
   19MOL   H496 9532   1.236   6.920   5.141  0.9059  0.0298 -3.3204
   19MOL   H497 9533   1.454   6.865   5.080  0.5967 -0.4159 -0.2390
   19MOL   H498 9534   1.639   6.704   5.079  0.4623 -1.2393 -0.3416
   19MOL   H499 9535   1.619   6.480   5.191 -0.0075 -0.2528 -0.2860
   19MOL   H500 9536   1.407   6.406   5.278  0.8298  0.0749  0.0758
   19MOL   H501 9537   1.206   6.571   5.268 -1.0263 -2.0798 -2.2389
   19MOL   H502 9538   0.804   6.920   5.349 -0.0013 -0.3152  0.6180
   20MOL     C1 9539   7.341   6.021   7.735  0.1932 -0.2652  0.5974
   20MOL     C2 9540   7.242   5.905   7.765 -0.8672  0.5376 -0.5533
   20MOL     C3 9541   7.330   5.768   7.767 -0.8140  0.1493 -0.0622
   20MOL     C4 9542   7.132   5.895   7.659 -0.2014 -0.3411 -0.9700
   20MOL     O5 9543   7.086   5.786   7.621  0.7755 -0.0684  0.6780
   20MOL     O6 9544   7.079   6.010   7.628  0.0296  0.2509  0.1857
   20MOL     C7 9545   6.953   6.014   7.566 -0.3253 -0.5113  0.6994
   20MOL     C8 9546   6.908   6.144   7.501 -0.0207  0.0567  0.3558
   20MOL     C9 9547   6.781   6.148   7.442  0.2103 -0.2986  0.6748
   20MOL    C10 9548   6.742   6.265   7.375 -0.5371 -0.4861 -0.7705
   20MOL    C11 9549   6.818   6.379   7.370  0.0609  0.2060 -0.3506
   20MOL    C12 9550   6.936   6.378   7.449  0.2220 -0.0216  0.3350
   20MOL    C13 9551   6.979   6.261   7.508  0.1936 -0.2533 -0.1109
   20MOL    H14 9552   7.299   6.107   7.787 -0.5227 -0.5810  0.5561
   20MOL    H15 9553   7.439   6.002   7.779  0.3977 -1.1171 -0.2150
   20MOL    H16 9554   7.264   5.681   7.758 -1.2560  0.4010  0.6737
   20MOL    H17 9555   7.388   5.763   7.860 -0.2501 -0.4719 -0.4415
   20MOL    H18 9556   7.399   5.757   7.683 -1.6048 -1.8057 -0.4983
   20MOL    H19 9557   6.947   5.933   7.494  0.4176  1.7503 -1.9974
   20MOL    H20 9558   6.885   6.000   7.651 -1.1475  1.1875  0.3656
   20MOL    H21 9559   6.718   6.060   7.431 -1.5108  0.4828  3.8213
   20MOL    H22 9560   6.645   6.273   7.329 -2.4007  0.8218  3.1641
   20MOL    H23 9561   6.777   6.468   7.325 -1.2963  0.7043  1.7998
   20MOL    H24 9562   6.998   6.467   7.448 -1.7699  1.4046 -0.8991
   20MOL    H25 9563   7.077   6.266   7.555  0.3288  1.3249 -0.5125
   20MOL    H26 9564   7.357   6.047   7.631 -3.4796  2.1299  0.5464
   20MOL    C27 9565   7.183   5.937   7.905  0.8131  0.3722  0.0833
   20MOL    C28 9566   7.113   5.829   8.005  1.0650 -0.2949 -0.3334
   20MOL    C29 9567   7.218   5.785   0.107 -0.5526  0.1967  0.1455
   20MOL    C30 9568   7.048   5.713   7.931 -0.0939  0.4492  1.0854
   20MOL    O31 9569   7.101   5.606   7.937  0.4070  0.8411 -0.1247
   20MOL    O32 9570   6.935   5.749   7.862 -0.0009  0.3190  0.1610
   20MOL    C33 9571   6.871   5.648   7.782 -0.0129 -0.6847  0.2489
   20MOL    C34 9572   6.770   5.709   7.682  0.3516  0.1460 -0.3997
   20MOL    C35 9573   6.716   5.839   7.706  0.2217  0.2265  0.1700
   20MOL    C36 9574   6.615   5.893   7.632  0.5271 -0.1000  0.1684
   20MOL    C37 9575   6.565   5.821   7.529 -0.4682 -0.5890  0.8288
   20MOL    C38 9576   6.625   5.697   7.490 -0.4119  0.0041 -0.3326
   20MOL    C39 9577   6.719   5.635   7.573  0.1353 -0.2130 -0.3543
   20MOL    H40 9578   7.118   6.024   7.893  0.8025  0.6509  1.9144
   20MOL    H41 9579   7.256   5.986   7.971 -0.8916  3.9968 -0.5759
   20MOL    H42 9580   7.252   5.861   0.177  1.0021  1.3590 -1.8120
   20MOL    H43 9581   7.305   5.748   0.052 -0.3534  0.8577  0.0123
   20MOL    H44 9582   7.188   5.694   0.157  2.2906 -1.7963 -1.6319
   20MOL    H45 9583   6.944   5.598   7.718 -0.9713 -0.7805 -0.7808
   20MOL    H46 9584   6.837   5.571   7.850  0.1793 -0.5491  0.5001
   20MOL    H47 9585   6.746   5.891   7.796  2.2679 -1.5130  0.5298
   20MOL    H48 9586   6.564   5.988   7.643  0.8964  0.2995 -1.3847
   20MOL    H49 9587   6.488   5.876   7.477  0.2185  0.3809  0.8302
   20MOL    H50 9588   6.584   5.638   7.408 -2.8476 -0.6266  1.2818
   20MOL    H51 9589   6.763   5.539   7.551  2.5477  0.9203 -0.6581
   20MOL    C52 9590   6.989   5.913   0.066  0.6085  0.2577  0.5165
   20MOL    C53 9591   6.927   5.871   0.202  0.3004  0.0706 -0.5334
   20MOL    C54 9592   7.030   5.877   0.320 -0.8445  0.7923  0.7877
   20MOL    C55 9593   6.862   5.726   0.208  0.2559 -0.4152 -0.3510
   20MOL    O56 9594   6.750   5.713   0.260 -0.2640 -0.7293  0.1603
   20MOL    O57 9595   6.945   5.617   0.175  0.1942 -0.8445  0.0038
   20MOL    C58 9596   6.895   5.488   0.188 -0.4640  0.2499 -0.4357
   20MOL    C59 9597   6.987   5.413   0.289  0.1283  0.1935 -0.8245
   20MOL    C60 9598   7.114   5.367   0.251  0.0703 -0.6508 -0.3380
   20MOL    C61 9599   7.197   5.304   0.350  0.5486  0.2922  0.4338
   20MOL    C62 9600   7.145   5.283   0.476 -0.5002 -0.0152 -0.0291
   20MOL    C63 9601   7.013   5.313   0.510 -0.8539  0.7508 -0.1771
   20MOL    C64 9602   6.938   5.386   0.419  0.9878  0.3833  0.2486
   20MOL    H65 9603   6.906   5.925   8.003  1.1061 -2.6752 -0.6230
   20MOL    H66 9604   7.022   6.016   0.085  1.1158 -0.2689  2.5761
   20MOL    H67 9605   6.985   5.890   0.418 -1.9489  0.6273  0.3055
   20MOL    H68 9606   7.104   5.956   0.302 -0.9377  0.4980 -1.0230
   20MOL    H69 9607   7.085   5.783   0.326 -1.3898  0.5525  1.9847
   20MOL    H70 9608   6.791   5.488   0.220 -0.7798 -3.1493 -1.2781
   20MOL    H71 9609   6.908   5.435   0.094 -1.6085 -0.0330 -0.4447
   20MOL    H72 9610   7.145   5.378   0.148 -1.1512 -1.2837 -0.7839
   20MOL    H73 9611   7.298   5.275   0.325 -0.2839  0.3125 -3.2967
   20MOL    H74 9612   7.191   5.232   0.560  0.1335 -0.6037 -0.7195
   20MOL    H75 9613   6.978   5.282   0.607 -0.7347 -0.8340 -0.6179
   20MOL    H76 9614   6.839   5.420   0.445  0.2496 -0.4019 -1.4920
   20MOL    C77 9615   6.824   5.990   0.243 -0.4400  0.5190  0.0859
   20MOL    C78 9616   6.705   6.054   0.153  0.5833 -0.9793  0.2677
   20MOL    C79 9617   6.632   5.932   0.087 -0.1202  0.1047 -0.3762
   20MOL    C80 9618   6.765   6.144   0.041 -0.4472 -0.5627  0.0523
   20MOL    O81 9619   6.865   6.216   0.058 -0.1027  0.2485 -0.0731
   20MOL    O82 9620   6.708   6.132   7.931 -0.0590  0.1832  0.2512
   20MOL    C83 9621   6.754   6.224   7.829 -0.3314  1.1613  0.2959
   20MOL    C84 9622   6.694   6.359   7.830 -0.2590  0.0867  0.8165
   20MOL    C85 9623   6.742   6.467   7.914 -0.3070 -0.2779  0.1826
   20MOL    C86 9624   6.679   6.596   7.913 -0.7016 -0.3189 -0.1760
   20MOL    C87 9625   6.573   6.619   7.824  0.1322  0.4684  0.4362
   20MOL    C88 9626   6.523   6.515   7.742  0.3391  0.4085  0.7412
   20MOL    C89 9627   6.585   6.391   7.751 -0.3075  0.0862 -0.2121
   20MOL    H90 9628   6.886   6.079   0.259 -2.1742  1.2010  3.3965
   20MOL    H91 9629   6.792   5.965   0.344 -0.1009 -2.0670 -0.4211
   20MOL    H92 9630   6.694   5.864   0.029  1.2796  0.5437  0.5836
   20MOL    H93 9631   6.567   5.970   0.008  0.6682  1.3688 -0.4369
   20MOL    H94 9632   6.581   5.869   0.159 -0.0442  0.4079 -0.0551
   20MOL    H95 9633   6.860   6.248   7.826 -0.0708  0.0450  0.4602
   20MOL    H96 9634   6.723   6.176   7.736 -1.1771 -0.6154  1.4607
   20MOL    H97 9635   6.826   6.439   7.975  1.0806  0.6933 -1.2403
   20MOL    H98 9636   6.725   6.674   7.973 -1.6039  1.7165 -2.0384
   20MOL    H99 9637   6.530   6.717   7.816 -1.2382  0.1490  3.1318
   20MOL   H100 9638   6.446   6.530   7.668 -1.8565  1.2348  3.1310
   20MOL   H101 9639   6.551   6.328   7.670 -0.5428 -0.6251  0.4354
   20MOL   C102 9640   6.619   6.132   0.251  0.6158 -0.6175 -0.0142
   20MOL   C103 9641   6.503   6.231   0.222  0.4263  0.3448  1.0588
   20MOL   C104 9642   6.567   6.360   0.162 -0.2942  0.3809  0.0900
   20MOL   C105 9643   6.448   6.265   0.362  0.1533  0.1338  0.5275
   20MOL   O106 9644   6.451   6.379   0.410  0.8282 -0.0713 -0.5422
   20MOL   O107 9645   6.401   6.155   0.429 -1.0247  0.2310 -0.2908
   20MOL   C108 9646   6.323   6.168   0.544  0.6437  0.3052 -0.3233
   20MOL   C109 9647   6.287   6.031   0.610  0.2270  0.2309  0.1215
   20MOL   C110 9648   6.355   5.913   0.574  0.0157 -0.0007  0.9291
   20MOL   C111 9649   6.306   5.790   0.626 -0.3839  0.0767  0.4809
   20MOL   C112 9650   6.195   5.795   0.713 -0.0865 -0.0778 -0.1482
   20MOL   C113 9651   6.126   5.918   0.742  0.1985 -0.0087  0.0707
   20MOL   C114 9652   6.181   6.035   0.699  0.0350 -0.0841  0.0228
   20MOL   H115 9653   6.685   6.188   0.316 -1.1678  0.0497  1.2805
   20MOL   H116 9654   6.590   6.047   0.313 -1.3820 -0.4904 -0.7222
   20MOL   H117 9655   6.568   6.362   0.053  3.5571 -1.8755  0.0352
   20MOL   H118 9656   6.670   6.369   0.194 -0.1902  0.4233 -0.2515
   20MOL   H119 9657   6.510   6.450   0.188 -1.2005 -0.2701  0.3862
   20MOL   H120 9658   6.381   6.231   0.611 -0.7626  0.6417  0.6064
   20MOL   H121 9659   6.233   6.228   0.529  0.7265  0.0296 -2.0069
   20MOL   H122 9660   6.435   5.917   0.502  0.0465  1.0598  1.0146
   20MOL   H123 9661   6.360   5.698   0.604  1.4226  1.0317  0.8316
   20MOL   H124 9662   6.156   5.701   0.750 -1.6594  0.7148  0.2423
   20MOL   H125 9663   6.043   5.918   0.811  1.0063  3.4298  1.1307
   20MOL   H126 9664   6.138   6.132   0.721 -1.5938 -0.7879  0.0833
   20MOL   C127 9665   6.394   6.166   0.126 -0.2055  0.5676 -0.2632
   20MOL   C128 9666   6.262   6.233   0.083  0.5227 -0.2832  0.3286
   20MOL   C129 9667   6.290   6.372   0.024 -0.1219  0.7689 -0.3925
   20MOL   C130 9668   6.164   6.261   0.201 -0.7075  0.1315 -0.1483
   20MOL   O131 9669   6.128   6.171   0.278 -0.8260  0.2808  0.6486
   20MOL   O132 9670   6.113   6.389   0.208 -0.1672 -0.0761 -0.0195
   20MOL   C133 9671   6.037   6.441   0.315  0.0328 -0.1096 -0.7256
   20MOL   C134 9672   6.109   6.545   0.391  0.0511  0.2856  0.1960
   20MOL   C135 9673   6.132   6.671   0.326  0.6861  0.3435  0.2266
   20MOL   C136 9674   6.197   6.781   0.390  0.6508 -0.4585 -0.3835
   20MOL   C137 9675   6.237   6.765   0.521 -0.0359 -0.0423 -0.0449
   20MOL   C138 9676   6.213   6.639   0.581 -0.3535  0.1042  0.4703
   20MOL   C139 9677   6.148   6.525   0.527  0.7368  0.1109 -0.1501
   20MOL   H140 9678   6.381   6.063   0.162 -0.3556  0.4657 -0.6113
   20MOL   H141 9679   6.449   6.142   0.035 -2.1738  0.9863 -1.5764
   20MOL   H142 9680   6.205   6.417   7.980 -0.2323 -1.2765 -2.1073
   20MOL   H143 9681   6.378   6.362   7.967  0.8681 -0.9391  1.1908
   20MOL   H144 9682   6.325   6.444   0.098 -0.3013  1.1761 -0.7036
   20MOL   H145 9683   5.942   6.484   0.283 -0.9599 -0.6163  1.4562
   20MOL   H146 9684   6.012   6.352   0.374 -0.1336 -0.3694 -1.1860
   20MOL   H147 9685   6.103   6.689   0.224 -0.1734 -3.0604 -0.1980
   20MOL   H148 9686   6.203   6.875   0.337 -3.4063  0.3846  0.4782
   20MOL   H149 9687   6.278   6.843   0.582  0.2157  0.7486 -1.2034
   20MOL   H150 9688   6.239   6.635   0.685 -1.8545 -0.9988  0.8246
   20MOL   H151 9689   6.128   6.440   0.590  1.3249 -0.6384 -0.9657
   20MOL   C152 9690   6.185   6.136   7.994  0.1884 -0.7609  0.9561
   20MOL   C153 9691   6.206   6.131   7.833 -0.3238 -0.4533 -0.0143
   20MOL   C154 9692   6.360   6.112   7.795 -0.7750 -0.0385  0.3550
   20MOL   C155 9693   6.155   6.262   7.767 -0.3920  0.0180 -0.3860
   20MOL   O156 9694   6.200   6.302   7.661 -0.1818 -0.3266 -0.7690
   20MOL   O157 9695   6.047   6.313   7.822  0.0941  0.2055  0.1371
   20MOL   C158 9696   5.992   6.441   7.770 -0.1483  0.1320 -0.6265
   20MOL   C159 9697   5.879   6.497   7.859  0.3228  0.0286 -0.5032
   20MOL   C160 9698   5.793   6.585   7.802  0.6224  0.8073 -0.2763
   20MOL   C161 9699   5.689   6.644   7.879 -0.5741 -0.6843 -0.1282
   20MOL   C162 9700   5.664   6.599   0.002 -0.8454 -0.4384 -0.3239
   20MOL   C163 9701   5.749   6.499   0.065  0.3115  0.4124  1.1898
   20MOL   C164 9702   5.848   6.443   7.989 -0.0698 -0.1204  0.3117
   20MOL   H165 9703   6.077   6.145   7.998  0.1043 -1.8509  1.0811
   20MOL   H166 9704   6.196   6.036   0.028 -0.6296 -1.5123 -0.5876
   20MOL   H167 9705   6.389   6.009   7.817  0.2572  0.1495 -0.0738
   20MOL   H168 9706   6.422   6.183   7.849 -0.5023  1.0809 -1.3812
   20MOL   H169 9707   6.383   6.135   7.690  2.8048 -1.4708  0.7399
   20MOL   H170 9708   6.069   6.518   7.770  1.8010 -1.7359 -2.0983
   20MOL   H171 9709   5.956   6.415   7.670 -2.4199 -0.1589  0.2434
   20MOL   H172 9710   5.800   6.611   7.697  2.3499  1.7299  0.0426
   20MOL   H173 9711   5.617   6.712   7.834  0.4144  0.1176 -0.5117
   20MOL   H174 9712   5.587   6.633   0.070 -0.8437  0.6317 -0.8507
   20MOL   H175 9713   5.725   6.442   0.154  0.7297 -1.7410 -0.0610
   20MOL   H176 9714   5.906   6.358   0.015  0.7969 -1.3168 -3.9605
   20MOL   C177 9715   6.125   5.995   7.798 -0.0394 -0.2801  0.1695
   20MOL   C178 9716   6.103   5.938   7.655  0.0139 -0.6243 -0.0123
   20MOL   C179 9717   6.234   5.932   7.579  0.1101 -0.6776  0.2834
   20MOL   C180 9718   6.004   6.019   7.566  0.4945 -0.0736 -0.1429
   20MOL   O181 9719   5.908   6.086   7.609 -0.7042  0.3113 -0.4841
   20MOL   O182 9720   6.024   6.002   7.428 -0.5143 -0.2089  0.4204
   20MOL   C183 9721   5.935   6.056   7.337  0.5584  0.7446 -0.1087
   20MOL   C184 9722   5.974   6.190   7.293 -0.4705 -0.0275  0.3665
   20MOL   C185 9723   5.932   6.304   7.367  0.3250 -0.1372  0.1020
   20MOL   C186 9724   5.957   6.437   7.331 -0.2473 -0.2917  0.3673
   20MOL   C187 9725   6.026   6.457   7.211  0.2778 -0.4265  0.4929
   20MOL   C188 9726   6.069   6.347   7.133 -0.4913  0.2912  0.2456
   20MOL   C189 9727   6.040   6.215   7.172 -0.1852  0.0122  0.8892
   20MOL   H190 9728   6.024   6.004   7.838 -0.1121 -0.3867  0.0066
   20MOL   H191 9729   6.149   5.911   7.864 -4.9020 -1.1578  0.9505
   20MOL   H192 9730   6.256   6.035   7.551 -1.1967 -0.0994  1.3297
   20MOL   H193 9731   6.224   5.865   7.493 -0.3308 -0.3298  0.0581
   20MOL   H194 9732   6.324   5.901   7.630  1.2741  1.5414 -0.3666
   20MOL   H195 9733   5.932   5.995   7.246 -1.4808  1.9881 -0.9151
   20MOL   H196 9734   5.835   6.067   7.380  0.2529 -2.3697  0.0595
   20MOL   H197 9735   5.875   6.285   7.457 -0.1762  2.0860  0.2755
   20MOL   H198 9736   5.921   6.510   7.402 -0.6495 -1.2290  1.1395
   20MOL   H199 9737   6.051   6.557   7.178 -2.3502 -0.0750 -0.5773
   20MOL   H200 9738   6.125   6.366   7.042  2.3547  1.3396  2.1671
   20MOL   H201 9739   6.067   6.133   7.106 -1.0596  1.3081 -1.1060
   20MOL   C202 9740   6.057   5.788   7.649  0.3379 -0.0358  0.0560
   20MOL   C203 9741   5.929   5.717   7.698  0.3877 -0.0657 -0.6642
   20MOL   C204 9742   5.813   5.763   7.603  0.1849  0.1216 -0.4002
   20MOL   C205 9743   5.888   5.758   7.839 -0.1376 -0.2047  0.0321
   20MOL   O206 9744   5.787   5.815   7.869  0.5642  0.4892  0.1381
   20MOL   O207 9745   5.981   5.725   7.924 -0.0567 -0.1549 -0.0076
   20MOL   C208 9746   5.954   5.717   0.060 -0.3490 -0.2902  0.0739
   20MOL   C209 9747   6.080   5.724   0.142  0.6631  0.7242 -0.6684
   20MOL   C210 9748   6.105   5.843   0.217 -0.5814 -0.2055 -0.0661
   20MOL   C211 9749   6.223   5.855   0.286 -0.4309  0.4597  0.4496
   20MOL   C212 9750   6.323   5.759   0.268 -0.5715  0.3553  0.6138
   20MOL   C213 9751   6.305   5.648   0.183 -0.1476 -0.6239 -0.2243
   20MOL   C214 9752   6.180   5.634   0.122 -0.2315 -0.8779  0.0089
   20MOL   H215 9753   6.141   5.738   7.696  0.9637 -1.0960 -2.1022
   20MOL   H216 9754   6.065   5.755   7.545  0.9047  0.7687 -0.1643
   20MOL   H217 9755   5.728   5.695   7.611 -0.0893  0.6509  1.4321
   20MOL   H218 9756   5.846   5.772   7.499 -1.3280 -4.3532 -1.3648
   20MOL   H219 9757   5.779   5.866   7.617 -1.4299  0.0715 -3.4357
   20MOL   H220 9758   5.898   5.809   0.079 -2.1386 -1.1946 -0.7212
   20MOL   H221 9759   5.897   5.628   0.086 -3.0732  0.4913 -2.9329
   20MOL   H222 9760   6.027   5.914   0.239  0.6270  0.7601  1.2331
   20MOL   H223 9761   6.248   5.944   0.342  2.1317  0.0281  0.0231
   20MOL   H224 9762   6.421   5.783   0.307 -0.9213  1.6533  0.7234
   20MOL   H225 9763   6.381   5.573   0.167 -1.7425 -2.5240  0.8517
   20MOL   H226 9764   6.159   5.553   0.054 -0.3495 -0.7527 -0.1039
   20MOL   C227 9765   5.955   5.562   7.703  0.3477 -0.3943  0.1226
   20MOL   C228 9766   5.941   5.460   7.581 -0.2041 -0.2551  0.2318
   20MOL   C229 9767   6.015   5.331   7.632  0.1652  0.5123 -0.7418
   20MOL   C230 9768   6.027   5.509   7.457 -0.5490 -0.2195 -0.8260
   20MOL   O231 9769   5.982   5.533   7.347  0.4272 -0.5548  0.2980
   20MOL   O232 9770   6.155   5.525   7.495  0.6781  0.1043  0.3695
   20MOL   C233 9771   6.255   5.558   7.403  0.1717  0.0353  0.3562
   20MOL   C234 9772   6.317   5.439   7.334 -1.2140 -0.6599 -0.6807
   20MOL   C235 9773   6.315   5.440   7.193 -0.3556  0.5423 -0.8069
   20MOL   C236 9774   6.364   5.334   7.114 -0.1130  0.0936  0.1205
   20MOL   C237 9775   6.424   5.227   7.187 -0.2374 -0.8908 -0.5035
   20MOL   C238 9776   6.433   5.234   7.329 -0.4868 -0.1247  0.3463
   20MOL   C239 9777   6.370   5.335   7.406 -0.7624  0.7789 -0.0410
   20MOL   H240 9778   5.886   5.516   7.773  1.5940 -1.8610  0.4388
   20MOL   H241 9779   6.057   5.549   7.740  0.5709  0.9156 -0.0145
   20MOL   H242 9780   5.959   5.288   7.715 -1.2484 -0.6988 -2.3016
   20MOL   H243 9781   6.112   5.355   7.677  0.1728  2.1803 -1.5697
   20MOL   H244 9782   6.033   5.258   7.553 -5.3170  2.1788 -3.8088
   20MOL   H245 9783   6.219   5.621   7.321  0.1355  0.0425  0.3769
   20MOL   H246 9784   6.334   5.615   7.451  0.8265 -1.1335  0.6725
   20MOL   H247 9785   6.266   5.530   7.157 -0.0650  0.9152 -0.2902
   20MOL   H248 9786   6.365   5.338   7.006  0.0866 -2.4097 -0.0046
   20MOL   H249 9787   6.470   5.148   7.129  1.4053  0.8497 -1.6502
   20MOL   H250 9788   6.472   5.153   7.388 -1.8230 -2.0511 -1.3346
   20MOL   H251 9789   6.369   5.336   7.514  2.3103 -0.9399  0.0526
   20MOL   C252 9790   5.791   5.444   7.548  0.0522  0.3630  0.5042
   20MOL   C253 9791   5.726   5.317   7.476  0.4129  0.2164  0.2961
   20MOL   C254 9792   5.777   5.295   7.335 -0.4774 -0.4565 -0.2551
   20MOL   C255 9793   5.576   5.362   7.461  0.8556 -0.3291 -0.3182
   20MOL   O256 9794   5.529   5.405   7.354  0.0705 -0.1638  0.5454
   20MOL   O257 9795   5.512   5.376   7.577 -0.0799 -0.0414 -0.0419
   20MOL   C258 9796   5.378   5.440   7.583  0.6455 -0.0167  0.1015
   20MOL   C259 9797   5.392   5.588   7.618 -0.2346  0.5208 -0.7994
   20MOL   C260 9798   5.463   5.631   7.735  0.0867  0.3539 -0.3226
   20MOL   C261 9799   5.483   5.768   7.769  0.4871  0.3688 -0.3232
   20MOL   C262 9800   5.426   5.868   7.681  0.2698  0.0660 -0.2482
   20MOL   C263 9801   5.370   5.827   7.558 -0.6879  0.1788  0.2795
   20MOL   C264 9802   5.349   5.689   7.526  0.1401 -0.0905 -1.0015
   20MOL   H265 9803   5.773   5.524   7.477 -0.2824  1.3447  1.6838
   20MOL   H266 9804   5.733   5.467   7.638  0.9916  0.7575  1.0103
   20MOL   H267 9805   5.880   5.259   7.333  1.0405  3.5413  0.7252
   20MOL   H268 9806   5.795   5.389   7.281  0.5748 -0.1324  0.6397
   20MOL   H269 9807   5.715   5.232   7.272  0.7918  0.1112 -2.1219
   20MOL   H270 9808   5.327   5.421   7.488  1.3212 -2.7666  0.2446
   20MOL   H271 9809   5.316   5.387   7.656  0.1213 -0.7726 -0.8752
   20MOL   H272 9810   5.504   5.556   7.800  2.2615  2.6283  1.0225
   20MOL   H273 9811   5.513   5.790   7.871  0.5015 -2.0632  0.2140
   20MOL   H274 9812   5.418   5.973   7.705 -1.9662 -0.0251 -0.5002
   20MOL   H275 9813   5.326   5.907   7.500  0.2862 -0.9391 -2.0651
   20MOL   H276 9814   5.310   5.660   7.430 -0.7936 -1.3024 -0.2636
   20MOL   C277 9815   5.748   5.183   7.560  0.2999  0.3323  0.5486
   20MOL   C278 9816   5.642   5.065   7.566  0.3688 -0.5119 -0.7246
   20MOL   C279 9817   5.586   5.033   7.426 -0.1485  0.2720 -1.0594
   20MOL   C280 9818   5.519   5.075   7.664  0.6617 -0.0498 -0.1359
   20MOL   O281 9819   5.411   5.024   7.633  0.0716 -0.4124  0.5817
   20MOL   O282 9820   5.546   5.147   7.773  0.0817  0.0181  0.8544
   20MOL   C283 9821   5.446   5.164   7.870  0.0413  0.5326 -0.0861
   20MOL   C284 9822   5.499   5.237   7.995 -0.0608  0.4320 -0.3095
   20MOL   C285 9823   5.580   5.345   7.979 -0.4050  0.3966  0.2002
   20MOL   C286 9824   5.632   5.409   0.083 -0.2635 -0.3168 -0.6754
   20MOL   C287 9825   5.618   5.355   0.213  0.2418  0.4565 -0.4360
   20MOL   C288 9826   5.533   5.243   0.228 -0.5219  0.0839 -0.2169
   20MOL   C289 9827   5.467   5.184   0.118 -0.2149 -0.6448 -0.0097
   20MOL   H290 9828   5.771   5.214   7.662  1.5447  0.0035  0.3785
   20MOL   H291 9829   5.845   5.144   7.532 -0.8013 -3.2389  1.5133
   20MOL   H292 9830   5.507   5.105   7.402 -0.7500 -0.2590 -0.7049
   20MOL   H293 9831   5.534   4.938   7.437  0.9734 -0.1724  0.4476
   20MOL   H294 9832   5.656   5.019   7.343  0.6509  0.7587 -0.4686
   20MOL   H295 9833   5.372   5.220   7.813  0.5530 -0.9525 -2.2832
   20MOL   H296 9834   5.406   5.066   7.892  0.8143  0.0961 -0.5907
   20MOL   H297 9835   5.603   5.378   7.878  0.5113  1.3011  0.6934
   20MOL   H298 9836   5.699   5.492   0.075 -0.8211  0.2794  0.8043
   20MOL   H299 9837   5.674   5.396   0.297  0.0893  2.1600 -1.1626
   20MOL   H300 9838   5.504   5.194   0.320  1.5050 -0.7774 -0.0201
   20MOL   H301 9839   5.386   5.115   0.135  0.4773 -0.7672  2.9681
   20MOL   C302 9840   5.717   4.932   7.611 -0.0608 -0.5787 -0.2494
   20MOL   C303 9841   5.818   4.910   7.734  0.3326 -0.6109 -0.2557
   20MOL   C304 9842   5.780   4.996   7.861  0.2596  0.4686  0.3752
   20MOL   C305 9843   5.959   4.951   7.687 -0.8362 -0.3121  0.1030
   20MOL   O306 9844   6.025   5.034   7.744  0.3223  0.2845  0.2544
   20MOL   O307 9845   5.998   4.891   7.569 -0.0411  0.4373 -0.1427
   20MOL   C308 9846   6.105   4.941   7.494 -0.1158  0.5326  0.6722
   20MOL   C309 9847   6.057   4.969   7.350 -0.8563 -0.6745  0.0392
   20MOL   C310 9848   5.975   4.873   7.285  0.1438 -0.2413 -0.6639
   20MOL   C311 9849   5.933   4.890   7.156  0.3133 -0.7615  0.5190
   20MOL   C312 9850   5.967   5.009   7.080 -0.5533  0.0414  0.2733
   20MOL   C313 9851   6.046   5.106   7.149 -0.0010 -0.4064  0.0982
   20MOL   C314 9852   6.096   5.087   7.277 -0.3218  0.2866  0.5029
   20MOL   H315 9853   5.768   4.882   7.528 -2.8724 -2.6490 -0.8182
   20MOL   H316 9854   5.651   4.845   7.613  0.4853 -0.9566  2.0753
   20MOL   H317 9855   5.855   4.980   7.939  0.2896  2.1416  0.7066
   20MOL   H318 9856   5.679   4.983   7.901 -0.1341  0.8148 -0.5096
   20MOL   H319 9857   5.793   5.103   7.847 -0.5507  0.8401  2.2980
   20MOL   H320 9858   6.156   5.023   7.544  0.9781  0.8148 -0.8520
   20MOL   H321 9859   6.178   4.860   7.496  1.3244  1.8546  2.2510
   20MOL   H322 9860   5.944   4.793   7.351  1.0228 -1.4177 -1.6394
   20MOL   H323 9861   5.864   4.819   7.111  0.5750  0.4212 -1.8546
   20MOL   H324 9862   5.930   5.018   6.979 -2.3152 -0.0686  0.8863
   20MOL   H325 9863   6.077   5.193   7.092  1.7598  0.2993  2.0800
   20MOL   H326 9864   6.151   5.167   7.322 -1.3730  1.5811 -0.4702
   20MOL   C327 9865   5.830   4.757   7.773  0.0218  0.4328 -0.1618
   20MOL   C328 9866   5.731   4.679   7.876  0.3501  0.4173 -0.0617
   20MOL   C329 9867   5.588   4.698   7.819 -0.0982  0.5877  0.2491
   20MOL   C330 9868   5.742   4.743   0.017  0.7779 -0.2281  0.1310
   20MOL   O331 9869   5.844   4.783   0.072  0.3102  0.4403  0.2018
   20MOL   O332 9870   5.628   4.725   0.080 -0.8507 -0.2498  0.7606
   20MOL   C333 9871   5.596   4.760   0.216 -0.2145 -0.4321 -0.5505
   20MOL   C334 9872   5.451   4.803   0.238  0.4254 -0.2781  0.1796
   20MOL   C335 9873   5.424   4.851   0.367  0.4208  0.7783  0.0775
   20MOL   C336 9874   5.291   4.883   0.406  0.4411 -0.5509  0.4290
   20MOL   C337 9875   5.190   4.845   0.319 -0.0234 -0.0097 -0.3359
   20MOL   C338 9876   5.215   4.796   0.193 -0.4356 -0.2248  0.1350
   20MOL   C339 9877   5.345   4.774   0.149  0.2192  0.5896  0.2640
   20MOL   H340 9878   5.927   4.735   7.819 -0.8930  0.1667  1.6903
   20MOL   H341 9879   5.818   4.699   7.682  0.1697  0.3330 -0.1180
   20MOL   H342 9880   5.591   4.665   7.715 -0.5685 -2.4332  1.1603
   20MOL   H343 9881   5.545   4.797   7.803  0.8021  1.0496  0.6330
   20MOL   H344 9882   5.515   4.631   7.863 -1.6546  1.6623 -0.6424
   20MOL   H345 9883   5.617   4.672   0.277  2.1773 -0.1544 -0.9291
   20MOL   H346 9884   5.665   4.834   0.256 -0.0598 -0.6135 -0.4822
   20MOL   H347 9885   5.502   4.859   0.441  2.0479  0.9972 -1.6083
   20MOL   H348 9886   5.270   4.927   0.503 -1.7944 -0.0322 -0.2598
   20MOL   H349 9887   5.089   4.853   0.355 -0.2797  0.1778 -1.0933
   20MOL   H350 9888   5.131   4.770   0.131 -0.2990 -0.9677  0.2612
   20MOL   H351 9889   5.368   4.738   0.050 -0.3852  2.3213 -0.5310
   20MOL   C352 9890   5.743   4.520   7.888  1.1487 -0.4424 -0.0950
   20MOL   C353 9891   5.873   4.434   7.925  0.2566 -0.0898 -0.1674
   20MOL   C354 9892   5.959   4.498   0.034 -0.2904 -0.6985  0.3371
   20MOL   C355 9893   5.963   4.417   7.804  0.2067  0.1852 -0.3159
   20MOL   O356 9894   5.925   4.467   7.695  0.0597 -0.0084  0.1332
   20MOL   O357 9895   6.083   4.356   7.830  0.1789 -0.4728  0.1727
   20MOL   C358 9896   6.177   4.340   7.732  0.5338  0.1049 -0.4112
   20MOL   C359 9897   6.307   4.286   7.784 -0.1732 -0.3900 -0.7805
   20MOL   C360 9898   6.393   4.222   7.700 -0.3913 -0.1941  0.7196
   20MOL   C361 9899   6.516   4.170   7.745 -0.2910 -0.1073 -0.2064
   20MOL   C362 9900   6.550   4.197   7.875 -0.2260  1.0683 -0.6039
   20MOL   C363 9901   6.463   4.268   7.964 -0.2133 -0.0738 -0.2292
   20MOL   C364 9902   6.339   4.311   7.918 -0.1767 -1.0186  0.1543
   20MOL   H365 9903   5.711   4.490   7.788 -2.8366 -3.6454  2.0009
   20MOL   H366 9904   5.674   4.487   7.966 -0.6858  0.7294 -1.1652
   20MOL   H367 9905   5.897   4.535   0.115 -0.2957  0.6221 -0.2570
   20MOL   H368 9906   6.021   4.584   0.008 -0.4331 -0.6215  0.2532
   20MOL   H369 9907   6.022   4.422   0.081  0.1521  0.1253  1.1092
   20MOL   H370 9908   6.138   4.259   7.670  1.3905 -0.9847  0.4539
   20MOL   H371 9909   6.205   4.429   7.676  1.0645 -2.2762 -4.1601
   20MOL   H372 9910   6.375   4.207   7.594  4.8316  0.0359 -0.3052
   20MOL   H373 9911   6.586   4.129   7.674 -0.1429  0.9433 -0.6906
   20MOL   H374 9912   6.651   4.177   7.910 -0.4869  0.4804 -0.1706
   20MOL   H375 9913   6.503   4.298   0.053  0.4165  0.2094 -0.5750
   20MOL   H376 9914   6.270   4.359   7.985  1.1387  0.1998  0.6515
   20MOL   C377 9915   5.826   4.292   7.975  0.3211  0.3197 -0.2649
   20MOL   C378 9916   5.717   4.200   7.909 -0.3735 -0.6301  0.1883
   20MOL   C379 9917   5.749   4.190   7.749 -0.1245  0.3730 -0.2724
   20MOL   C380 9918   5.578   4.256   7.932 -0.0431  0.0168 -0.4271
   20MOL   O381 9919   5.497   4.267   7.843 -0.1910  0.3303 -0.3185
   20MOL   O382 9920   5.554   4.290   0.046 -0.0176  0.0770 -0.5240
   20MOL   C383 9921   5.424   4.325   0.091  0.0216  0.2524  0.9572
   20MOL   C384 9922   5.420   4.381   0.232  0.0014 -0.0603  0.1029
   20MOL   C385 9923   5.535   4.417   0.306 -0.3185  0.7054 -0.5333
   20MOL   C386 9924   5.529   4.453   0.440  0.3499 -0.9048  0.3361
   20MOL   C387 9925   5.404   4.485   0.498 -0.3451  0.2041 -0.1758
   20MOL   C388 9926   5.286   4.471   0.421  0.0861 -0.4404  0.2249
   20MOL   C389 9927   5.296   4.412   0.291 -0.8117  0.0906  0.5436
   20MOL   H390 9928   5.793   4.305   0.071  2.7854  1.5466  0.3994
   20MOL   H391 9929   5.920   4.237   7.983  0.0674 -0.1470 -0.4294
   20MOL   H392 9930   5.686   4.118   7.696 -2.0823 -0.4746  2.9880
   20MOL   H393 9931   5.850   4.149   7.742 -0.2273 -0.1094  0.8720
   20MOL   H394 9932   5.752   4.285   7.697  0.1988  0.0701 -0.8149
   20MOL   H395 9933   5.373   4.393   0.022  0.6238 -1.8837 -1.6421
   20MOL   H396 9934   5.358   4.239   0.082 -0.1565  0.4654  0.1504
   20MOL   H397 9935   5.632   4.408   0.261 -0.3728 -1.4844 -0.2553
   20MOL   H398 9936   5.616   4.481   0.497  0.3222 -1.9392  0.9108
   20MOL   H399 9937   5.401   4.519   0.600  1.5925 -0.8867  0.2722
   20MOL   H400 9938   5.192   4.498   0.466  1.0717  1.8062  0.9979
   20MOL   H401 9939   5.207   4.408   0.230 -0.1527 -0.3881 -0.4094
   20MOL   C402 9940   5.750   4.061   7.977 -0.8275 -0.1621  0.1107
   20MOL   C403 9941   5.652   3.940   7.987 -0.0057 -0.0861  0.3200
   20MOL   C404 9942   5.603   3.912   7.840 -0.5937  0.7677 -0.4952
   20MOL   C405 9943   5.529   3.978   0.069  0.3182  0.7760 -0.6576
   20MOL   O406 9944   5.415   3.982   0.026  0.0981 -0.9246  0.0720
   20MOL   O407 9945   5.555   3.998   0.202  0.1943 -0.6934  0.3935
   20MOL   C408 9946   5.443   4.017   0.294  0.2033  0.2532 -0.5162
   20MOL   C409 9947   5.484   3.968   0.438 -0.2488 -0.8787  0.5468
   20MOL   C410 9948   5.467   3.832   0.464 -0.4687 -0.2021  1.1783
   20MOL   C411 9949   5.511   3.769   0.575 -0.3188  0.0606 -0.5558
   20MOL   C412 9950   5.586   3.848   0.668  0.1418 -0.1784  0.0384
   20MOL   C413 9951   5.610   3.987   0.648 -0.8099 -0.5082 -0.0541
   20MOL   C414 9952   5.559   4.046   0.529  0.2201 -0.4660  0.2415
   20MOL   H415 9953   5.789   4.080   0.071 -1.9525 -0.2583  0.5665
   20MOL   H416 9954   5.842   4.031   7.926 -0.0932  1.7108  0.3028
   20MOL   H417 9955   5.531   3.982   7.798 -0.3694  1.3244  0.0380
   20MOL   H418 9956   5.569   3.809   7.828  1.7391 -0.0010 -0.7352
   20MOL   H419 9957   5.687   3.919   7.771 -0.4643  1.5100 -0.2723
   20MOL   H420 9958   5.414   4.122   0.290  1.5700  0.5959 -1.4796
   20MOL   H421 9959   5.363   3.948   0.267  0.3316 -0.1874  0.2283
   20MOL   H422 9960   5.409   3.777   0.392 -0.7587  1.0361  0.4430
   20MOL   H423 9961   5.501   3.662   0.592  0.6375 -0.2105 -1.6216
   20MOL   H424 9962   5.644   3.805   0.748  2.6715  1.2839 -0.9362
   20MOL   H425 9963   5.665   4.050   0.716 -0.4159 -0.1620 -0.6883
   20MOL   H426 9964   5.572   4.150   0.505  0.2391 -0.6697 -0.6531
   20MOL   C427 9965   5.733   3.824   0.050 -0.3573  0.4569 -0.5368
   20MOL   C428 9966   5.688   3.672   0.064  0.2398  0.0381 -0.6799
   20MOL   C429 9967   5.560   3.667   0.140  0.1554  0.1310  0.1558
   20MOL   C430 9968   5.796   3.617   0.166 -0.3163  0.7051  0.3613
   20MOL   O431 9969   5.916   3.636   0.151  0.5031 -0.8025  0.1309
   20MOL   O432 9970   5.744   3.535   0.263  0.0442  0.0846 -0.0349
   20MOL   C433 9971   5.823   3.481   0.369  1.1679 -0.1715 -0.1352
   20MOL   C434 9972   5.748   3.380   0.452  0.2173  0.7509 -0.1281
   20MOL   C435 9973   5.713   3.253   0.402  0.9826  0.4852  0.6445
   20MOL   C436 9974   5.630   3.168   0.477  0.2909 -0.9040 -0.0340
   20MOL   C437 9975   5.586   3.209   0.604  0.1337  0.0668  0.3147
   20MOL   C438 9976   5.621   3.335   0.656 -0.2685  1.0094 -0.1582
   20MOL   C439 9977   5.701   3.422   0.579 -0.2916 -0.0953  0.1267
   20MOL   H440 9978   5.773   3.855   0.147  1.3071 -1.5716 -0.5368
   20MOL   H441 9979   5.826   3.819   8.001 -0.5013 -0.8316 -0.6723
   20MOL   H442 9980   5.489   3.729   0.086 -0.7296 -0.3676  0.7277
   20MOL   H443 9981   5.563   3.724   0.232 -1.1532  0.2216  0.1422
   20MOL   H444 9982   5.519   3.570   0.170 -1.2367 -0.6473 -3.9591
   20MOL   H445 9983   5.908   3.424   0.330  0.8472 -0.5766 -0.2504
   20MOL   H446 9984   5.870   3.559   0.429  1.9656  0.9468 -2.1556
   20MOL   H447 9985   5.747   3.225   0.303  0.4633 -0.9383  0.8622
   20MOL   H448 9986   5.604   3.074   0.430  1.0793 -0.4338 -1.4507
   20MOL   H449 9987   5.519   3.150   0.665 -0.6692  0.1419 -0.4940
   20MOL   H450 9988   5.586   3.360   0.755  0.9985 -0.7481  0.7645
   20MOL   H451 9989   5.717   3.525   0.607  0.7685 -0.2546  0.1322
   20MOL   C452 9990   5.689   3.601   7.930  0.4330 -0.2598  0.3886
   20MOL   C453 9991   5.706   3.447   7.919  0.0840 -0.7512 -0.6966
   20MOL   C454 9992   5.679   3.401   7.772 -0.3105 -0.0944  0.7123
   20MOL   C455 9993   5.595   3.372   8.004 -0.3689  1.1860  0.3473
   20MOL   O456 9994   5.619   3.298   0.088 -0.3125  0.6046  0.1508
   20MOL   O457 9995   5.472   3.408   7.966  0.1650 -0.0690 -0.4534
   20MOL   C458 9996   5.357   3.365   0.037  1.1971 -0.1285  0.2905
   20MOL   C459 9997   5.221   3.436   0.011  0.1155  0.2020 -0.5277
   20MOL   C460 9998   5.217   3.572   7.993  0.1799 -0.3389  0.1013
   20MOL   C461 9999   5.088   3.634   7.979  0.7113  0.3341  0.3129
   20MOL   C46210000   4.972   3.556   8.001  0.6631 -0.0558 -0.3217
   20MOL   C46310001   4.983   3.419   0.027  0.4580 -0.0922  0.5262
   20MOL   C46410002   5.106   3.360   0.035  0.8782  0.5964 -0.2338
   20MOL   H46510003   5.756   3.653   7.861  2.0086 -3.4128 -0.5357
   20MOL   H46610004   5.589   3.613   7.889  0.5701 -0.2084  0.0656
   20MOL   H46710005   5.771   3.415   7.716 -0.5736  3.1242  1.0145
   20MOL   H46810006   5.604   3.460   7.720 -0.2735  1.3356  2.2589
   20MOL   H46910007   5.645   3.297   7.765  0.3089 -0.1696 -1.4987
   20MOL   H47010008   5.356   3.257   0.022  1.1679 -0.0217 -0.4723
   20MOL   H47110009   5.377   3.383   0.143  2.5964 -2.9137  0.5428
   20MOL   H47210010   5.308   3.621   7.963 -0.3209 -0.3443 -1.4715
   20MOL   H47310011   5.071   3.734   7.943  4.2703  0.7012 -0.5639
   20MOL   H47410012   4.873   3.597   7.985  0.3855 -0.9214 -0.8569
   20MOL   H47510013   4.887   3.372   0.040 -0.4438  0.9671 -2.1114
   20MOL   H47610014   5.104   3.258   0.070  1.2607  1.0443  1.1270
   20MOL   C47710015   5.849   3.390   7.958  0.4107  0.4580 -0.7058
   20MOL   C47810016   5.892   3.250   7.910  0.3301  0.3689 -0.0552
   20MOL   C47910017   5.982   3.162   8.005 -0.5427 -0.6560 -0.4767
   20MOL   C48010018   5.957   3.248   7.769  0.0246 -0.4130 -0.0709
   20MOL   O48110019   5.906   3.188   7.674  0.2771 -0.2373  0.3497
   20MOL   O48210020   6.073   3.325   7.764  0.2613 -0.6503 -0.2953
   20MOL   C48310021   6.148   3.336   7.647 -0.8202 -0.6767  0.4788
   20MOL   C48410022   6.245   3.440   7.658 -0.2968  0.5566 -0.2766
   20MOL   C48510023   6.379   3.413   7.630  0.0578  0.9796 -0.2897
   20MOL   C48610024   6.475   3.519   7.635  0.3061 -0.2185 -1.4989
   20MOL   C48710025   6.443   3.650   7.658 -0.2468 -0.1417 -1.5491
   20MOL   C48810026   6.308   3.677   7.690  0.0304 -0.3029 -0.3430
   20MOL   C48910027   6.211   3.569   7.692  0.0747 -0.5005 -0.5608
   20MOL   H49010028   5.866   3.385   0.059  1.2550  0.8009 -0.8158
   20MOL   H49110029   5.927   3.460   7.927  0.7663  1.1735  1.7015
   20MOL   H49210030   6.026   3.082   7.946 -1.9655 -0.8602 -1.2823
   20MOL   H49310031   5.931   3.100   0.072  0.8455  0.5869  1.5716
   20MOL   H49410032   6.056   3.216   0.057  1.0927 -0.4502 -2.6714
   20MOL   H49510033   6.202   3.242   7.636 -1.4412 -0.8483 -1.1316
   20MOL   H49610034   6.087   3.355   7.559 -0.8758 -1.9002  0.2374
   20MOL   H49710035   6.415   3.314   7.608  0.9722  1.2021  0.1975
   20MOL   H49810036   6.579   3.490   7.624  0.2445 -1.1012  0.0846
   20MOL   H49910037   6.521   3.724   7.668  0.6460 -1.4174  1.3739
   20MOL   H50010038   6.276   3.778   7.711  0.6853  0.1651 -1.5871
   20MOL   H50110039   6.111   3.598   7.720  1.0599 -0.6230  3.4623
   20MOL   H50210040   5.799   3.195   7.922  0.9414 -0.4582  0.9750
   21MOL     C110041   6.877   5.128   4.834  0.2520  0.3322  0.3324
   21MOL     C210042   6.752   5.048   4.821  0.6144  0.6139 -0.5546
   21MOL     C310043   6.737   4.969   4.954 -0.8634 -0.0115 -0.6519
   21MOL     C410044   6.759   4.945   4.706  0.3914  0.1375  0.4536
   21MOL     O510045   6.866   4.928   4.646  0.3830 -0.3544 -0.3687
   21MOL     O610046   6.646   4.883   4.676 -0.4124 -0.5728 -0.3164
   21MOL     C710047   6.642   4.779   4.585  0.6493  0.1441 -0.4109
   21MOL     C810048   6.535   4.676   4.618 -0.1651  0.2441 -0.0071
   21MOL     C910049   6.474   4.606   4.518 -0.5579  0.1643  0.3727
   21MOL    C1010050   6.369   4.518   4.546 -0.4711 -0.1166 -0.2733
   21MOL    C1110051   6.329   4.493   4.682  0.3857  0.3895  0.0115
   21MOL    C1210052   6.385   4.569   4.781 -0.6421  0.5547 -0.0103
   21MOL    C1310053   6.487   4.660   4.750  0.5163  0.1355 -0.6159
   21MOL    H1410054   6.970   5.076   4.813  0.3625  0.9469 -0.7318
   21MOL    H1510055   6.884   5.208   4.760 -0.2530 -1.4064 -1.6728
   21MOL    H1610056   6.672   4.881   4.951  0.9702 -1.4414  0.7006
   21MOL    H1710057   6.710   5.044   5.028  2.1604 -0.4917  1.0001
   21MOL    H1810058   6.828   4.923   4.992 -2.7906 -1.3181  2.5617
   21MOL    H1910059   6.614   4.808   4.484 -1.6832  1.7947  0.6804
   21MOL    H2010060   6.740   4.730   4.582  1.8821  2.6049 -3.5237
   21MOL    H2110061   6.503   4.616   4.415  0.7427 -1.5300  0.5498
   21MOL    H2210062   6.323   4.460   4.467 -0.8639 -1.3754  0.8515
   21MOL    H2310063   6.237   4.441   4.703  0.6392 -0.0199  0.1184
   21MOL    H2410064   6.346   4.559   4.881  0.8023 -0.7739  0.4423
   21MOL    H2510065   6.523   4.721   4.832 -1.9550  1.1477 -0.2449
   21MOL    H2610066   6.891   5.181   4.928  2.0875  1.2144 -0.4314
   21MOL    C2710067   6.620   5.134   4.812 -0.9455  0.0927  0.1154
   21MOL    C2810068   6.597   5.237   4.686 -0.2019  0.3810  0.4562
   21MOL    C2910069   6.626   5.189   4.545  0.3584  0.1790 -0.1079
   21MOL    C3010070   6.675   5.371   4.712  0.3329  1.2214 -0.7540
   21MOL    O3110071   6.767   5.411   4.631  0.2058 -0.1453  0.2276
   21MOL    O3210072   6.649   5.425   4.831 -0.5171  0.0956 -0.0905
   21MOL    C3310073   6.703   5.556   4.864 -0.6265  0.1306  0.1536
   21MOL    C3410074   6.835   5.541   4.944  0.5245 -0.5877  0.2513
   21MOL    C3510075   6.842   5.602   5.069  0.0730  0.2597 -0.0609
   21MOL    C3610076   6.956   5.595   5.152  0.0705  0.2490 -0.2421
   21MOL    C3710077   7.065   5.518   5.107 -0.6418 -0.4320  0.0493
   21MOL    C3810078   7.050   5.445   4.987  0.0685 -0.1365  0.0203
   21MOL    C3910079   6.935   5.454   4.907  0.4091  0.0072  0.2240
   21MOL    H4010080   6.614   5.189   4.906  1.3785 -1.4173  1.2044
   21MOL    H4110081   6.535   5.066   4.816  0.0303 -1.1662 -0.2709
   21MOL    H4210082   6.608   5.256   4.460 -1.6226 -1.7999 -1.3136
   21MOL    H4310083   6.569   5.100   4.520  0.2582 -0.1173  1.1567
   21MOL    H4410084   6.730   5.157   4.534 -0.1514 -1.1521 -1.3183
   21MOL    H4510085   6.721   5.611   4.772  2.5544 -0.8851  0.1136
   21MOL    H4610086   6.627   5.604   4.926  1.5489  2.0526  1.3988
   21MOL    H4710087   6.758   5.662   5.104  0.6182  1.1164 -0.2089
   21MOL    H4810088   6.968   5.642   5.248  0.6618  0.6250 -0.4986
   21MOL    H4910089   7.157   5.509   5.162  0.1032 -2.3215 -1.4455
   21MOL    H5010090   7.127   5.381   4.948  1.6126  1.7883 -0.1422
   21MOL    H5110091   6.930   5.399   4.815  2.8020  1.9931 -1.1698
   21MOL    C5210092   6.443   5.261   4.703 -0.2068  0.0838  0.1235
   21MOL    C5310093   6.348   5.361   4.630  0.5518  0.0322  0.0139
   21MOL    C5410094   6.395   5.503   4.647  0.0837  0.4015  0.2320
   21MOL    C5510095   6.213   5.344   4.695 -0.1574  0.4073  0.4228
   21MOL    O5610096   6.164   5.435   4.766  0.0328 -0.0401  0.4542
   21MOL    O5710097   6.148   5.219   4.671  0.2372  0.1777 -0.5254
   21MOL    C5810098   6.020   5.185   4.724 -0.3581  0.3151 -0.1429
   21MOL    C5910099   6.034   5.046   4.795  0.5893  0.4008  0.1860
   21MOL    C6010100   5.936   5.006   4.884 -0.1530  0.2720  0.3195
   21MOL    C6110101   5.950   4.884   4.957  0.5092  0.2937  0.3699
   21MOL    C6210102   6.070   4.814   4.953 -0.5157  0.3948  0.3241
   21MOL    C6310103   6.171   4.853   4.865 -0.1346 -0.2987 -0.0956
   21MOL    C6410104   6.149   4.966   4.781  0.5128  0.1300 -0.0875
   21MOL    H6510105   6.433   5.280   4.809  2.9283  0.7171  0.3521
   21MOL    H6610106   6.396   5.163   4.691  0.2205 -0.0150 -0.8720
   21MOL    H6710107   6.476   5.543   4.586 -1.6340  2.8496 -0.5311
   21MOL    H6810108   6.435   5.515   4.747  0.3360  2.5574 -0.0972
   21MOL    H6910109   6.313   5.574   4.646 -0.7543 -0.5560 -0.0581
   21MOL    H7010110   5.992   5.263   4.794 -0.7097  1.9867 -2.1190
   21MOL    H7110111   5.941   5.188   4.650 -0.4825 -1.8620 -0.1465
   21MOL    H7210112   5.846   5.063   4.902 -0.5019 -0.3718  0.5914
   21MOL    H7310113   5.860   4.861   5.013  0.0908 -0.4735 -0.6009
   21MOL    H7410114   6.084   4.727   5.015  1.9565 -0.6222 -1.6025
   21MOL    H7510115   6.261   4.794   4.859  0.8499  1.2639 -0.7190
   21MOL    H7610116   6.233   4.998   4.721 -0.4230 -0.0570 -1.5286
   21MOL    C7710117   6.343   5.338   4.468 -0.3481 -0.9774  0.1493
   21MOL    C7810118   6.258   5.418   4.356 -0.1090 -0.0878 -0.2496
   21MOL    C7910119   6.307   5.344   4.230 -0.2915 -0.0677  0.0552
   21MOL    C8010120   6.298   5.566   4.351  0.5990 -0.0208 -0.2386
   21MOL    O8110121   6.235   5.655   4.403  0.7636  0.5601  0.4107
   21MOL    O8210122   6.411   5.585   4.281  0.2809  0.1394  0.7604
   21MOL    C8310123   6.457   5.720   4.262  0.4391 -0.9249 -0.0742
   21MOL    C8410124   6.532   5.732   4.127  0.5170  0.0374 -0.2672
   21MOL    C8510125   6.458   5.713   4.014 -0.1123  0.2644  0.8703
   21MOL    C8610126   6.517   5.702   3.882  0.2749 -0.3523  0.1025
   21MOL    C8710127   6.654   5.741   3.880 -0.0456 -0.2238 -0.1939
   21MOL    C8810128   6.729   5.769   3.997  0.5978 -0.0392 -0.1678
   21MOL    C8910129   6.668   5.759   4.126  0.2373  0.1214 -0.7704
   21MOL    H9010130   6.326   5.231   4.456 -0.1767 -0.8448 -1.2762
   21MOL    H9110131   6.446   5.355   4.437 -1.2323  2.5789 -1.0299
   21MOL    H9210132   6.275   5.401   4.143 -1.9394 -1.1971 -0.1164
   21MOL    H9310133   6.269   5.242   4.225 -0.4908 -0.0928  1.8804
   21MOL    H9410134   6.412   5.319   4.215 -0.4606 -0.1153 -1.1003
   21MOL    H9510135   6.379   5.796   4.264  0.2293 -1.0689 -1.7337
   21MOL    H9610136   6.513   5.748   4.351  0.0544 -0.0545 -0.0964
   21MOL    H9710137   6.354   5.686   4.031 -0.2893  1.8244  2.3018
   21MOL    H9810138   6.460   5.692   3.791  1.9186 -1.7380 -0.8157
   21MOL    H9910139   6.703   5.756   3.784  0.3828 -0.1177  0.0398
   21MOL   H10010140   6.831   5.803   3.986 -0.1873  2.6910  0.7879
   21MOL   H10110141   6.720   5.783   4.217 -3.4359  0.7530  1.2554
   21MOL   C10210142   6.102   5.392   4.381  0.6211  0.7317  0.8243
   21MOL   C10310143   5.989   5.414   4.269  0.5160  0.2582 -0.4656
   21MOL   C10410144   5.854   5.392   4.356  0.8357 -0.2208  0.7243
   21MOL   C10510145   5.997   5.288   4.171  1.1914  0.2560  0.0837
   21MOL   O10610146   5.969   5.174   4.206 -0.1847 -0.2436 -1.0262
   21MOL   O10710147   6.047   5.317   4.051 -0.4004  0.3397 -0.3534
   21MOL   C10810148   6.064   5.210   3.955 -0.1987  0.3034 -0.2305
   21MOL   C10910149   6.118   5.257   3.819 -0.2950  0.3513 -0.0433
   21MOL   C11010150   6.167   5.160   3.730 -0.8438 -0.6784 -0.3392
   21MOL   C11110151   6.224   5.192   3.604 -0.0200  0.6113 -0.5866
   21MOL   C11210152   6.217   5.329   3.567  0.2762 -0.1088 -0.1250
   21MOL   C11310153   6.163   5.430   3.651 -0.3459  0.4942  0.2222
   21MOL   C11410154   6.112   5.391   3.774 -0.2053  0.3257  0.5345
   21MOL   H11510155   6.076   5.450   4.470  0.0356 -0.7708  1.6519
   21MOL   H11610156   6.101   5.285   4.404  0.1508  0.0780 -2.0201
   21MOL   H11710157   5.761   5.369   4.304  0.1579 -0.6255  2.0799
   21MOL   H11810158   5.827   5.481   4.414  0.3984 -1.1043  1.8881
   21MOL   H11910159   5.875   5.305   4.417  0.5925  0.5858  1.9843
   21MOL   H12010160   6.122   5.131   4.003  1.2088  0.1775 -2.0809
   21MOL   H12110161   5.972   5.151   3.949  1.0072 -1.5816 -0.8045
   21MOL   H12210162   6.163   5.056   3.759  0.1262  0.0536  2.6760
   21MOL   H12310163   6.259   5.117   3.536 -1.5284  1.9510 -2.9269
   21MOL   H12410164   6.269   5.368   3.481 -1.8368 -2.4161 -2.5597
   21MOL   H12510165   6.163   5.535   3.626 -0.1685  1.0213  2.3931
   21MOL   H12610166   6.075   5.468   3.841 -2.4731  0.3022 -0.6667
   21MOL   C12710167   6.007   5.551   4.194  0.3334  0.1592 -0.1700
   21MOL   C12810168   5.880   5.624   4.131  0.1089  0.0790  0.6699
   21MOL   C12910169   5.797   5.696   4.249 -0.4261  0.3878 -0.0998
   21MOL   C13010170   5.797   5.519   4.053 -0.3073  0.8140 -0.2476
   21MOL   O13110171   5.833   5.475   3.946  0.0172 -0.2801  0.2924
   21MOL   O13210172   5.674   5.487   4.107  0.3455 -0.2013  0.1591
   21MOL   C13310173   5.585   5.402   4.036 -0.4486 -0.2911  0.7437
   21MOL   C13410174   5.473   5.348   4.128 -0.4006  0.7358  0.7068
   21MOL   C13510175   5.337   5.396   4.127 -0.2443  0.2128  0.2143
   21MOL   C13610176   5.242   5.342   4.209  1.0372 -0.3046 -0.2358
   21MOL   C13710177   5.270   5.236   4.299 -0.0138 -0.1362 -0.1594
   21MOL   C13810178   5.404   5.193   4.306 -0.2189 -0.7689  0.4029
   21MOL   C13910179   5.504   5.251   4.223 -0.3248  0.4540 -0.2493
   21MOL   H14010180   6.079   5.536   4.113  1.1863 -1.3428  0.8624
   21MOL   H14110181   6.054   5.629   4.253  1.5067  0.5713 -1.6026
   21MOL   H14210182   5.864   5.738   4.324  0.6315 -1.1405 -0.1565
   21MOL   H14310183   5.725   5.626   4.290  0.8463 -0.5623  0.5501
   21MOL   H14410184   5.742   5.778   4.203 -0.4749  0.0206 -0.7018
   21MOL   H14510185   5.541   5.461   3.955  3.1056  0.3699 -0.7834
   21MOL   H14610186   5.636   5.313   4.000 -1.4155 -0.2306 -0.8528
   21MOL   H14710187   5.317   5.474   4.055 -0.3979  0.4602  0.5287
   21MOL   H14810188   5.145   5.390   4.212  0.8545 -0.7286  2.3065
   21MOL   H14910189   5.195   5.199   4.367  1.4464 -1.2600  0.8795
   21MOL   H15010190   5.428   5.120   4.382 -0.9221 -0.3791  0.9930
   21MOL   H15110191   5.608   5.226   4.238 -0.0714  1.1637 -0.7946
   21MOL   C15210192   5.928   5.739   4.027  0.0933  0.5453 -0.0670
   21MOL   C15310193   6.003   5.872   4.054  0.2876  0.1693  0.0769
   21MOL   C15410194   6.108   5.872   4.163 -0.6206 -0.3543  0.1001
   21MOL   C15510195   5.896   5.983   4.087 -0.5207 -0.4602 -0.1492
   21MOL   O15610196   5.781   5.973   4.046  0.0826 -0.1213  0.2078
   21MOL   O15710197   5.950   6.091   4.142 -0.2197  0.2158 -0.2994
   21MOL   C15810198   5.881   6.211   4.152 -0.3825  0.1273 -0.1897
   21MOL   C15910199   5.970   6.329   4.192 -0.1967  0.2633 -0.3780
   21MOL   C16010200   5.901   6.440   4.226 -0.2517 -0.0739 -0.0417
   21MOL   C16110201   5.979   6.555   4.263 -0.1567  0.6823  0.1187
   21MOL   C16210202   6.123   6.551   4.263 -0.1836  0.0306  1.0908
   21MOL   C16310203   6.190   6.433   4.227 -0.0817 -0.1013 -0.8681
   21MOL   C16410204   6.115   6.323   4.194 -0.8050  0.1393  0.5242
   21MOL   H16510205   5.837   5.757   3.970 -0.2887  1.1558  0.7265
   21MOL   H16610206   5.988   5.688   3.952 -1.0786  1.4212 -1.6164
   21MOL   H16710207   6.149   5.969   4.189  0.9832 -0.6489 -1.2460
   21MOL   H16810208   6.189   5.801   4.148 -0.7901 -0.5907  0.2862
   21MOL   H16910209   6.078   5.838   4.262  1.9682 -2.7580  0.1440
   21MOL   H17010210   5.833   6.230   4.056 -0.3552  1.6949  0.0848
   21MOL   H17110211   5.800   6.202   4.225 -1.5476 -0.0026 -1.4773
   21MOL   H17210212   5.794   6.430   4.218 -0.2797  0.0170  0.2143
   21MOL   H17310213   5.929   6.647   4.289 -0.0438  0.1719  2.2874
   21MOL   H17410214   6.172   6.641   4.296  3.0063 -2.3293  3.1087
   21MOL   H17510215   6.297   6.419   4.229 -0.1092 -0.2417  0.1464
   21MOL   H17610216   6.166   6.231   4.166 -2.1612 -0.4434 -0.0515
   21MOL   C17710217   6.092   5.906   3.918 -0.4196  0.3371 -0.2452
   21MOL   C17810218   6.035   5.970   3.786  0.6405  0.1385  0.8970
   21MOL   C17910219   6.156   5.969   3.685  0.2842  0.7289  0.4208
   21MOL   C18010220   6.016   6.122   3.817  0.4381 -0.4375  0.9014
   21MOL   O18110221   6.109   6.202   3.836 -0.0348  0.0892 -0.0028
   21MOL   O18210222   5.889   6.171   3.824 -0.4987  0.2347 -0.0081
   21MOL   C18310223   5.875   6.311   3.815 -0.1653 -0.0325 -0.6683
   21MOL   C18410224   5.742   6.360   3.875  0.2672  0.1794 -0.1066
   21MOL   C18510225   5.637   6.270   3.901 -0.2667 -0.2701  0.1791
   21MOL   C18610226   5.511   6.312   3.950  0.0953 -0.1455 -0.7210
   21MOL   C18710227   5.486   6.448   3.959 -0.3949 -0.5957  0.4548
   21MOL   C18810228   5.593   6.537   3.946  0.2630 -0.9129 -0.3163
   21MOL   C18910229   5.724   6.499   3.904  1.0362 -0.2641 -0.6528
   21MOL   H19010230   6.130   5.814   3.873  0.3859  0.6656 -0.2315
   21MOL   H19110231   6.171   5.972   3.954 -0.4149  0.4188 -0.4024
   21MOL   H19210232   6.247   6.005   3.734 -0.0312  0.6561  1.0671
   21MOL   H19310233   6.136   6.043   3.608  2.9638  1.3209  0.2287
   21MOL   H19410234   6.181   5.873   3.640  4.1076  1.7037  0.2832
   21MOL   H19510235   5.946   6.354   3.885  1.1109 -0.2563 -1.8006
   21MOL   H19610236   5.898   6.357   3.719 -0.5503  0.1763 -0.6651
   21MOL   H19710237   5.663   6.165   3.894  2.4719  0.4164 -0.6927
   21MOL   H19810238   5.434   6.239   3.972  1.5300 -2.3115 -2.6155
   21MOL   H19910239   5.386   6.475   3.990 -0.4329 -0.9460  0.6402
   21MOL   H20010240   5.580   6.643   3.961 -1.4102 -1.2968  1.0131
   21MOL   H20110241   5.800   6.570   3.875  2.1868 -0.9042  0.6828
   21MOL   C20210242   5.909   5.898   3.733 -0.2119  0.1173 -0.2555
   21MOL   C20310243   5.860   5.886   3.582  0.0891 -0.8927 -0.1695
   21MOL   C20410244   5.961   5.798   3.510 -0.0307 -0.5728  0.5695
   21MOL   C20510245   5.842   6.022   3.501  0.5104 -0.7327 -0.1398
   21MOL   O20610246   5.849   6.137   3.556  0.8903 -0.1474  0.7286
   21MOL   O20710247   5.817   6.006   3.372 -0.0095  0.0347  0.2946
   21MOL   C20810248   5.818   6.120   3.286  0.2297  0.2245  0.2911
   21MOL   C20910249   5.897   6.112   3.157  0.2349  0.2829 -0.1742
   21MOL   C21010250   5.852   6.184   3.042  0.0048 -0.2784 -0.1622
   21MOL   C21110251   5.926   6.168   2.921  0.7482  0.2132 -0.2346
   21MOL   C21210252   6.044   6.098   2.914  0.0796  0.2359 -0.0415
   21MOL   C21310253   6.087   6.026   3.025  0.7503 -0.4671 -0.0628
   21MOL   C21410254   6.018   6.036   3.146 -0.3098 -0.7588  0.6934
   21MOL   H21510255   5.821   5.937   3.785 -0.6832 -1.5572  0.2449
   21MOL   H21610256   5.914   5.795   3.768 -0.6508 -0.4324 -1.8031
   21MOL   H21710257   5.911   5.740   3.432  1.0154 -0.1385 -0.4420
   21MOL   H21810258   6.000   5.717   3.571  0.5091  1.1227  2.5441
   21MOL   H21910259   6.044   5.854   3.467  1.1138 -1.8140  1.1271
   21MOL   H22010260   5.716   6.146   3.259  0.2143 -2.3741 -2.3791
   21MOL   H22110261   5.863   6.205   3.339 -0.7381  0.1727  1.2014
   21MOL   H22210262   5.765   6.247   3.049 -0.7723 -1.2500 -0.9137
   21MOL   H22310263   5.897   6.217   2.829 -0.8035  1.7474  1.0470
   21MOL   H22410264   6.102   6.099   2.822 -0.9881 -2.0300 -0.7950
   21MOL   H22510265   6.187   5.987   3.014  0.7434  0.1361 -2.4178
   21MOL   H22610266   6.069   5.994   3.231 -1.4681 -0.8047  1.3746
   21MOL   C22710267   5.720   5.812   3.571  0.4597 -0.3773  0.3170
   21MOL   C22810268   5.583   5.852   3.639  0.1695  0.2720 -0.4904
   21MOL   C22910269   5.568   6.003   3.638  0.1031  0.2398 -0.0548
   21MOL   C23010270   5.585   5.795   3.784  0.3885  0.2650 -0.4958
   21MOL   O23110271   5.665   5.702   3.817 -0.4753  0.0529  0.1638
   21MOL   O23210272   5.492   5.862   3.868 -0.1224 -0.3738  0.0145
   21MOL   C23310273   5.497   5.838   4.004 -0.0752 -0.1875 -0.0136
   21MOL   C23410274   5.380   5.881   4.078 -0.0164  0.0808  0.6676
   21MOL   C23510275   5.394   5.954   4.193 -0.0911 -0.6765 -0.4774
   21MOL   C23610276   5.279   6.015   4.259  0.6545  0.1093  0.2441
   21MOL   C23710277   5.151   5.979   4.213 -0.3265 -0.2577 -0.5349
   21MOL   C23810278   5.138   5.895   4.095  0.2127  0.1458  0.2742
   21MOL   C23910279   5.252   5.845   4.033 -0.0272 -0.0736  0.7393
   21MOL   H24010280   5.734   5.707   3.594  2.2306 -0.4039 -0.7308
   21MOL   H24110281   5.699   5.805   3.464 -1.8513  1.0182  0.6498
   21MOL   H24210282   5.644   6.054   3.696  0.7446  0.5180 -1.1220
   21MOL   H24310283   5.472   6.038   3.676  0.1482  1.3076 -0.8956
   21MOL   H24410284   5.573   6.040   3.535 -0.5951  0.4808 -0.0046
   21MOL   H24510285   5.525   5.735   4.025 -1.9055 -0.8632 -0.7407
   21MOL   H24610286   5.584   5.897   4.033 -1.5218  2.2707 -0.5624
   21MOL   H24710287   5.497   5.966   4.222  0.1065 -1.2875 -0.9096
   21MOL   H24810288   5.284   6.076   4.348  0.9028  1.5714 -0.7621
   21MOL   H24910289   5.057   6.011   4.255 -0.4821  1.5379 -2.1747
   21MOL   H25010290   5.037   5.875   4.064  0.1497  0.5374  0.2166
   21MOL   H25110291   5.249   5.783   3.945  1.0027  1.3623 -0.3436
   21MOL   C25210292   5.478   5.777   3.549 -0.1467  0.3881 -0.4151
   21MOL   C25310293   5.322   5.760   3.575  0.4089 -1.1361  0.2229
   21MOL   C25410294   5.255   5.895   3.603  0.2768  0.0177  0.3541
   21MOL   C25510295   5.280   5.663   3.693  0.0128  0.3293 -0.3299
   21MOL   O25610296   5.360   5.586   3.744  0.2915 -0.7924  0.7194
   21MOL   O25710297   5.154   5.674   3.731 -1.1291 -0.6415  0.6890
   21MOL   C25810298   5.092   5.576   3.820  0.4413  0.1015  0.0307
   21MOL   C25910299   4.946   5.610   3.839 -0.3294 -0.7571 -1.5619
   21MOL   C26010300   4.875   5.678   3.733  0.0815  0.4839 -0.2726
   21MOL   C26110301   4.740   5.681   3.740 -0.0712 -0.4714  0.4007
   21MOL   C26210302   4.672   5.632   3.853 -0.1887 -0.1732  0.4004
   21MOL   C26310303   4.743   5.579   3.963  0.2586  0.4732 -0.6881
   21MOL   C26410304   4.881   5.560   3.951  0.0930 -0.0691 -0.1838
   21MOL   H26510305   5.510   5.673   3.553 -0.9066  0.2050  1.6552
   21MOL   H26610306   5.487   5.821   3.450 -1.4549  3.1442  0.6293
   21MOL   H26710307   5.149   5.871   3.598  0.0215  0.9506  1.2193
   21MOL   H26810308   5.284   5.979   3.540  2.5972 -0.9636  0.0560
   21MOL   H26910309   5.271   5.930   3.705  0.6126 -0.9758  0.6534
   21MOL   H27010310   5.099   5.472   3.787  1.3260 -0.4339  1.8769
   21MOL   H27110311   5.144   5.586   3.914 -0.9390  0.6318  0.7527
   21MOL   H27210312   4.921   5.722   3.646  1.5493  1.4351  0.9624
   21MOL   H27310313   4.693   5.741   3.664 -1.7541 -0.9309  1.0563
   21MOL   H27410314   4.566   5.648   3.854 -0.1128  0.2871  1.1134
   21MOL   H27510315   4.695   5.547   4.054  0.9166  1.6522  0.0914
   21MOL   H27610316   4.941   5.507   4.024  2.2109 -2.6487 -3.6085
   21MOL   C27710317   5.248   5.710   3.444  0.1754 -0.4367  0.1044
   21MOL   C27810318   5.239   5.559   3.387 -0.5301  0.6399  0.4238
   21MOL   C27910319   5.123   5.492   3.469  0.2146 -0.2938  0.4086
   21MOL   C28010320   5.374   5.483   3.401  0.2480  0.6388 -0.0129
   21MOL   O28110321   5.394   5.388   3.476  0.1631 -0.2826 -0.1347
   21MOL   O28210322   5.471   5.531   3.322  0.3726  0.5014  0.0946
   21MOL   C28310323   5.592   5.461   3.315 -0.4934  0.2122 -0.3906
   21MOL   C28410324   5.710   5.545   3.274 -0.2595  0.4163 -0.2686
   21MOL   C28510325   5.841   5.496   3.297  0.1121  0.2558 -0.6528
   21MOL   C28610326   5.950   5.566   3.247 -1.0258  0.4556  0.0763
   21MOL   C28710327   5.928   5.684   3.169 -0.2993  0.4527  0.3046
   21MOL   C28810328   5.800   5.732   3.138 -0.0843  0.3231 -0.2358
   21MOL   C28910329   5.690   5.658   3.189 -0.2077 -0.1631  0.1259
   21MOL   H29010330   5.281   5.781   3.369 -1.5870  0.9412  0.6179
   21MOL   H29110331   5.142   5.733   3.441  0.6774  1.8335 -1.2359
   21MOL   H29210332   5.052   5.556   3.522 -1.8810 -0.6386 -1.9170
   21MOL   H29310333   5.165   5.420   3.540  0.1408 -1.7312 -0.9716
   21MOL   H29410334   5.048   5.437   3.412  0.8572 -3.1836  2.2371
   21MOL   H29510335   5.619   5.407   3.406  1.7127 -1.1200 -1.8123
   21MOL   H29610336   5.569   5.387   3.239  0.4887  0.8696 -1.3436
   21MOL   H29710337   5.863   5.406   3.353 -1.0984 -0.7514 -1.7628
   21MOL   H29810338   6.048   5.521   3.256 -1.1833 -0.2052 -1.2299
   21MOL   H29910339   6.017   5.724   3.123 -0.3209 -1.9994 -2.0267
   21MOL   H30010340   5.789   5.825   3.084 -2.7778  0.9649  1.3509
   21MOL   H30110341   5.594   5.700   3.167 -0.1270  0.0282  0.1429
   21MOL   C30210342   5.186   5.567   3.238  0.0763  0.1490  0.1504
   21MOL   C30310343   5.174   5.448   3.140 -0.4914  0.5500 -0.8361
   21MOL   C30410344   5.270   5.484   3.012 -0.1807 -0.1856 -0.3773
   21MOL   C30510345   5.022   5.441   3.095 -0.5665  0.6613  0.2568
   21MOL   O30610346   4.983   5.483   2.985 -0.0843  0.6905 -0.0452
   21MOL   O30710347   4.933   5.402   3.188  0.0914  0.1144  0.3999
   21MOL   C30810348   4.799   5.394   3.158  0.0114  0.1404  0.4390
   21MOL   C30910349   4.734   5.337   3.281  0.3226 -0.0975  0.5857
   21MOL   C31010350   4.645   5.230   3.263 -0.1219  0.5663 -0.8841
   21MOL   C31110351   4.579   5.183   3.376  0.1246  0.3226 -0.3436
   21MOL   C31210352   4.588   5.252   3.499 -0.1527 -0.0408 -0.1611
   21MOL   C31310353   4.685   5.352   3.514 -0.7917  0.6389  0.0336
   21MOL   C31410354   4.757   5.400   3.404 -1.0273  0.3097  0.2236
   21MOL   H31510355   5.248   5.642   3.189  1.1566 -0.2000  0.9551
   21MOL   H31610356   5.090   5.619   3.246 -1.0261 -1.7794 -0.2920
   21MOL   H31710357   5.247   5.414   2.931  0.2068 -1.7213  0.8303
   21MOL   H31810358   5.371   5.478   3.052  0.1428  1.8035 -0.8448
   21MOL   H31910359   5.243   5.582   2.972  1.5336 -0.6557 -2.8206
   21MOL   H32010360   4.767   5.492   3.122  1.3044  0.5879  0.4631
   21MOL   H32110361   4.779   5.316   3.085  2.4866 -0.5455  0.4433
   21MOL   H32210362   4.636   5.178   3.169  0.7521 -1.7975  0.2970
   21MOL   H32310363   4.511   5.099   3.380  0.7879 -0.3956 -3.0892
   21MOL   H32410364   4.531   5.216   3.583 -0.9201 -0.3494 -0.8055
   21MOL   H32510365   4.706   5.402   3.607 -0.1558 -0.8427  0.7116
   21MOL   H32610366   4.836   5.472   3.416 -0.3694 -0.3288 -0.2014
   21MOL   C32710367   5.224   5.306   3.196 -0.5520 -0.2245 -0.1517
   21MOL   C32810368   5.181   5.163   3.132 -0.3149 -0.1376 -0.5453
   21MOL   C32910369   5.148   5.173   2.977 -0.0467  0.4028  0.0659
   21MOL   C33010370   5.064   5.110   3.214  0.9477  0.2070 -0.2260
   21MOL   O33110371   4.959   5.101   3.161  0.2739 -0.7637  0.3867
   21MOL   O33210372   5.092   5.075   3.338 -0.6383 -0.0081  0.1961
   21MOL   C33310373   4.991   5.055   3.436 -0.3593  0.4134  0.5690
   21MOL   C33410374   5.032   5.113   3.574 -0.2402  1.4293  0.1730
   21MOL   C33510375   4.949   5.089   3.686  0.0396  0.1274  0.4010
   21MOL   C33610376   4.981   5.126   3.819 -0.7800  0.5321 -0.1029
   21MOL   C33710377   5.098   5.199   3.840  0.3735 -0.6228 -0.0921
   21MOL   C33810378   5.187   5.218   3.726  0.0439  0.3890 -0.1892
   21MOL   C33910379   5.153   5.179   3.597 -0.1098  0.0515 -0.0276
   21MOL   H34010380   5.201   5.305   3.303  1.8784  0.9389  0.4143
   21MOL   H34110381   5.333   5.312   3.198 -0.5174 -0.9703  0.7246
   21MOL   H34210382   5.235   5.203   2.919 -0.7857  1.4986 -0.4905
   21MOL   H34310383   5.062   5.231   2.944  0.8943  2.3071  0.9364
   21MOL   H34410384   5.114   5.074   2.944  1.8175 -0.9429  2.0325
   21MOL   H34510385   4.900   5.110   3.412  0.6152  2.2652  1.0410
   21MOL   H34610386   4.970   4.948   3.438 -1.5568  0.5890 -1.3590
   21MOL   H34710387   4.859   5.029   3.679  1.1547 -1.4562 -0.5452
   21MOL   H34810388   4.911   5.112   3.900  1.4574  1.6860  2.1149
   21MOL   H34910389   5.134   5.235   3.935  1.2404  1.9273 -1.3165
   21MOL   H35010390   5.289   5.249   3.743  1.3422 -2.2065 -2.7655
   21MOL   H35110391   5.236   5.190   3.529  0.7431 -0.2315  0.9438
   21MOL   C35210392   5.314   5.076   3.154  0.3218  0.7885  0.1456
   21MOL   C35310393   5.328   4.920   3.106  0.3031 -0.9036  0.2296
   21MOL   C35410394   5.200   4.840   3.109 -0.6443 -0.2119  0.5631
   21MOL   C35510395   5.427   4.844   3.209 -0.3924  0.1040  0.5838
   21MOL   O35610396   5.396   4.738   3.262 -0.1548  0.0861 -0.3607
   21MOL   O35710397   5.544   4.908   3.229 -0.0210  0.1861  0.0741
   21MOL   C35810398   5.625   4.855   3.335  0.1218  0.7928 -0.9996
   21MOL   C35910399   5.689   4.972   3.414 -0.3098  0.3861  0.3783
   21MOL   C36010400   5.826   4.975   3.424 -0.0734  0.3677 -0.9935
   21MOL   C36110401   5.888   5.081   3.491 -0.2222  0.3849  0.4380
   21MOL   C36210402   5.814   5.169   3.569 -0.2700  0.2069 -0.4585
   21MOL   C36310403   5.673   5.156   3.558  0.0994 -1.0124 -0.5130
   21MOL   C36410404   5.609   5.066   3.474 -0.6340 -0.3546 -0.1905
   21MOL   H36510405   5.340   5.077   3.260  0.3487  2.8570  0.1474
   21MOL   H36610406   5.391   5.137   3.107  2.3210 -3.5381 -2.5330
   21MOL   H36710407   5.209   4.732   3.095  0.0726  0.1515 -2.0794
   21MOL   H36810408   5.123   4.884   3.047  1.8385  1.5105 -1.4235
   21MOL   H36910409   5.159   4.845   3.210 -1.9949 -0.2803  0.0158
   21MOL   H37010410   5.581   4.777   3.396  1.1060 -0.9260 -2.4595
   21MOL   H37110411   5.696   4.789   3.285  0.9205  1.8456 -1.3038
   21MOL   H37210412   5.891   4.900   3.380  0.1339  0.3084 -0.5966
   21MOL   H37310413   5.995   5.089   3.476 -0.3435 -0.2462 -0.8118
   21MOL   H37410414   5.861   5.237   3.639 -2.7743  1.6307 -0.0852
   21MOL   H37510415   5.614   5.224   3.617 -0.6887 -2.5154  0.4593
   21MOL   H37610416   5.501   5.058   3.467 -1.1268  3.2536  2.0871
   21MOL   C37710417   5.392   4.921   2.962 -0.5086 -0.7614 -0.1012
   21MOL   C37810418   5.414   4.797   2.864  0.6377 -0.5127  0.2550
   21MOL   C37910419   5.276   4.752   2.804  0.1675 -0.1291  0.2657
   21MOL   C38010420   5.463   4.672   2.938 -0.5587  0.3043 -0.1417
   21MOL   O38110421   5.392   4.580   2.970 -0.4225 -1.0078  0.8363
   21MOL   O38210422   5.594   4.679   2.982  0.5273  0.6799  0.6304
   21MOL   C38310423   5.636   4.573   3.073 -0.3504  0.4026 -0.2676
   21MOL   C38410424   5.685   4.442   3.005 -0.0449 -0.0216 -0.8276
   21MOL   C38510425   5.636   4.323   3.060  0.1987 -0.0690  0.3607
   21MOL   C38610426   5.694   4.201   3.017  0.8633  0.2108  0.1910
   21MOL   C38710427   5.779   4.203   2.905  0.0138 -0.1169  0.1884
   21MOL   C38810428   5.833   4.322   2.860 -1.6282 -0.1751 -0.5548
   21MOL   C38910429   5.786   4.443   2.911  0.4321  0.2894  0.6269
   21MOL   H39010430   5.490   4.964   2.981 -0.7022 -0.7799  0.9768
   21MOL   H39110431   5.348   4.982   2.883  0.8333  0.7797  0.3137
   21MOL   H39210432   5.240   4.837   2.745  0.7543  0.0470  0.1593
   21MOL   H39310433   5.197   4.723   2.873  0.5769 -1.2213  0.2831
   21MOL   H39410434   5.289   4.669   2.735 -0.6821 -0.8234  0.9364
   21MOL   H39510435   5.714   4.609   3.140  0.2604 -0.2219 -0.6420
   21MOL   H39610436   5.549   4.553   3.136 -0.0246 -1.7041 -0.4374
   21MOL   H39710437   5.558   4.316   3.135 -0.6135 -0.4152 -0.5020
   21MOL   H39810438   5.661   4.117   3.076 -1.6850  0.6899 -0.4834
   21MOL   H39910439   5.823   4.108   2.877  0.1252 -0.1845  0.6021
   21MOL   H40010440   5.920   4.324   2.796 -2.9682 -1.4142 -2.4605
   21MOL   H40110441   5.835   4.537   2.891  0.4554  0.0280 -0.6200
   21MOL   C40210442   5.505   4.820   2.736  0.1664  0.3205 -0.7003
   21MOL   C40310443   5.624   4.924   2.723 -0.3659 -0.1037 -0.4713
   21MOL   C40410444   5.725   4.901   2.837 -0.0668  0.0547 -0.4031
   21MOL   C40510445   5.561   5.065   2.734 -0.3472  0.5196  0.4773
   21MOL   O40610446   5.596   5.148   2.810 -0.1122 -0.0700 -0.0330
   21MOL   O40710447   5.453   5.077   2.646  0.1528  0.6545  0.5312
   21MOL   C40810448   5.378   5.196   2.646 -0.1340  0.1988 -0.4024
   21MOL   C40910449   5.266   5.203   2.541 -0.0723  0.0163  0.4303
   21MOL   C41010450   5.136   5.236   2.584  0.0995 -0.0531  0.4432
   21MOL   C41110451   5.042   5.275   2.491 -0.2953  0.0681  0.3343
   21MOL   C41210452   5.067   5.259   2.352 -0.1312 -0.3620 -0.6402
   21MOL   C41310453   5.188   5.207   2.312  0.3317 -0.4568  0.1270
   21MOL   C41410454   5.290   5.190   2.400  0.7241 -0.4133 -0.1410
   21MOL   H41510455   5.428   4.837   2.660 -2.2202 -4.4735  0.4195
   21MOL   H41610456   5.535   4.715   2.726 -0.2159  0.0391  1.0257
   21MOL   H41710457   5.814   4.964   2.832 -1.1370  1.7910  1.8705
   21MOL   H41810458   5.765   4.800   2.831  0.4870  0.3735 -2.8181
   21MOL   H41910459   5.686   4.915   2.937  1.5470 -1.0073  0.3950
   21MOL   H42010460   5.349   5.217   2.750  1.2032  1.5313 -0.2731
   21MOL   H42110461   5.445   5.280   2.629 -0.4868  0.7393  0.8062
   21MOL   H42210462   5.112   5.244   2.689  0.1209  0.6722  0.3993
   21MOL   H42310463   4.942   5.306   2.520 -0.8380 -0.5139 -0.8953
   21MOL   H42410464   4.996   5.286   2.275  0.1203 -0.2915 -0.8505
   21MOL   H42510465   5.201   5.213   2.205 -2.7629  1.5919 -0.2173
   21MOL   H42610466   5.387   5.170   2.357 -0.7768 -2.7142 -2.5916
   21MOL   C42710467   5.697   4.908   2.578  0.6319  0.6330 -0.1313
   21MOL   C42810468   5.801   4.996   2.509 -0.9914 -0.2986 -0.6593
   21MOL   C42910469   5.886   4.903   2.419 -0.4115  0.9077  0.6121
   21MOL   C43010470   5.898   5.058   2.609 -0.7114 -0.6256 -0.9035
   21MOL   O43110471   6.013   5.013   2.622  0.0883 -0.3012 -0.1258
   21MOL   O43210472   5.842   5.171   2.674  0.7001 -0.3267  0.3767
   21MOL   C43310473   5.942   5.257   2.734  0.5254  0.1288 -0.6002
   21MOL   C43410474   5.942   5.230   2.884  0.6524 -0.2833 -0.0328
   21MOL   C43510475   6.053   5.177   2.950 -0.2390 -0.1897 -0.7550
   21MOL   C43610476   6.056   5.154   3.089  0.3476  0.3347  0.0678
   21MOL   C43710477   5.947   5.187   3.169  0.7858  0.2738  0.1656
   21MOL   C43810478   5.840   5.252   3.106 -0.3783 -0.6895 -0.4805
   21MOL   C43910479   5.837   5.280   2.971  0.7435 -0.3985 -0.4103
   21MOL   H44010480   5.621   4.866   2.512 -0.3789 -2.6868  2.9999
   21MOL   H44110481   5.745   4.814   2.601 -0.9316 -0.4539 -1.1864
   21MOL   H44210482   5.905   4.807   2.467 -1.3013 -0.5791 -1.8927
   21MOL   H44310483   5.975   4.947   2.374 -1.0179  1.0968 -0.4277
   21MOL   H44410484   5.823   4.875   2.334 -0.3363 -1.0415  1.1890
   21MOL   H44510485   6.044   5.246   2.697 -0.5973  0.0721 -3.8635
   21MOL   H44610486   5.907   5.359   2.715 -0.7395  0.1055  1.4679
   21MOL   H44710487   6.143   5.150   2.897  1.4247 -0.7461  2.2268
   21MOL   H44810488   6.141   5.104   3.133 -0.1495 -0.3749  0.2421
   21MOL   H44910489   5.947   5.168   3.275  2.2300  0.1364  0.1454
   21MOL   H45010490   5.758   5.275   3.174 -0.5533  0.4985 -1.0752
   21MOL   H45110491   5.750   5.325   2.924 -0.1363 -1.3423  0.2856
   21MOL   C45210492   5.720   5.099   2.415 -0.0744  0.2067 -0.0302
   21MOL   C45310493   5.785   5.209   2.322  0.3193 -0.1793  0.3917
   21MOL   C45410494   5.675   5.302   2.266  0.2564  0.1208 -0.2450
   21MOL   C45510495   5.856   5.132   2.199 -0.3126  0.4661  0.4011
   21MOL   O45610496   5.977   5.140   2.187  0.0039  0.4253 -0.2143
   21MOL   O45710497   5.773   5.053   2.126  0.1866 -0.3057  0.2287
   21MOL   C45810498   5.817   4.958   2.026  0.0155 -0.0617  0.1302
   21MOL   C45910499   5.730   4.843   1.999  0.5442  0.1916 -0.2740
   21MOL   C46010500   5.755   4.762   1.880  0.6820  0.4227 -0.1831
   21MOL   C46110501   5.677   4.649   1.858  0.4063 -0.4088  0.2986
   21MOL   C46210502   5.589   4.603   1.959 -0.0175  0.5870  0.4160
   21MOL   C46310503   5.565   4.679   2.070 -0.5298 -0.7639 -0.0065
   21MOL   C46410504   5.635   4.797   2.092 -0.4575  0.7224  0.0764
   21MOL   H46510505   5.637   5.143   2.471 -0.3772  0.9213 -1.0192
   21MOL   H46610506   5.665   5.029   2.352  0.5886  0.5405 -1.0006
   21MOL   H46710507   5.719   5.366   2.189 -0.6299  1.7606  0.5632
   21MOL   H46810508   5.628   5.362   2.344  0.6828  1.8964 -1.3230
   21MOL   H46910509   5.606   5.238   2.211 -1.5090  0.8552  1.0244
   21MOL   H47010510   5.830   5.007   1.930 -1.9694  0.0942 -0.0710
   21MOL   H47110511   5.912   4.914   2.058 -0.7338 -0.7643  1.4436
   21MOL   H47210512   5.826   4.796   1.806 -0.7864  0.1220 -1.7656
   21MOL   H47310513   5.693   4.590   1.769  0.2619 -0.1571  0.1041
   21MOL   H47410514   5.532   4.512   1.951  1.5230 -0.2961 -0.8341
   21MOL   H47510515   5.497   4.659   2.152 -1.5698  1.3439 -0.3361
   21MOL   H47610516   5.609   4.858   2.178  0.3120 -1.5499  1.9788
   21MOL   C47710517   5.901   5.288   2.397 -0.4074  0.5022 -1.1358
   21MOL   C47810518   5.975   5.405   2.324  0.0616  0.0043 -0.1231
   21MOL   C47910519   6.129   5.381   2.317 -0.2534  0.1252  0.4454
   21MOL   C48010520   5.949   5.541   2.397 -0.2777 -0.2198  0.9978
   21MOL   O48110521   5.885   5.633   2.349 -0.1555  0.1234 -0.0569
   21MOL   O48210522   5.991   5.534   2.524  0.2704 -0.4029  0.0315
   21MOL   C48310523   5.996   5.658   2.601 -0.5234  0.7048 -0.2546
   21MOL   C48410524   6.079   5.650   2.733  0.1630  0.4079 -0.3418
   21MOL   C48510525   6.049   5.568   2.843  0.9380 -0.0628  0.5735
   21MOL   C48610526   6.132   5.564   2.958  1.1834 -0.0651 -0.0029
   21MOL   C48710527   6.243   5.642   2.962  0.2547 -0.0133  0.4533
   21MOL   C48810528   6.274   5.734   2.858 -0.1583 -0.5458 -0.4473
   21MOL   C48910529   6.190   5.741   2.748 -0.4013 -0.3757 -0.2241
   21MOL   H49010530   5.976   5.217   2.432  0.9702  0.8907 -3.2028
   21MOL   H49110531   5.852   5.325   2.487  0.3557  1.0377 -0.9311
   21MOL   H49210532   6.173   5.466   2.264 -0.7646 -0.5115 -1.0278
   21MOL   H49310533   6.161   5.289   2.268 -1.4409  0.2443 -0.5612
   21MOL   H49410534   6.181   5.387   2.412 -1.2798 -1.3466  1.1230
   21MOL   H49510535   6.027   5.737   2.533 -0.0430  0.1670 -0.6725
   21MOL   H49610536   5.894   5.687   2.628  0.5165  3.3375  0.8989
   21MOL   H49710537   5.963   5.503   2.843  0.7221  0.2144 -0.5402
   21MOL   H49810538   6.104   5.492   3.033  0.0987  1.0102  0.6497
   21MOL   H49910539   6.315   5.638   3.043  1.0643 -1.5661 -0.3221
   21MOL   H50010540   6.355   5.803   2.876 -0.6757 -0.3903  1.3451
   21MOL   H50110541   6.194   5.819   2.673 -1.3538  1.3184  1.4404
   21MOL   H50210542   5.929   5.421   2.226 -0.3082 -0.5235 -0.0360
   22MOL     C110543   3.550   4.289   7.272 -0.0782 -0.2793  0.4389
   22MOL     C210544   3.453   4.279   7.154  0.5242 -0.4341 -0.4870
   22MOL     C310545   3.524   4.326   7.035  0.2573  0.0049  0.5156
   22MOL     C410546   3.338   4.378   7.191 -0.6311  0.4291 -0.3578
   22MOL     O510547   3.313   4.471   7.117  0.5085 -0.4523 -0.6638
   22MOL     O610548   3.281   4.357   7.310 -0.0478  0.1821 -0.0453
   22MOL     C710549   3.179   4.446   7.351 -0.5714 -0.2148 -0.0695
   22MOL     C810550   3.036   4.405   7.304  0.6680 -0.1663 -0.2867
   22MOL     C910551   2.988   4.273   7.317 -0.8520  1.0087  0.7036
   22MOL    C1010552   2.857   4.240   7.277  0.3201 -0.7906 -0.4912
   22MOL    C1110553   2.766   4.345   7.248 -0.3940 -0.0357  0.7687
   22MOL    C1210554   2.810   4.479   7.253  0.6790  0.2368  0.1085
   22MOL    C1310555   2.948   4.509   7.269  1.1619  0.1594 -0.2499
   22MOL    H1410556   3.574   4.383   7.321 -0.8597 -0.2219  0.7035
   22MOL    H1510557   3.510   4.227   7.352 -0.1310 -0.8372 -0.0154
   22MOL    H1610558   3.577   4.420   7.052 -0.6685  0.8283 -1.0989
   22MOL    H1710559   3.459   4.341   6.949  2.2377  1.0269 -0.8440
   22MOL    H1810560   3.603   4.258   7.003 -1.5631 -1.9372  0.0599
   22MOL    H1910561   3.172   4.442   7.460  0.9443  3.2018  0.2132
   22MOL    H2010562   3.208   4.546   7.318 -2.9305  0.6572  0.3992
   22MOL    H2110563   3.047   4.189   7.348  1.2236  1.7806 -1.0617
   22MOL    H2210564   2.822   4.139   7.264 -0.1919 -0.3067 -3.0289
   22MOL    H2310565   2.664   4.327   7.221  0.0723 -0.3902 -0.7819
   22MOL    H2410566   2.741   4.562   7.243 -1.1764 -1.6079 -3.1442
   22MOL    H2510567   2.963   4.615   7.287 -1.4321  0.9198 -2.2799
   22MOL    H2610568   3.650   4.247   7.260  0.7433  1.4418  1.0923
   22MOL    C2710569   3.415   4.129   7.152  0.8683  0.2631 -0.1767
   22MOL    C2810570   3.341   4.049   7.042 -0.2659 -0.3078 -0.1951
   22MOL    C2910571   3.439   4.044   6.924  0.3138  0.4051  0.0912
   22MOL    C3010572   3.210   4.119   7.010  0.3862  0.5789  1.0029
   22MOL    O3110573   3.146   4.184   7.094 -0.3654 -0.2716 -0.2722
   22MOL    O3210574   3.168   4.094   6.888 -0.0081  0.1858 -0.1809
   22MOL    C3310575   3.041   4.129   6.848 -0.2997 -0.2722 -0.2135
   22MOL    C3410576   2.935   4.025   6.859  0.1858  0.1182  0.6944
   22MOL    C3510577   2.805   4.067   6.886 -0.2169  0.2081 -0.5957
   22MOL    C3610578   2.696   3.981   6.900 -0.6035 -0.2074 -0.7642
   22MOL    C3710579   2.726   3.840   6.880 -0.6891  0.0520 -0.5006
   22MOL    C3810580   2.854   3.794   6.844  1.3061 -0.2835  0.5113
   22MOL    C3910581   2.960   3.887   6.827  0.3052  0.2801 -0.6943
   22MOL    H4010582   3.351   4.107   7.238  1.3967  1.9150  0.6511
   22MOL    H4110583   3.505   4.070   7.169  0.2253 -0.2789  1.5386
   22MOL    H4210584   3.403   3.977   6.846 -0.2961  1.8909 -0.9216
   22MOL    H4310585   3.538   4.012   6.957  0.5157 -0.2409 -1.1132
   22MOL    H4410586   3.457   4.145   6.885  0.2159 -0.7308 -3.0829
   22MOL    H4510587   3.014   4.223   6.896  0.4665  0.0625 -0.4409
   22MOL    H4610588   3.040   4.166   6.745 -1.8734 -1.9060 -0.8176
   22MOL    H4710589   2.782   4.169   6.912 -2.1622 -0.1347 -0.8663
   22MOL    H4810590   2.596   4.020   6.909 -0.5010 -0.0686 -0.2358
   22MOL    H4910591   2.655   3.761   6.899  0.3528 -0.5337  1.1500
   22MOL    H5010592   2.863   3.687   6.828 -2.3137 -0.8905  2.2141
   22MOL    H5110593   3.062   3.858   6.806  1.4923  2.6805  1.4020
   22MOL    C5210594   3.321   3.892   7.079 -0.5599 -0.3744 -0.0047
   22MOL    C5310595   3.251   3.839   7.203  0.3089  0.2350 -0.2012
   22MOL    C5410596   3.128   3.926   7.234  0.1427 -0.2206 -0.4732
   22MOL    C5510597   3.337   3.847   7.336  0.4444  0.4859  0.2828
   22MOL    O5610598   3.455   3.882   7.332  0.8621  0.3086  0.3656
   22MOL    O5710599   3.266   3.807   7.447 -0.1003 -0.2701 -0.3238
   22MOL    C5810600   3.326   3.809   7.575 -0.1893  0.2565  0.4480
   22MOL    C5910601   3.287   3.928   7.660  0.3623 -0.8568 -0.4596
   22MOL    C6010602   3.201   4.032   7.618 -0.9026 -0.0920  0.0954
   22MOL    C6110603   3.185   4.147   7.712 -0.3621 -0.4139 -0.4108
   22MOL    C6210604   3.241   4.146   7.836 -0.2344 -0.2700 -0.6762
   22MOL    C6310605   3.335   4.041   7.873  0.1160 -0.1059  0.6602
   22MOL    C6410606   3.356   3.935   7.781  0.2837  0.2918  0.5040
   22MOL    H6510607   3.417   3.842   7.064  0.0394  1.2542 -1.7437
   22MOL    H6610608   3.268   3.854   6.991 -1.5896  0.4617  0.2362
   22MOL    H6710609   3.063   3.882   7.310  0.2608  0.5340  0.0799
   22MOL    H6810610   3.071   3.925   7.141 -0.7563  2.3009  0.0004
   22MOL    H6910611   3.157   4.026   7.266 -0.0285 -0.1651 -0.4869
   22MOL    H7010612   3.289   3.715   7.618  1.5025  0.2338  1.9220
   22MOL    H7110613   3.434   3.797   7.565 -0.1813  1.0021 -0.3693
   22MOL    H7210614   3.161   4.038   7.518 -2.8318 -0.5517  0.8214
   22MOL    H7310615   3.115   4.226   7.690 -1.1691 -0.4759  1.7969
   22MOL    H7410616   3.223   4.222   7.910  2.0407  2.5656 -2.9355
   22MOL    H7510617   3.396   4.055   7.961  0.6549 -0.9572  0.4265
   22MOL    H7610618   3.428   3.862   7.815 -1.7122 -1.4455  1.0766
   22MOL    C7710619   3.206   3.692   7.183 -0.3887  0.5901 -0.4088
   22MOL    C7810620   3.303   3.571   7.141  0.4820 -0.1632 -1.0570
   22MOL    C7910621   3.447   3.588   7.205 -0.4691 -0.2046  0.2087
   22MOL    C8010622   3.315   3.556   6.987  0.0656  0.6264  0.6330
   22MOL    O8110623   3.238   3.613   6.911 -0.4098 -0.8082 -0.1169
   22MOL    O8210624   3.408   3.480   6.941  0.1590  0.1413 -0.0809
   22MOL    C8310625   3.458   3.494   6.800 -1.0134 -0.3614  0.0815
   22MOL    C8410626   3.608   3.478   6.789 -0.0859  0.3639 -0.5841
   22MOL    C8510627   3.696   3.559   6.870 -0.6185 -0.2977 -0.0236
   22MOL    C8610628   3.835   3.545   6.861 -0.6273 -0.2052  0.3909
   22MOL    C8710629   3.887   3.454   6.772 -0.1308 -0.4883 -0.5228
   22MOL    C8810630   3.800   3.370   6.700 -0.1545 -0.1208 -1.4334
   22MOL    C8910631   3.660   3.377   6.703 -0.0861 -0.2859  0.3927
   22MOL    H9010632   3.128   3.696   7.107 -0.7165  1.5258 -0.0355
   22MOL    H9110633   3.138   3.671   7.266  0.6393  0.8989  0.5182
   22MOL    H9210634   3.441   3.607   7.312  2.0565 -0.0143  0.3665
   22MOL    H9310635   3.517   3.662   7.164  1.0605 -0.6485  1.9518
   22MOL    H9410636   3.503   3.495   7.207  1.6439  1.0222 -0.1570
   22MOL    H9510637   3.408   3.419   6.739 -0.9795  0.4756 -0.9833
   22MOL    H9610638   3.440   3.595   6.763 -0.1445  0.3616  1.5986
   22MOL    H9710639   3.648   3.627   6.939 -3.6303 -1.4091 -0.9218
   22MOL    H9810640   3.900   3.605   6.922  1.4771 -0.4543 -1.5293
   22MOL    H9910641   3.994   3.442   6.764 -0.4110 -2.0114 -2.4174
   22MOL   H10010642   3.845   3.301   6.630  1.2431 -0.4752 -0.2023
   22MOL   H10110643   3.601   3.322   6.632  0.4416  1.1099 -1.1508
   22MOL   C10210644   3.244   3.432   7.201 -0.2115 -0.0631 -0.9247
   22MOL   C10310645   3.159   3.318   7.130 -0.4382 -0.4569 -0.5224
   22MOL   C10410646   3.240   3.226   7.039 -1.1474 -0.5854 -0.0199
   22MOL   C10510647   3.040   3.386   7.055  0.0188  0.0792 -0.0219
   22MOL   O10610648   3.016   3.366   6.931  0.1681 -0.4524  1.0085
   22MOL   O10710649   2.964   3.454   7.140  0.0913 -0.3430  0.0389
   22MOL   C10810650   2.842   3.508   7.091  0.9347  0.0610 -0.4652
   22MOL   C10910651   2.759   3.591   7.191 -0.0888 -0.1414  0.2657
   22MOL   C11010652   2.623   3.554   7.222  0.5582  0.5319 -0.4591
   22MOL   C11110653   2.552   3.640   7.308  0.4323  0.6927 -1.0729
   22MOL   C11210654   2.614   3.748   7.371 -0.0444 -0.2753  0.2925
   22MOL   C11310655   2.751   3.783   7.349  0.3032  0.5493  0.1915
   22MOL   C11410656   2.817   3.707   7.250  0.1535 -0.2769 -0.4575
   22MOL   H11510657   3.180   3.470   7.281 -1.1539  0.1214 -1.7468
   22MOL   H11610658   3.329   3.380   7.244 -0.1146 -0.1012 -1.1587
   22MOL   H11710659   3.334   3.188   7.080 -2.7426 -0.1297  4.2150
   22MOL   H11810660   3.271   3.276   6.947 -1.9332  0.1001  0.0909
   22MOL   H11910661   3.182   3.142   6.999 -0.0848 -0.3616 -2.0959
   22MOL   H12010662   2.857   3.574   7.005 -0.0225 -0.5853 -1.1375
   22MOL   H12110663   2.768   3.440   7.049 -2.1366  2.7706  0.3887
   22MOL   H12210664   2.574   3.477   7.164  0.6139 -0.6965  1.0829
   22MOL   H12310665   2.450   3.622   7.340  1.0124 -2.2272 -0.6685
   22MOL   H12410666   2.556   3.804   7.443  0.6561  1.0727 -0.1761
   22MOL   H12510667   2.806   3.866   7.391  3.3261 -0.9967 -0.5521
   22MOL   H12610668   2.922   3.726   7.231  0.2770 -1.2616 -0.8104
   22MOL   C12710669   3.098   3.221   7.240  0.6357 -0.6546 -0.1976
   22MOL   C12810670   3.176   3.172   7.369 -0.5005 -0.0498 -0.0333
   22MOL   C12910671   3.181   3.287   7.472 -0.3795 -0.3594  1.0643
   22MOL   C13010672   3.320   3.130   7.345 -0.5516  0.1972 -0.4526
   22MOL   O13110673   3.422   3.201   7.373  0.2843  0.6644 -0.0114
   22MOL   O13210674   3.325   3.020   7.270 -0.7282 -0.2032  0.5614
   22MOL   C13310675   3.463   2.969   7.247  0.9083  0.7016 -0.5199
   22MOL   C13410676   3.466   2.823   7.210  0.0992  0.2073 -0.7412
   22MOL   C13510677   3.596   2.756   7.210  0.4280  0.0837 -0.5644
   22MOL   C13610678   3.606   2.620   7.171 -0.7828 -0.1611 -0.0669
   22MOL   C13710679   3.484   2.557   7.136 -0.1328 -0.4590 -1.1212
   22MOL   C13810680   3.360   2.613   7.143 -0.0618 -0.0926 -0.6423
   22MOL   C13910681   3.350   2.749   7.183  0.2120  0.1897  0.0934
   22MOL   H14010682   3.058   3.132   7.193 -0.4492 -1.2111  1.7236
   22MOL   H14110683   3.012   3.273   7.282  0.2804 -0.5302 -1.0923
   22MOL   H14210684   3.192   3.250   7.574  2.5087 -2.4876  0.0414
   22MOL   H14310685   3.085   3.340   7.474  0.8540  1.9521  0.9077
   22MOL   H14410686   3.260   3.361   7.463 -0.0472 -0.6109  1.8281
   22MOL   H14510687   3.506   3.027   7.165 -1.7216  1.7265 -1.2104
   22MOL   H14610688   3.524   2.982   7.336  0.7415 -0.1151 -0.2762
   22MOL   H14710689   3.680   2.815   7.243 -0.3852  1.9319 -1.6513
   22MOL   H14810690   3.702   2.572   7.161 -1.0605 -0.2169 -2.7843
   22MOL   H14910691   3.486   2.457   7.094 -1.3775 -0.9607 -0.0362
   22MOL   H15010692   3.277   2.556   7.104 -0.3877 -1.2571  1.7214
   22MOL   H15110693   3.249   2.786   7.190 -0.4217 -1.0607 -1.9930
   22MOL   C15210694   3.088   3.045   7.413  0.0042 -0.2701 -0.1127
   22MOL   C15310695   3.100   2.977   7.556  0.4748 -0.0002  0.9351
   22MOL   C15410696   2.996   2.859   7.546  0.5583 -0.0791 -0.0655
   22MOL   C15510697   3.044   3.069   7.659  0.9499  0.2555 -0.0948
   22MOL   O15610698   3.117   3.093   7.754  0.3350  0.4991  0.1379
   22MOL   O15710699   2.919   3.107   7.636  0.2263 -0.1009 -0.5658
   22MOL   C15810700   2.871   3.196   7.734 -0.5246  0.0943  0.4864
   22MOL   C15910701   2.898   3.335   7.697  0.3369 -1.0517 -0.1531
   22MOL   C16010702   2.809   3.397   7.602 -0.0267 -0.1565 -0.4002
   22MOL   C16110703   2.835   3.526   7.566 -0.1618  0.2255  0.0399
   22MOL   C16210704   2.957   3.590   7.606 -0.5546 -0.4079 -0.6536
   22MOL   C16310705   3.041   3.536   7.705  0.0725  0.1297  0.4463
   22MOL   C16410706   3.010   3.411   7.756  0.1642  0.9569  0.4560
   22MOL   H16510707   3.080   2.969   7.336 -2.0439 -1.2198  0.9983
   22MOL   H16610708   2.984   3.075   7.402 -0.0305 -0.7248 -1.0872
   22MOL   H16710709   2.901   2.900   7.512 -0.7855 -0.9568  2.5362
   22MOL   H16810710   2.985   2.810   7.643  0.9232  0.4745  0.2583
   22MOL   H16910711   3.034   2.783   7.478 -0.3770  0.4384 -1.1931
   22MOL   H17010712   2.764   3.186   7.753 -0.5225 -0.2326  0.3216
   22MOL   H17110713   2.904   3.177   7.836  0.1262  0.4914  0.3457
   22MOL   H17210714   2.730   3.344   7.552 -0.1691 -1.1773  0.8702
   22MOL   H17310715   2.776   3.573   7.489 -1.1404 -0.4727  0.3518
   22MOL   H17410716   2.981   3.687   7.565 -0.3334 -0.7860 -1.4430
   22MOL   H17510717   3.129   3.589   7.738 -1.4280  1.7995  1.9040
   22MOL   H17610718   3.074   3.366   7.831  0.7480  0.2514 -0.4544
   22MOL   C17710719   3.243   2.926   7.570  0.3979 -0.3758 -0.0049
   22MOL   C17810720   3.316   2.812   7.653  0.9507  0.3669  0.0395
   22MOL   C17910721   3.279   2.669   7.605  0.3057  0.6282  0.0673
   22MOL   C18010722   3.272   2.834   7.806  0.2878  0.2966  0.4338
   22MOL   O18110723   3.179   2.765   7.856 -0.5416 -0.2175 -0.4572
   22MOL   O18210724   3.333   2.933   7.865 -0.2740 -0.6449  0.5407
   22MOL   C18310725   3.296   2.967   7.997  0.2006 -0.2961 -0.4028
   22MOL   C18410726   3.395   3.056   0.064 -0.0171  0.4500 -0.0528
   22MOL   C18510727   3.362   3.089   0.199 -0.1135  0.5534  0.3408
   22MOL   C18610728   3.454   3.164   0.270  0.6549 -0.6517 -0.1575
   22MOL   C18710729   3.565   3.220   0.203  0.3237 -0.3565 -0.5325
   22MOL   C18810730   3.582   3.206   0.066 -0.4610  0.8013  0.1727
   22MOL   C18910731   3.503   3.112   8.005  0.5839 -0.9000  0.3488
   22MOL   H19010732   3.304   3.017   7.577 -0.1515 -0.0195  0.1575
   22MOL   H19110733   3.272   2.887   7.472  0.5520 -1.3716  0.4313
   22MOL   H19210734   3.173   2.650   7.588  0.0212  0.5956  1.8105
   22MOL   H19310735   3.316   2.590   7.670  1.8672  0.3616 -1.1175
   22MOL   H19410736   3.319   2.664   7.503  2.0121  0.4633  0.7268
   22MOL   H19510737   3.198   3.013   7.994 -0.4597 -1.5936  0.6590
   22MOL   H19610738   3.288   2.879   0.055  1.6632 -1.8078 -2.2117
   22MOL   H19710739   3.272   3.047   0.240 -1.0535  0.9704 -1.2542
   22MOL   H19810740   3.431   3.190   0.372 -0.2385  0.4602 -0.6258
   22MOL   H19910741   3.627   3.283   0.265 -0.2397 -0.7617  0.4576
   22MOL   H20010742   3.669   3.252   0.022  0.8531 -1.2576  0.5497
   22MOL   H20110743   3.513   3.114   7.897 -2.4608  3.5359  0.0375
   22MOL   C20210744   3.467   2.846   7.623 -0.1701 -0.0483  0.5209
   22MOL   C20310745   3.596   2.760   7.652  0.4741  0.2299  0.1697
   22MOL   C20410746   3.594   2.629   7.565 -0.2787  0.2394  0.5404
   22MOL   C20510747   3.592   2.727   7.804  0.8051  0.0442 -0.3499
   22MOL   O20610748   3.550   2.620   7.839 -0.0076  0.3926  0.6072
   22MOL   O20710749   3.625   2.828   7.884  0.2008 -0.1840 -0.4634
   22MOL   C20810750   3.624   2.818   0.018  0.1158 -0.0924  0.2931
   22MOL   C20910751   3.748   2.747   0.071  0.4760  0.1276 -0.8174
   22MOL   C21010752   3.789   2.614   0.042 -0.4485 -0.9721 -0.1622
   22MOL   C21110753   3.898   2.546   0.103  0.1168 -0.0512 -0.2366
   22MOL   C21210754   3.969   2.617   0.200  0.5020  0.1676  0.1884
   22MOL   C21310755   3.931   2.749   0.231  0.1315  0.6620  0.0545
   22MOL   C21410756   3.825   2.816   0.166 -0.0724  0.2639 -0.2895
   22MOL   H21510757   3.486   2.939   7.676 -1.1040 -1.1343  2.8081
   22MOL   H21610758   3.478   2.869   7.517 -0.1948  0.8443  0.7079
   22MOL   H21710759   3.503   2.569   7.569 -1.8634  2.3022 -2.6543
   22MOL   H21810760   3.677   2.565   7.595  0.6052 -0.6881 -3.5740
   22MOL   H21910761   3.613   2.658   7.462  1.0692 -2.1186  0.0871
   22MOL   H22010762   3.620   2.908   0.079  2.4279  2.1046 -2.6218
   22MOL   H22110763   3.538   2.755   0.040  0.0584  0.6740  2.3987
   22MOL   H22210764   3.730   2.552   7.983 -0.1664 -0.7665 -0.6071
   22MOL   H22310765   3.915   2.442   0.076  1.7861 -0.7310  3.2145
   22MOL   H22410766   4.049   2.567   0.254  0.9165 -0.1498 -0.7138
   22MOL   H22510767   3.993   2.805   0.298  1.5837 -0.7633 -0.0613
   22MOL   H22610768   3.804   2.915   0.201 -0.3345 -0.3583  1.3585
   22MOL   C22710769   3.721   2.850   7.611  0.8208 -0.4307 -0.2659
   22MOL   C22810770   3.873   2.804   7.608 -0.0460  0.3407  0.6313
   22MOL   C22910771   3.899   2.731   7.742  0.2259 -0.1257 -0.5372
   22MOL   C23010772   3.962   2.933   7.601  0.5487  0.0251 -0.1285
   22MOL   O23110773   4.062   2.951   7.674  0.3479 -0.4325  0.2410
   22MOL   O23210774   3.921   3.024   7.508  0.1720  0.6086  0.5698
   22MOL   C23310775   3.969   3.158   7.510 -0.2426 -0.2436 -0.3118
   22MOL   C23410776   3.872   3.256   7.572  0.3729 -0.3936  0.0795
   22MOL   C23510777   3.732   3.235   7.562 -0.2355  0.0261 -0.2964
   22MOL   C23610778   3.637   3.314   7.629 -0.0384 -0.4092  0.5980
   22MOL   C23710779   3.679   3.430   7.698 -1.2227  0.3396  0.9927
   22MOL   C23810780   3.819   3.457   7.698 -0.4595  0.2879  0.7479
   22MOL   C23910781   3.914   3.371   7.636  0.3874 -0.1962 -0.2539
   22MOL   H24010782   3.718   2.934   7.682 -0.5276 -0.3456 -0.4162
   22MOL   H24110783   3.701   2.919   7.529 -0.0342  0.4948  0.6973
   22MOL   H24210784   3.838   2.641   7.748  0.6443 -0.4122 -0.5792
   22MOL   H24310785   3.877   2.800   7.823 -3.8326 -0.1841 -1.4514
   22MOL   H24410786   3.999   2.704   7.774 -0.4125 -0.9222  0.8360
   22MOL   H24510787   4.059   3.170   7.570  0.7022 -0.5875 -1.6348
   22MOL   H24610788   3.993   3.188   7.408  0.5920 -1.9454 -0.6429
   22MOL   H24710789   3.686   3.154   7.509  1.8428 -0.3948 -1.5260
   22MOL   H24810790   3.532   3.290   7.622  0.0181 -0.1034 -1.5169
   22MOL   H24910791   3.614   3.492   7.756  0.6815  2.1214  1.2796
   22MOL   H25010792   3.853   3.543   7.754 -0.0983 -1.5497  3.4440
   22MOL   H25110793   4.018   3.400   7.641  0.3367  0.0834 -0.8577
   22MOL   C25210794   3.895   2.699   7.489  0.5438 -0.9787  0.2040
   22MOL   C25310795   4.038   2.674   7.422 -0.2124  0.5795  0.7982
   22MOL   C25410796   4.132   2.631   7.538 -0.5010  0.4539  0.1711
   22MOL   C25510797   4.092   2.797   7.345  0.2175 -0.2804 -0.2262
   22MOL   O25610798   4.199   2.846   7.371 -0.2961 -0.1460 -0.7704
   22MOL   O25710799   4.001   2.847   7.257  0.1997 -0.0985 -0.8490
   22MOL   C25810800   4.050   2.947   7.164 -0.0776  0.0579  0.1696
   22MOL   C25910801   3.936   3.036   7.114 -0.4913 -0.0983 -0.7377
   22MOL   C26010802   3.948   3.173   7.108  0.1462  1.5655  0.1381
   22MOL   C26110803   3.835   3.244   7.057  0.1799 -0.0620 -0.4183
   22MOL   C26210804   3.720   3.183   7.005  0.3325 -0.9272 -0.0895
   22MOL   C26310805   3.720   3.043   7.007  0.4108  0.1284  0.3754
   22MOL   C26410806   3.824   2.967   7.061 -0.8683  0.0677 -0.2167
   22MOL   H26510807   3.835   2.735   7.405 -1.5575 -1.1689  1.5919
   22MOL   H26610808   3.859   2.600   7.514  3.0972 -1.7429  0.9883
   22MOL   H26710809   4.135   2.707   7.617  1.4945 -0.8519  1.4146
   22MOL   H26810810   4.235   2.621   7.503  0.0528 -0.0567  1.8810
   22MOL   H26910811   4.115   2.533   7.583  0.6610  1.4303  2.8617
   22MOL   H27010812   4.129   3.012   7.199 -0.7050  0.1181  1.5091
   22MOL   H27110813   4.099   2.900   7.078 -0.8774 -0.0976 -0.2105
   22MOL   H27210814   4.036   3.228   7.137  1.5526 -0.0373 -0.9967
   22MOL   H27310815   3.829   3.352   7.051 -1.2906  0.0818  2.6334
   22MOL   H27410816   3.637   3.237   6.962 -1.1473 -3.1651 -0.1171
   22MOL   H27510817   3.637   2.980   6.978 -0.9135  1.3832  1.3690
   22MOL   H27610818   3.819   2.860   7.055 -1.8014  0.1772 -1.8277
   22MOL   C27710819   4.005   2.556   7.319  0.0663 -0.2409  0.0755
   22MOL   C27810820   4.109   2.508   7.204  0.4609  0.3116  0.1944
   22MOL   C27910821   4.265   2.513   7.248  0.4428  0.4651 -0.0286
   22MOL   C28010822   4.104   2.605   7.076 -0.2193  0.1339 -0.2144
   22MOL   O28110823   4.202   2.674   7.052  0.0412 -0.5734 -0.4225
   22MOL   O28210824   3.987   2.599   7.007  0.1164  0.3756 -0.1310
   22MOL   C28310825   3.984   2.654   6.879 -0.2871 -0.6443  0.0731
   22MOL   C28410826   3.892   2.571   6.795 -0.0734  0.6438 -0.6547
   22MOL   C28510827   3.939   2.484   6.697 -0.1953  0.7773  0.3597
   22MOL   C28610828   3.850   2.422   6.610  0.7917 -0.2698 -0.2469
   22MOL   C28710829   3.715   2.444   6.618  0.6285 -0.1871 -0.2778
   22MOL   C28810830   3.662   2.514   6.730 -0.2851 -0.3133  0.3580
   22MOL   C28910831   3.752   2.577   6.816  0.1831 -0.4156  0.1528
   22MOL   H29010832   3.915   2.578   7.260  1.1584 -0.0714 -1.5709
   22MOL   H29110833   3.973   2.476   7.385  0.6424 -1.4783 -1.1178
   22MOL   H29210834   4.282   2.614   7.285  1.4965 -0.3748  1.8677
   22MOL   H29310835   4.331   2.494   7.164  0.0224  0.1015 -0.2734
   22MOL   H29410836   4.286   2.448   7.334  3.0785  0.3086 -0.7507
   22MOL   H29510837   3.962   2.760   6.881 -1.2580 -0.7778 -1.9313
   22MOL   H29610838   4.085   2.642   6.841  1.4408  0.1907  4.1485
   22MOL   H29710839   4.046   2.478   6.688  0.0390  2.2286  1.9312
   22MOL   H29810840   3.891   2.350   6.541  0.5825 -0.8886  0.2667
   22MOL   H29910841   3.652   2.396   6.544 -0.5232  0.2718  0.3983
   22MOL   H30010842   3.558   2.543   6.737 -1.0402 -2.5728 -1.1581
   22MOL   H30110843   3.706   2.649   6.882  0.7702  0.9724 -0.9282
   22MOL   C30210844   4.052   2.366   7.162 -0.0597  0.5930 -0.2875
   22MOL   C30310845   4.114   2.259   7.059 -0.3674  0.1852 -0.0334
   22MOL   C30410846   4.176   2.328   6.926  0.3336 -0.1449  0.9862
   22MOL   C30510847   3.994   2.168   7.016 -0.1825 -0.1891  0.2527
   22MOL   O30610848   3.958   2.160   6.892  0.2226  0.0419 -0.0280
   22MOL   O30710849   3.939   2.104   7.114 -0.0996 -0.3189  0.2262
   22MOL   C30810850   3.836   2.007   7.085 -0.0693 -0.4602 -0.2615
   22MOL   C30910851   3.707   2.032   7.165  0.2114  0.1646 -0.6203
   22MOL   C31010852   3.676   2.159   7.214 -0.5430  0.0466  0.3317
   22MOL   C31110853   3.557   2.177   7.287  0.0911  0.0886  0.2466
   22MOL   C31210854   3.475   2.066   7.323  0.2322  0.3249  0.2264
   22MOL   C31310855   3.504   1.938   7.266 -0.3536  0.2303  0.9395
   22MOL   C31410856   3.622   1.925   7.189  0.0486 -0.1653  0.3431
   22MOL   H31510857   3.952   2.390   7.125 -0.3076  1.9244  1.1863
   22MOL   H31610858   4.034   2.298   7.246  2.0253  0.1583 -0.1769
   22MOL   H31710859   4.196   2.260   6.843  0.2369  0.0730  0.7846
   22MOL   H31810860   4.260   2.397   6.936  0.1790  0.0322  1.0574
   22MOL   H31910861   4.094   2.391   6.891  0.4309 -2.6061 -4.1235
   22MOL   H32010862   3.806   1.989   6.982  2.2046 -1.2013 -0.8195
   22MOL   H32110863   3.872   1.907   7.107  0.8991 -0.4876 -1.9167
   22MOL   H32210864   3.741   2.241   7.187 -1.0147 -0.4550 -2.3767
   22MOL   H32310865   3.534   2.279   7.315  0.5140  0.7190 -1.6500
   22MOL   H32410866   3.385   2.078   7.381  1.0163  2.5686  1.0331
   22MOL   H32510867   3.441   1.853   7.286  0.7391 -1.1858 -1.4081
   22MOL   H32610868   3.641   1.835   7.132 -0.5318 -1.1280  1.6445
   22MOL   C32710869   4.223   2.180   7.145 -0.1911 -0.0265 -0.3839
   22MOL   C32810870   4.315   2.067   7.088  0.0690 -0.6396 -0.4708
   22MOL   C32910871   4.429   2.128   6.999  0.1629  0.1861  0.1774
   22MOL   C33010872   4.229   1.970   7.001  0.0315  0.8556  0.0240
   22MOL   O33110873   4.150   1.891   7.056 -0.4492 -0.7580  0.5673
   22MOL   O33210874   4.241   1.984   6.864 -0.3817 -0.1819 -0.1379
   22MOL   C33310875   4.147   1.924   6.778  0.0361  0.1660 -0.1634
   22MOL   C33410876   4.154   1.968   6.633  0.2881  0.5325 -0.8930
   22MOL   C33510877   4.083   2.078   6.576 -0.1885  0.3362  0.3002
   22MOL   C33610878   4.097   2.115   6.445 -0.3635  1.1590 -0.0967
   22MOL   C33710879   4.186   2.053   6.359  0.3554 -0.1504 -1.1415
   22MOL   C33810880   4.254   1.939   6.409 -0.8293 -0.1007  0.5349
   22MOL   C33910881   4.235   1.897   6.541 -0.0401  0.5322 -0.2907
   22MOL   H34010882   4.165   2.139   7.228  0.3577 -0.8135 -0.3836
   22MOL   H34110883   4.286   2.254   7.194  0.8115 -1.3005  0.2962
   22MOL   H34210884   4.494   2.192   7.058  1.4571  0.2208 -1.2600
   22MOL   H34310885   4.402   2.198   6.920  2.4044  2.4812  1.3771
   22MOL   H34410886   4.481   2.045   6.951  3.0631  2.2077 -0.3043
   22MOL   H34510887   4.143   1.815   6.782 -1.3352  0.1844 -0.9289
   22MOL   H34610888   4.046   1.938   6.816  0.0616  1.3398 -0.5057
   22MOL   H34710889   4.018   2.133   6.642 -0.0451  0.0319  0.6985
   22MOL   H34810890   4.044   2.206   6.418 -1.0000  0.9330  0.3883
   22MOL   H34910891   4.200   2.089   6.258  0.0935  0.0802 -1.0941
   22MOL   H35010892   4.324   1.882   6.348  1.1847  0.9576  1.7852
   22MOL   H35110893   4.285   1.805   6.569 -1.2213  0.3328  1.2581
   22MOL   C35210894   4.385   1.989   7.210 -0.5434  0.1927  0.5518
   22MOL   C35310895   4.325   1.967   7.352  0.5156 -0.5350 -0.4639
   22MOL   C35410896   4.182   1.888   7.353  0.6670  0.4491  0.9314
   22MOL   C35510897   4.320   2.106   7.435  0.0107  0.5543  0.1231
   22MOL   O35610898   4.415   2.181   7.446  0.2221  0.4804 -0.5102
   22MOL   O35710899   4.206   2.127   7.492  0.3296 -0.8971 -0.3192
   22MOL   C35810900   4.187   2.236   7.580  0.4031 -0.0385  0.0027
   22MOL   C35910901   4.044   2.257   7.609  0.1999 -0.1049  0.1193
   22MOL   C36010902   4.010   2.334   7.721  0.3128  0.0658 -0.1133
   22MOL   C36110903   3.874   2.360   7.748 -0.2476 -0.4030 -0.2509
   22MOL   C36210904   3.770   2.314   7.664  0.4360 -0.2337 -0.7970
   22MOL   C36310905   3.804   2.235   7.553 -0.3651 -0.0475  0.4724
   22MOL   C36410906   3.943   2.209   7.522 -0.0122  0.3789  1.1155
   22MOL   H36510907   4.486   2.030   7.220  0.5587 -2.2344 -0.3299
   22MOL   H36610908   4.395   1.891   7.163 -1.1462  0.8737 -1.0567
   22MOL   H36710909   4.101   1.949   7.313 -0.4516 -1.5872  0.0280
   22MOL   H36810910   4.149   1.855   7.452  0.2346  0.6912  0.8701
   22MOL   H36910911   4.184   1.795   7.297  0.3455  0.6603  0.5653
   22MOL   H37010912   4.251   2.228   7.668 -0.0505  0.6842  0.4045
   22MOL   H37110913   4.218   2.329   7.532  0.1757  1.6061  2.8937
   22MOL   H37210914   4.091   2.381   7.776 -0.4003 -0.7462  1.6481
   22MOL   H37310915   3.849   2.415   7.837 -0.8231  0.6231 -1.0340
   22MOL   H37410916   3.667   2.337   7.689  0.5429  0.5198 -1.0431
   22MOL   H37510917   3.732   2.189   7.487 -0.4033 -0.2599  0.6621
   22MOL   H37610918   3.970   2.152   7.435 -1.6782  1.8123 -0.3721
   22MOL   C37710919   4.424   1.879   7.421  0.3681  0.4696 -0.0343
   22MOL   C37810920   4.403   1.802   7.561 -0.2287 -0.3022 -0.1685
   22MOL   C37910921   4.553   1.768   7.593 -0.6045  0.3322  0.1062
   22MOL   C38010922   4.336   1.668   7.540 -0.5598 -0.2873  0.3846
   22MOL   O38110923   4.303   1.632   7.428 -0.2734 -0.2632 -0.0469
   22MOL   O38210924   4.332   1.580   7.643  0.1019  0.3698 -0.2677
   22MOL   C38310925   4.289   1.441   7.624  0.1827 -0.4229 -0.0274
   22MOL   C38410926   4.360   1.346   7.713 -0.1150 -0.2396 -0.7363
   22MOL   C38510927   4.346   1.363   7.852 -0.4342 -1.1518  0.5380
   22MOL   C38610928   4.408   1.275   7.942  0.1971 -0.0656  0.2657
   22MOL   C38710929   4.491   1.173   7.886 -0.0809 -0.1984  0.3590
   22MOL   C38810930   4.501   1.156   7.747 -0.3341 -0.2829  0.1410
   22MOL   C38910931   4.434   1.239   7.654 -1.0202 -0.1694 -0.4838
   22MOL   H39010932   4.524   1.923   7.415  0.4776  0.0081 -1.8631
   22MOL   H39110933   4.452   1.806   7.345  0.0423 -0.1100  0.4031
   22MOL   H39210934   4.577   1.721   7.688  0.3128 -2.4007 -1.4057
   22MOL   H39310935   4.615   1.856   7.606 -2.0732  1.0277  2.6889
   22MOL   H39410936   4.603   1.715   7.511  0.2671 -0.0109  0.8487
   22MOL   H39510937   4.181   1.431   7.633  0.2984 -0.6590  1.0710
   22MOL   H39610938   4.307   1.410   7.521  5.6828 -0.9597  0.9817
   22MOL   H39710939   4.287   1.443   7.894 -1.7246 -2.2147  0.7755
   22MOL   H39810940   4.393   1.281   0.041 -3.0306 -2.3106  0.0472
   22MOL   H39910941   4.526   1.101   7.959 -1.1987  0.1416  1.2542
   22MOL   H40010942   4.554   1.070   7.710 -0.6598  0.6495 -2.6379
   22MOL   H40110943   4.433   1.222   7.547 -1.1013  3.2703 -1.0995
   22MOL   C40210944   4.340   1.892   7.677 -0.5033 -0.5284 -0.6035
   22MOL   C40310945   4.273   1.844   7.812  0.1151 -0.1026  0.0938
   22MOL   C40410946   4.388   1.766   7.888  0.8238 -0.6115 -0.0495
   22MOL   C40510947   4.154   1.751   7.800  0.2560 -0.2244 -0.1445
   22MOL   O40610948   4.144   1.647   7.866  0.3108 -0.5517 -0.6895
   22MOL   O40710949   4.051   1.801   7.728 -0.4699 -0.1180  0.1145
   22MOL   C40810950   3.919   1.752   7.729 -0.5820 -0.0998  0.6066
   22MOL   C40910951   3.877   1.671   7.609  0.1723  0.1216  0.0382
   22MOL   C41010952   3.899   1.531   7.620  0.1893 -0.1054  0.0852
   22MOL   C41110953   3.851   1.443   7.522  0.2918  0.1185 -0.1475
   22MOL   C41210954   3.778   1.497   7.409  0.2434 -0.3507 -1.3231
   22MOL   C41310955   3.766   1.637   7.389 -0.5842  0.6342  0.0045
   22MOL   C41410956   3.814   1.722   7.493  0.0348  0.5136 -0.5088
   22MOL   H41510957   4.252   1.934   7.630 -1.6969 -1.4351  0.7548
   22MOL   H41610958   4.406   1.976   7.700  0.2252 -1.7154  1.8488
   22MOL   H41710959   4.432   1.683   7.834  0.7858  0.6173 -2.0193
   22MOL   H41810960   4.350   1.727   7.983 -0.3755  2.9722  1.0279
   22MOL   H41910961   4.481   1.824   7.898  2.3948 -2.6124 -2.5317
   22MOL   H42010962   3.894   1.701   7.822  0.5966  1.2212  1.6849
   22MOL   H42110963   3.849   1.836   7.723  0.0025  0.4037  0.8039
   22MOL   H42210964   3.940   1.501   7.715 -1.1633  1.1415  1.0838
   22MOL   H42310965   3.851   1.336   7.539 -1.4669  0.3179  1.2530
   22MOL   H42410966   3.736   1.428   7.337 -0.6310 -1.7234  0.4847
   22MOL   H42510967   3.716   1.668   7.299 -1.3923 -1.1969 -0.1851
   22MOL   H42610968   3.788   1.826   7.485 -1.8710  0.0925 -0.2002
   22MOL   C42710969   4.235   1.977   7.890  0.2796  0.0896  0.0435
   22MOL   C42810970   4.169   1.980   0.023 -0.0128 -0.2484  0.0737
   22MOL   C42910971   4.016   1.979   0.003 -0.0745 -0.3287  0.0921
   22MOL   C43010972   4.197   2.126   0.071 -0.1575 -0.3245  0.0977
   22MOL   O43110973   4.108   2.207   0.089 -0.4794 -0.0769 -0.1710
   22MOL   O43210974   4.330   2.162   0.085  0.4200 -0.3553 -0.3324
   22MOL   C43310975   4.358   2.298   0.120  0.0495 -0.3075 -0.5470
   22MOL   C43410976   4.357   2.393   8.005  0.3380  0.3599  0.2555
   22MOL   C43510977   4.280   2.515   0.003  0.6703  0.0033  0.0806
   22MOL   C43610978   4.288   2.606   7.906  0.1053  0.4659  0.1124
   22MOL   C43710979   4.381   2.580   7.801  0.2172  0.1268  0.2973
   22MOL   C43810980   4.462   2.468   7.797 -0.1461 -0.8078  0.8246
   22MOL   C43910981   4.452   2.376   7.904 -0.3693  0.7843 -0.1593
   22MOL   H44010982   4.176   2.046   7.830 -1.0883 -1.8920 -0.9275
   22MOL   H44110983   4.331   2.029   7.888  1.7017 -2.4958 -0.4668
   22MOL   H44210984   3.978   1.877   0.011  0.2598 -0.4214  0.5116
   22MOL   H44310985   3.987   2.008   7.909 -0.5071  0.3596  0.4108
   22MOL   H44410986   3.955   2.033   0.075  1.3487  1.8995 -0.3083
   22MOL   H44510987   4.288   2.339   0.194 -1.6439 -2.2620 -1.0089
   22MOL   H44610988   4.460   2.289   0.156  1.2672  1.0912 -3.5126
   22MOL   H44710989   4.212   2.538   0.083 -0.3418  0.8077 -0.9942
   22MOL   H44810990   4.247   2.705   7.909 -1.3270 -0.1239  0.0816
   22MOL   H44910991   4.383   2.653   7.721  0.6299  0.3360  0.4919
   22MOL   H45010992   4.534   2.446   7.719 -1.9192 -1.3851 -0.6987
   22MOL   H45110993   4.523   2.295   7.915 -0.4630  0.7609  0.2744
   22MOL   C45210994   4.211   1.874   0.126 -0.2423  0.4322  0.0285
   22MOL   C45310995   4.174   1.867   0.278  0.1857 -0.3865  0.1830
   22MOL   C45410996   4.218   1.720   0.323 -0.4817  0.5226 -0.2418
   22MOL   C45510997   4.022   1.878   0.304  0.8934  0.2014  0.8280
   22MOL   O45610998   3.967   1.970   0.371  0.4746  0.1296  0.4129
   22MOL   O45710999   3.962   1.767   0.265 -0.3338  0.0130 -0.5094
   22MOL   C45811000   3.829   1.744   0.306 -0.1592  0.2828  0.0487
   22MOL   C45911001   3.748   1.707   0.186  0.8148 -0.4083  0.4752
   22MOL   C46011002   3.605   1.719   0.204 -0.0244  0.7228 -0.5851
   22MOL   C46111003   3.520   1.661   0.107 -0.2761 -0.4009 -0.0801
   22MOL   C46211004   3.574   1.588   8.005 -0.0204 -0.0075 -0.1352
   22MOL   C46311005   3.715   1.589   7.989 -0.6519 -0.6882  0.0298
   22MOL   C46411006   3.807   1.643   0.076 -0.1958 -0.2346 -0.1107
   22MOL   H46511007   4.318   1.851   0.130  0.2139  2.5214  0.2883
   22MOL   H46611008   4.164   1.787   0.080  0.5871  0.0262 -0.0604
   22MOL   H46711009   4.178   1.647   0.252 -0.3414 -0.7092  0.9247
   22MOL   H46811010   4.185   1.691   0.423  1.6644 -0.1574  0.2795
   22MOL   H46911011   4.326   1.714   0.321 -0.5445 -2.6504  2.1819
   22MOL   H47011012   3.852   1.654   0.363  1.9460  0.3863 -0.6267
   22MOL   H47111013   3.769   1.821   0.357 -0.4872  0.8676 -1.1971
   22MOL   H47211014   3.560   1.759   0.294  0.1820  0.3394 -0.3076
   22MOL   H47311015   3.414   1.647   0.123 -0.3498  0.5332  0.2430
   22MOL   H47411016   3.511   1.529   7.941  0.5316  0.1086 -0.7945
   22MOL   H47511017   3.758   1.523   7.915  2.3029  0.5072  0.6450
   22MOL   H47611018   3.913   1.621   0.077 -0.4733 -1.6356 -0.5297
   22MOL   C47711019   4.258   1.973   0.357  0.5546 -0.1185 -0.3740
   22MOL   C47811020   4.253   1.968   0.513  0.5573  0.6041 -0.8782
   22MOL   C47911021   4.275   2.112   0.558  0.1559 -0.7664  0.1329
   22MOL   C48011022   4.347   1.869   0.592  0.5026  0.0084 -0.1124
   22MOL   O48111023   4.300   1.805   0.687 -0.3639 -1.1308 -0.4644
   22MOL   O48211024   4.466   1.852   0.540  0.0251  0.3677  0.4481
   22MOL   C48311025   4.558   1.747   0.575 -0.0774 -0.3619  0.2648
   22MOL   C48411026   4.586   1.655   0.461 -0.0669 -0.6998  0.4185
   22MOL   C48511027   4.637   1.692   0.334  0.3136 -0.0893  0.7933
   22MOL   C48611028   4.658   1.593   0.236 -0.5649 -0.1533  0.1754
   22MOL   C48711029   4.640   1.457   0.261  0.2681  0.0063 -0.4414
   22MOL   C48811030   4.578   1.417   0.382 -0.7123  0.7393  0.1532
   22MOL   C48911031   4.560   1.514   0.480 -0.2002 -0.2893 -0.3794
   22MOL   H49011032   4.221   2.071   0.330 -0.6764 -1.1409 -2.4420
   22MOL   H49111033   4.360   1.973   0.317  0.1250  2.4761 -1.5332
   22MOL   H49211034   4.178   2.162   0.555  0.2067 -0.7166 -1.3976
   22MOL   H49311035   4.342   2.166   0.491  2.6120 -3.2531  0.4900
   22MOL   H49411036   4.313   2.112   0.660  1.4191 -0.3311 -0.3196
   22MOL   H49511037   4.650   1.794   0.608 -0.8019  0.5977  0.9613
   22MOL   H49611038   4.520   1.690   0.661 -1.0387  0.1900  0.2152
   22MOL   H49711039   4.651   1.797   0.315 -0.6457  0.4023  2.6953
   22MOL   H49811040   4.692   1.626   0.139 -0.1925  0.4532  0.5094
   22MOL   H49911041   4.663   1.387   0.182 -2.3027 -1.4616  0.0736
   22MOL   H50011042   4.553   1.314   0.401 -2.2617  0.7385 -1.7129
   22MOL   H50111043   4.501   1.488   0.567 -2.3676  3.1481 -0.7131
   22MOL   H50211044   4.151   1.936   0.533  0.8875  0.6249  0.8967
   23MOL     C111045   0.437   6.530   6.776  0.5168  0.7191  0.2328
   23MOL     C211046   0.378   6.541   6.627  0.4167  0.3214  0.4326
   23MOL     C311047   0.229   6.505   6.642 -0.1268  1.0316  0.5245
   23MOL     C411048   0.444   6.441   6.530  0.4726 -0.0265 -0.1713
   23MOL     O511049   0.525   6.355   6.567  0.4008  0.0213 -0.3753
   23MOL     O611050   0.413   6.457   6.397  0.0847  0.2685  0.0185
   23MOL     C711051   0.469   6.375   6.297 -0.2814  0.6261  0.3431
   23MOL     C811052   0.582   6.436   6.227 -0.6150 -0.3164  0.0280
   23MOL     C911053   0.555   6.517   6.114  0.3394 -0.1130 -0.3081
   23MOL    C1011054   0.650   6.594   6.046  0.2564  0.2910 -0.4127
   23MOL    C1111055   0.785   6.585   6.096  0.4649 -0.4438 -0.4133
   23MOL    C1211056   0.816   6.512   6.210  0.6767 -0.7883  0.4021
   23MOL    C1311057   0.715   6.434   6.269  0.1047 -0.3609  0.1483
   23MOL    H1411058   0.544   6.515   6.765  0.2700 -0.5544 -0.5428
   23MOL    H1511059   0.417   6.614   6.843  0.6462 -0.1783  1.4017
   23MOL    H1611060   0.211   6.404   6.679 -3.1403  1.4396  0.3251
   23MOL    H1711061   0.177   6.515   6.547 -1.2348  0.7641  1.0995
   23MOL    H1811062   0.196   6.578   6.717  0.0813  0.0104  1.6269
   23MOL    H1911063   0.505   6.286   6.349 -0.7105  0.2145 -0.0659
   23MOL    H2011064   0.394   6.332   6.230  0.2887 -1.5082  1.0143
   23MOL    H2111065   0.453   6.528   6.081  0.1135 -0.1612  0.3640
   23MOL    H2211066   0.620   6.650   5.959  2.5564 -0.9538 -2.0354
   23MOL    H2311067   0.856   6.652   6.051 -0.5394  1.0776  0.2205
   23MOL    H2411068   0.917   6.514   6.246  1.2322 -0.3902 -1.1353
   23MOL    H2511069   0.734   6.371   6.354  0.5435  0.9534  1.0451
   23MOL    H2611070   0.398   6.439   6.822  0.0141  0.6916 -0.2438
   23MOL    C2711071   0.372   6.686   6.562  0.1168  0.0323  0.0310
   23MOL    C2811072   0.503   6.785   6.544  0.1513 -0.4399  1.8862
   23MOL    C2911073   0.600   6.735   6.431  1.5349  0.1352 -0.0478
   23MOL    C3011074   0.582   6.786   6.679  0.4851  0.1048  0.0380
   23MOL    O3111075   0.693   6.731   6.683 -0.4919  0.1297 -0.3145
   23MOL    O3211076   0.514   6.842   6.784  0.1195  0.8461  0.1900
   23MOL    C3311077   0.587   6.864   6.902  0.1745 -0.2720  0.2803
   23MOL    C3411078   0.659   6.994   6.923 -0.6432  0.4211 -0.2352
   23MOL    C3511079   0.663   7.053   7.054  0.3809 -0.5182  0.0236
   23MOL    C3611080   0.725   7.179   7.074 -0.8291  0.7520  0.0092
   23MOL    C3711081   0.785   7.244   6.970  0.1007 -0.2263 -0.3009
   23MOL    C3811082   0.772   7.194   6.838 -0.5904 -0.1997 -0.2313
   23MOL    C3911083   0.707   7.071   6.815  0.1900  0.4128 -0.2321
   23MOL    H4011084   0.306   6.746   6.625  0.4210  1.1105 -0.6650
   23MOL    H4111085   0.317   6.670   6.469 -1.2515 -3.5469  1.3552
   23MOL    H4211086   0.654   6.646   6.463 -0.9858 -2.1251 -1.8304
   23MOL    H4311087   0.662   6.816   6.394  1.3698  0.5350  0.5437
   23MOL    H4411088   0.539   6.700   6.348  0.1156 -0.5188  1.2360
   23MOL    H4511089   0.511   6.855   6.980 -0.6800 -0.3071 -0.5360
   23MOL    H4611090   0.651   6.776   6.910 -0.8341 -1.1470 -0.7868
   23MOL    H4711091   0.624   6.998   7.138  0.9238  1.3252  1.5207
   23MOL    H4811092   0.747   7.212   7.174  0.7404 -0.4703  0.0946
   23MOL    H4911093   0.848   7.325   7.002 -1.7037  1.6492 -1.3786
   23MOL    H5011094   0.808   7.254   6.756 -0.7284 -0.3065 -0.3690
   23MOL    H5111095   0.697   7.041   6.712 -2.0487  0.1529  0.0394
   23MOL    C5211096   0.460   6.936   6.520 -0.7912  0.0198 -0.2131
   23MOL    C5311097   0.409   7.005   6.386 -0.3193 -0.0010 -1.0769
   23MOL    C5411098   0.297   6.915   6.339  0.9804  0.6894  0.2948
   23MOL    C5511099   0.510   7.012   6.269 -0.1658 -0.0769 -0.4145
   23MOL    O5611100   0.495   6.964   6.155 -0.0339 -0.0859  0.3664
   23MOL    O5711101   0.630   7.074   6.300 -0.0990  0.2218 -0.5742
   23MOL    C5811102   0.738   7.090   6.209  0.4897  1.0908 -0.3737
   23MOL    C5911103   0.850   7.162   6.273  0.5805  0.6359  0.4367
   23MOL    C6011104   0.839   7.241   6.388  0.5231 -0.3658 -0.3190
   23MOL    C6111105   0.954   7.301   6.447 -0.0363 -1.1622 -0.8036
   23MOL    C6211106   1.078   7.291   6.379  0.1429 -0.3930  0.3479
   23MOL    C6311107   1.083   7.224   6.255  0.3587 -0.1473  0.8646
   23MOL    C6411108   0.976   7.147   6.212  0.8956 -0.2874  0.5642
   23MOL    H6511109   0.546   7.001   6.538 -0.8210  0.9280 -3.0434
   23MOL    H6611110   0.381   6.949   6.594 -0.1834  0.9262  0.2806
   23MOL    H6711111   0.241   6.961   6.258 -0.9514  0.9859  1.7396
   23MOL    H6811112   0.218   6.899   6.414  0.5358  1.2127 -0.0581
   23MOL    H6911113   0.338   6.821   6.302  0.3051  0.5374 -0.0858
   23MOL    H7011114   0.781   6.994   6.182 -2.1608 -1.2292  3.2007
   23MOL    H7111115   0.716   7.131   6.110 -0.1129  0.6815 -0.4160
   23MOL    H7211116   0.749   7.252   6.448  2.3418 -0.3975  2.5321
   23MOL    H7311117   0.942   7.348   6.544  1.2078 -0.8372 -0.8071
   23MOL    H7411118   1.168   7.340   6.414 -0.0161  0.5028 -0.4727
   23MOL    H7511119   1.173   7.215   6.197 -0.3400 -0.7242 -0.1335
   23MOL    H7611120   0.985   7.104   6.113 -0.8724 -0.1185  0.3054
   23MOL    C7711121   0.369   7.161   6.411 -0.5664  0.0016 -0.7296
   23MOL    C7811122   0.315   7.218   6.550  0.2757  0.2261 -0.3073
   23MOL    C7911123   0.421   7.212   6.667 -0.2626  0.5099 -0.0950
   23MOL    C8011124   0.191   7.129   6.591  0.1621 -0.3271 -0.5737
   23MOL    O8111125   0.168   7.111   6.710 -0.2620  0.4167  0.5616
   23MOL    O8211126   0.101   7.105   6.489  0.2651  0.2883  0.6079
   23MOL    C8311127   7.972   7.080   6.522  0.0543 -0.1506 -0.0736
   23MOL    C8411128   7.932   6.953   6.442 -0.1579  0.6501  0.2035
   23MOL    C8511129   7.851   6.965   6.324 -0.0890  1.1126 -0.4270
   23MOL    C8611130   7.820   6.841   6.254 -0.2863  0.1761 -0.9673
   23MOL    C8711131   7.854   6.716   6.312  0.0812 -0.6632 -0.0558
   23MOL    C8811132   7.942   6.709   6.422  0.3790 -0.2850 -0.1348
   23MOL    C8911133   7.980   6.830   6.482  0.2101  0.1948 -0.3528
   23MOL    H9011134   0.305   7.182   6.325 -0.4220 -2.1012 -1.3817
   23MOL    H9111135   0.458   7.217   6.381 -0.7773  0.1519 -1.0771
   23MOL    H9211136   0.370   7.275   6.740 -1.6459  1.1250 -1.5558
   23MOL    H9311137   0.513   7.270   6.655 -0.3653  0.5378 -0.8060
   23MOL    H9411138   0.430   7.114   6.713  0.5314  0.1679 -0.9609
   23MOL    H9511139   7.950   7.069   6.628  1.5139  2.7284  0.5857
   23MOL    H9611140   7.910   7.166   6.496  1.9146  0.0172 -4.3124
   23MOL    H9711141   7.822   7.062   6.287 -0.9937  1.9700  2.3926
   23MOL    H9811142   7.765   6.851   6.162 -0.3342 -2.1032 -1.2143
   23MOL    H9911143   7.832   6.622   6.263 -0.1944  0.6638 -2.5330
   23MOL   H10011144   7.986   6.615   6.451  0.1856 -1.4774 -3.5141
   23MOL   H10111145   0.037   6.825   6.568 -1.6301  0.1651  1.0416
   23MOL   C10211146   0.272   7.371   6.530 -0.2650  0.2330 -0.5771
   23MOL   C10311147   0.366   7.500   6.525  0.4022 -0.1358 -0.8434
   23MOL   C10411148   0.272   7.598   6.456 -0.1225 -0.6190 -0.4033
   23MOL   C10511149   0.494   7.464   6.444  0.0753 -0.1219  1.4481
   23MOL   O10611150   0.594   7.424   6.495 -0.1612 -0.4224 -0.3458
   23MOL   O10711151   0.468   7.476   6.306  0.2678 -0.0395 -0.0617
   23MOL   C10811152   0.549   7.434   6.202 -0.0196 -0.6803 -0.8154
   23MOL   C10911153   0.474   7.370   6.092  0.5371  0.2027  0.1915
   23MOL   C11011154   0.339   7.331   6.098 -0.5569 -0.3866 -0.0929
   23MOL   C11111155   0.269   7.275   5.992 -0.0436  0.2241  0.5323
   23MOL   C11211156   0.350   7.246   5.881  0.3500 -0.1316  0.3594
   23MOL   C11311157   0.487   7.278   5.868 -0.1730 -0.3724  0.0306
   23MOL   C11411158   0.540   7.352   5.971  0.0595 -0.3850 -0.0993
   23MOL   H11511159   0.210   7.388   6.619 -0.3117 -3.7289  0.2347
   23MOL   H11611160   0.205   7.362   6.444 -1.9565 -1.0630  0.8172
   23MOL   H11711161   0.234   7.569   6.358 -1.0550 -0.8856  0.0290
   23MOL   H11811162   0.308   7.696   6.424  0.1889  0.1619  2.2330
   23MOL   H11911163   0.179   7.618   6.508 -0.2133  0.4246 -0.9539
   23MOL   H12011164   0.585   7.533   6.175 -1.8771  0.4333  0.6852
   23MOL   H12111165   0.630   7.376   6.247 -0.2826 -0.4807 -0.0699
   23MOL   H12211166   0.279   7.363   6.182 -0.6844 -1.9803  0.4358
   23MOL   H12311167   0.165   7.245   5.993 -0.3402  1.1631 -0.4896
   23MOL   H12411168   0.303   7.188   5.803 -1.1286 -0.0175  1.1455
   23MOL   H12511169   0.552   7.263   5.783  0.4142 -0.8132  0.5522
   23MOL   H12611170   0.637   7.398   5.957 -1.4820  2.7338 -0.8794
   23MOL   C12711171   0.401   7.547   6.673  0.1260 -0.3596 -1.0078
   23MOL   C12811172   0.449   7.691   6.707 -0.0077 -0.1359 -0.4056
   23MOL   C12911173   0.328   7.772   6.749 -0.1410  0.1701  0.3258
   23MOL   C13011174   0.529   7.760   6.593 -0.4791  0.0761 -0.6004
   23MOL   O13111175   0.472   7.853   6.532  0.0468 -0.6178 -0.4180
   23MOL   O13211176   0.650   7.714   6.573  0.0739  0.6537  0.9641
   23MOL   C13311177   0.743   7.794   6.504 -0.9809  0.7534 -0.0387
   23MOL   C13411178   0.771   7.746   6.366 -1.0429  1.0463 -0.7645
   23MOL   C13511179   0.697   7.800   6.260 -0.2281 -0.5283 -0.3901
   23MOL   C13611180   0.719   7.754   6.129  0.6410 -0.0685 -0.2448
   23MOL   C13711181   0.814   7.648   6.102  0.5255  0.1293 -0.3602
   23MOL   C13811182   0.876   7.588   6.215 -0.5186 -0.4587 -0.2586
   23MOL   C13911183   0.862   7.644   6.344 -0.1907 -0.2820  0.3296
   23MOL   H14011184   0.477   7.477   6.708  0.5780  0.3210 -0.6025
   23MOL   H14111185   0.324   7.515   6.743 -0.7004  2.8137 -0.3899
   23MOL   H14211186   0.263   7.776   6.663 -0.8396 -1.1010  0.7742
   23MOL   H14311187   0.351   7.875   6.776  1.2154  0.2199 -0.9658
   23MOL   H14411188   0.264   7.736   6.829 -0.6027  3.0269  1.3063
   23MOL   H14511189   0.704   7.895   6.485  0.3230  1.0550 -1.1749
   23MOL   H14611190   0.836   7.808   6.559 -2.0109 -0.2045  1.9980
   23MOL   H14711191   0.630   7.884   6.271 -0.7976 -0.5810 -2.9768
   23MOL   H14811192   0.671   7.814   6.053  0.5247 -0.6392 -0.6319
   23MOL   H14911193   0.839   7.619   6.002 -2.2676  1.4829 -1.5158
   23MOL   H15011194   0.948   7.509   6.199 -0.6689 -0.5169 -0.6320
   23MOL   H15111195   0.912   7.593   6.425 -0.7711 -2.2580 -0.5038
   23MOL   C15211196   0.549   7.690   6.833  0.1643 -0.6956  0.1797
   23MOL   C15311197   0.510   7.680   6.986  0.3738  0.7502  0.9469
   23MOL   C15411198   0.655   7.661   7.043  0.0326  0.2818 -0.4072
   23MOL   C15511199   0.415   7.552   7.005  0.0769 -0.2655 -0.6025
   23MOL   O15611200   0.463   7.444   7.044 -0.3481  0.0876 -0.1831
   23MOL   O15711201   0.286   7.576   7.001 -0.8048  0.4316  0.3605
   23MOL   C15811202   0.198   7.472   7.025 -0.5310  0.1301 -0.4909
   23MOL   C15911203   0.051   7.511   7.028  0.0755 -0.1055 -0.6480
   23MOL   C16011204   0.005   7.644   7.035  0.4329 -0.1928  0.6619
   23MOL   C16111205   7.877   7.672   7.054  0.4837 -0.7336  0.6943
   23MOL   C16211206   7.784   7.569   7.072 -0.2952 -0.1489  0.5269
   23MOL   C16311207   7.833   7.435   7.063 -0.0924  0.2457  0.6105
   23MOL   C16411208   7.967   7.409   7.049  0.2260  0.7783 -0.3388
   23MOL   H16511209   0.620   7.773   6.825 -0.6357  0.2393  2.3311
   23MOL   H16611210   0.616   7.607   6.812  1.3880  0.6076 -1.1586
   23MOL   H16711211   0.708   7.587   6.983  0.4830 -0.4379  0.8688
   23MOL   H16811212   0.634   7.619   7.141  1.0176  1.0854  0.1539
   23MOL   H16911213   0.714   7.753   7.051 -1.1737  1.0434 -0.1557
   23MOL   H17011214   0.209   7.398   6.946 -0.1469 -1.1398  0.7393
   23MOL   H17111215   0.225   7.426   7.119  2.1487  2.6108  0.0253
   23MOL   H17211216   0.070   7.730   7.025 -0.7973  0.6694 -0.0536
   23MOL   H17311217   7.848   7.776   7.065  2.7341 -0.2220  2.4066
   23MOL   H17411218   7.681   7.584   7.101 -0.4406  0.9541 -0.5130
   23MOL   H17511219   7.760   7.355   7.073 -0.2361  0.4081  0.8651
   23MOL   H17611220   8.002   7.307   7.056 -0.6756  0.4935  0.0240
   23MOL   C17711221   0.440   7.818   7.035  0.6555 -0.3165  0.3257
   23MOL   C17811222   0.436   7.868   7.185 -0.5058 -0.2873 -0.1102
   23MOL   C17911223   0.566   7.955   7.209  0.5427 -0.1116  0.2155
   23MOL   C18011224   0.445   7.742   7.282 -0.0210 -0.2890  0.1489
   23MOL   O18111225   0.547   7.711   7.347 -0.0750 -0.1967 -0.4041
   23MOL   O18211226   0.335   7.675   7.292  0.2496  0.5569  0.0363
   23MOL   C18311227   0.314   7.565   7.381  0.6197 -0.5905  0.0293
   23MOL   C18411228   0.167   7.519   7.379 -0.2649  0.2822 -0.0351
   23MOL   C18511229   0.124   7.379   7.383 -0.2444 -0.6073 -0.7551
   23MOL   C18611230   7.992   7.339   7.385  0.1804 -0.4296  0.3659
   23MOL   C18711231   7.897   7.449   7.390  0.1614 -0.5647 -0.6001
   23MOL   C18811232   7.940   7.581   7.389 -0.9239 -0.6483  0.0466
   23MOL   C18911233   0.069   7.617   7.378 -0.0078  0.0470  0.3219
   23MOL   H19011234   0.338   7.827   7.000  0.9358  0.4553 -0.3101
   23MOL   H19111235   0.490   7.897   6.979 -0.5486  0.3418  0.1656
   23MOL   H19211236   0.589   0.033   7.145  0.5180  0.9639  1.6332
   23MOL   H19311237   0.657   7.894   7.213 -0.1000 -0.9772  2.6521
   23MOL   H19411238   0.570   8.005   7.305 -1.8813  1.0236 -0.2506
   23MOL   H19511239   0.370   7.482   7.339  0.1568 -0.4073 -0.9679
   23MOL   H19611240   0.348   7.585   7.483  0.8557 -1.9943  0.2391
   23MOL   H19711241   0.204   7.307   7.391  0.3245 -0.0843 -1.7038
   23MOL   H19811242   7.964   7.237   7.406  0.5058 -0.2895  1.4917
   23MOL   H19911243   7.791   7.431   7.398  0.0511  0.6691  0.9502
   23MOL   H20011244   7.870   7.662   7.395 -0.3867 -0.0675 -1.3262
   23MOL   H20111245   0.093   7.722   7.379 -1.8943  0.5157 -1.4953
   23MOL   C20211246   0.309   7.953   7.226  0.2151  0.2604  0.0095
   23MOL   C20311247   0.275   0.090   7.178  0.1255 -0.4770  0.1156
   23MOL   C20411248   0.272   0.090   7.029  0.3856  0.2550  0.1808
   23MOL   C20511249   0.375   0.192   7.234  0.1355  0.6275  0.9577
   23MOL   O20611250   0.429   0.265   7.153  0.6082 -0.1655 -0.6269
   23MOL   O20711251   0.389   0.192   7.372  0.0530 -0.0991 -0.4882
   23MOL   C20811252   0.479   0.270   7.446  0.3707  0.3186  0.1042
   23MOL   C20911253   0.423   0.299   7.584  0.3977 -0.2008  0.5322
   23MOL   C21011254   0.293   0.284   7.626  0.7032 -0.3112  0.2935
   23MOL   C21111255   0.255   0.313   7.762 -0.9511  0.4077 -0.7791
   23MOL   C21211256   0.352   0.346   7.857  0.1234 -0.3687  0.0341
   23MOL   C21311257   0.482   0.347   7.818  0.1047  0.2485  0.3198
   23MOL   C21411258   0.520   0.327   7.683  0.1814 -0.1417  0.0862
   23MOL   H21511259   0.306   7.957   7.335 -0.5567  3.1359 -0.0966
   23MOL   H21611260   0.220   7.893   7.211 -1.2321  2.4802 -0.4384
   23MOL   H21711261   0.372   0.067   6.994  0.4096 -1.9556  1.6249
   23MOL   H21811262   0.253   0.183   6.974 -1.9243  0.1174  0.6875
   23MOL   H21911263   0.204   0.010   7.000 -0.0607  1.2486 -1.6503
   23MOL   H22011264   0.566   0.205   7.457 -1.1236 -1.3471  2.6643
   23MOL   H22111265   0.509   0.361   7.394  1.0237  1.3182  2.1958
   23MOL   H22211266   0.219   0.263   7.551 -0.9524  1.6307  1.3129
   23MOL   H22311267   0.151   0.307   7.789 -0.4314  1.4177  1.5378
   23MOL   H22411268   0.320   0.357   7.960 -0.8718  1.2000 -0.4286
   23MOL   H22511269   0.555   0.348   7.898  0.0680 -0.4565  0.3616
   23MOL   H22611270   0.625   0.322   7.657 -0.4337  1.4566 -2.8886
   23MOL   C22711271   0.123   0.113   7.223  0.1035  0.0441 -0.4286
   23MOL   C22811272   0.021   0.226   7.185 -0.2132  0.2118  0.1892
   23MOL   C22911273   0.100   0.358   7.201  1.1515  0.3734 -0.3087
   23MOL   C23011274   7.923   0.230   7.305  0.0941  0.4317  0.3428
   23MOL   O23111275   7.877   0.335   7.355 -0.1336  0.0019 -0.6307
   23MOL   O23211276   7.891   0.103   7.345  0.4876  0.8226 -0.9263
   23MOL   C23311277   7.787   0.080   7.441 -0.5161 -0.2985  0.6670
   23MOL   C23411278   7.825   0.115   7.582  0.3037 -0.2654  0.5850
   23MOL   C23511279   7.950   0.063   7.632 -0.2563 -0.4924  0.3835
   23MOL   C23611280   7.993   0.100   7.759  0.3170  0.4676 -0.0268
   23MOL   C23711281   7.912   0.183   7.833 -0.4780 -0.5565 -0.2409
   23MOL   C23811282   7.785   0.222   7.789 -0.1900  0.5008 -0.4952
   23MOL   C23911283   7.735   0.183   7.663 -0.3242 -0.6664  0.4421
   23MOL   H24011284   0.131   0.120   7.331 -2.0101  0.1511 -0.2620
   23MOL   H24111285   0.055   0.028   7.218 -1.2882  1.0784  0.5990
   23MOL   H24211286   0.168   0.378   7.118 -0.4106 -0.0312 -1.7081
   23MOL   H24311287   0.167   0.358   7.287  1.9020  0.1205 -0.8939
   23MOL   H24411288   0.032   0.443   7.204 -1.2135 -1.4536 -0.2943
   23MOL   H24511289   7.694   0.127   7.409 -0.1032 -0.6536 -1.1234
   23MOL   H24611290   7.753   7.983   7.442  0.2377 -0.5499  0.6560
   23MOL   H24711291   0.010   0.006   7.569 -0.7893 -0.6552 -0.0372
   23MOL   H24811292   0.076   0.063   7.807 -0.7319 -1.8413  0.2159
   23MOL   H24911293   7.952   0.212   7.930  1.1242  1.3679 -1.4339
   23MOL   H25011294   7.732   0.285   7.860  0.1369 -1.4665  1.5537
   23MOL   H25111295   7.637   0.219   7.636  0.0233  0.5322  0.7528
   23MOL   C25211296   7.972   0.202   7.043 -0.4250  1.0742  0.7785
   23MOL   C25311297   7.828   0.254   6.990 -0.2344 -0.2926  0.3946
   23MOL   C25411298   7.832   0.405   7.008  0.6319 -0.0064  0.5922
   23MOL   C25511299   7.699   0.202   7.067  0.5426 -0.1749 -0.1630
   23MOL   O25611300   7.703   0.104   7.137  0.5774  0.1091 -0.0932
   23MOL   O25711301   7.591   0.276   7.043  0.2808  0.0857 -0.1026
   23MOL   C25811302   7.492   0.267   7.145  0.3633  0.1084 -0.1063
   23MOL   C25911303   7.408   0.392   7.131 -0.4016 -0.2650  0.1362
   23MOL   C26011304   7.290   0.382   7.050  0.0314 -0.1022 -0.2840
   23MOL   C26111305   7.213   0.495   7.014  0.6216  0.2190 -0.0429
   23MOL   C26211306   7.252   0.622   7.055 -0.3885  0.5963 -0.3110
   23MOL   C26311307   7.365   0.630   7.140 -0.4458  0.4686  0.0268
   23MOL   C26411308   7.449   0.519   7.176 -0.6308 -0.0914  0.1752
   23MOL   H26511309   7.972   0.094   7.031  0.0123  1.2428 -0.7957
   23MOL   H26611310   0.039   0.235   6.970  1.0850  0.0067  1.8085
   23MOL   H26711311   7.794   0.418   7.109  0.7878 -1.9989  0.9288
   23MOL   H26811312   7.760   0.464   6.951  1.0773  1.6051  1.6575
   23MOL   H26911313   7.931   0.449   6.998  0.9672 -0.3780  2.1475
   23MOL   H27011314   7.433   0.178   7.125 -1.1548  1.0794 -0.0514
   23MOL   H27111315   7.541   0.271   7.242  0.5253  0.9742 -0.2196
   23MOL   H27211316   7.258   0.286   7.014  0.2581 -0.5327  0.6273
   23MOL   H27311317   7.123   0.484   6.954  0.2977 -1.4757  0.7333
   23MOL   H27411318   7.187   0.705   7.035  0.6253  1.8653  1.5022
   23MOL   H27511319   7.393   0.731   7.164  0.6127  0.3988 -0.8324
   23MOL   H27611320   7.543   0.541   7.224 -0.2567  0.6369 -0.8548
   23MOL   C27711321   7.813   0.227   6.836  1.0237  0.0963  0.0766
   23MOL   C27811322   7.823   0.087   6.773  0.0761 -0.0843  0.2622
   23MOL   C27911323   7.749   7.980   6.852 -0.9136 -0.1436  0.0935
   23MOL   C28011324   7.976   0.051   6.757 -0.0058 -0.9430 -0.2372
   23MOL   O28111325   0.022   7.960   6.816  0.2731  0.2575 -0.5594
   23MOL   O28211326   0.037   0.125   6.676  0.0067  0.3041  0.0936
   23MOL   C28311327   0.171   0.078   6.644 -0.5521 -0.0038 -0.0001
   23MOL   C28411328   0.240   0.184   6.556 -1.4240 -0.3981  0.6724
   23MOL   C28511329   0.186   0.190   6.427  0.5740 -0.1662  0.6745
   23MOL   C28611330   0.242   0.277   6.328 -0.4440  0.1547  0.3874
   23MOL   C28711331   0.356   0.359   6.357  0.4556 -0.3494  0.1773
   23MOL   C28811332   0.400   0.356   6.492 -0.1450  0.0719 -0.3252
   23MOL   C28911333   0.350   0.265   6.588  0.3140  0.3810 -0.2103
   23MOL   H29011334   7.878   0.290   6.776  0.4807 -1.5392 -2.2678
   23MOL   H29111335   7.720   0.276   6.806  1.6887  0.9585 -0.5971
   23MOL   H29211336   7.784   7.969   6.954  1.0092  0.0603 -0.5278
   23MOL   H29311337   7.751   7.878   6.814  2.3024 -0.4753  1.0430
   23MOL   H29411338   7.644   8.002   6.874 -1.2697 -3.5642  2.0615
   23MOL   H29511339   0.227   0.063   6.736  1.1960  0.5597 -0.9537
   23MOL   H29611340   0.163   7.991   6.589 -1.4300 -0.0734  0.2412
   23MOL   H29711341   0.100   0.129   6.403  0.7715 -0.0771 -0.3131
   23MOL   H29811342   0.200   0.271   6.229  0.1223 -1.2824  0.2225
   23MOL   H29911343   0.396   0.426   6.282  0.2698 -0.8887 -0.4032
   23MOL   H30011344   0.480   0.415   6.534  0.4198 -1.7951  1.2589
   23MOL   H30111345   0.401   0.269   6.683  0.7404 -0.4766 -0.4003
   23MOL   C30211346   7.768   0.095   6.629 -0.8420 -0.4041  0.0080
   23MOL   C30311347   7.737   7.985   6.530  1.0992 -0.3785 -0.0641
   23MOL   C30411348   7.595   7.926   6.569  0.3629  0.4696 -0.4814
   23MOL   C30511349   7.835   7.871   6.524  0.0876 -0.4677 -0.6380
   23MOL   O30611350   7.946   7.900   6.487  0.6570  0.2149  0.5099
   23MOL   O30711351   7.791   7.753   6.558 -0.2856  0.9323 -0.4776
   23MOL   C30811352   7.893   7.656   6.596 -0.4687  0.6206  0.4607
   23MOL   C30911353   7.829   7.518   6.624  0.6034 -0.2601  0.1882
   23MOL   C31011354   7.715   7.478   6.556 -0.0989  0.6564  0.3164
   23MOL   C31111355   7.643   7.357   6.585 -0.1775  0.0622  0.4245
   23MOL   C31211356   7.699   7.264   6.672 -0.3045  0.1225 -0.8226
   23MOL   C31311357   7.821   7.299   6.732  0.1768  0.0535  0.1575
   23MOL   C31411358   7.881   7.428   6.722 -0.0812  0.0988  1.0273
   23MOL   H31511359   7.828   0.173   6.583 -0.5987  0.0204  1.0359
   23MOL   H31611360   7.672   0.145   6.641 -1.0427  0.0601 -3.0845
   23MOL   H31711361   7.587   7.912   6.677 -0.3196  3.8875 -0.0468
   23MOL   H31811362   7.564   7.831   6.526  1.4603 -0.6092  1.0407
   23MOL   H31911363   7.514   7.997   6.551  0.5960  1.1795  1.2205
   23MOL   H32011364   7.968   7.639   6.519 -0.9028 -0.9540  0.3600
   23MOL   H32111365   7.951   7.687   6.682 -0.6396  3.8599 -0.5202
   23MOL   H32211366   7.697   7.539   6.469  0.5893 -1.3830 -1.3119
   23MOL   H32311367   7.557   7.322   6.530 -0.2314 -0.5559  0.8959
   23MOL   H32411368   7.662   7.162   6.673  0.7533 -0.2859  2.0666
   23MOL   H32511369   7.874   7.218   6.779 -0.2084  0.5624  1.4978
   23MOL   H32611370   7.971   7.444   6.779  0.3310 -0.2170  0.4696
   23MOL   C32711371   7.721   0.052   6.388 -0.2691  0.5943  0.8063
   23MOL   C32811372   7.686   7.983   6.249  0.2691 -0.7265 -0.1332
   23MOL   C32911373   7.605   7.856   6.268 -0.2925 -0.5526 -0.2350
   23MOL   C33011374   7.824   7.927   6.200  0.1682 -0.0881 -0.0038
   23MOL   O33111375   7.898   8.002   6.139  0.4097 -0.0750 -0.5851
   23MOL   O33211376   7.862   7.804   6.231 -0.1810  0.0555  0.4695
   23MOL   C33311377   7.982   7.745   6.189 -0.2070 -0.3329  0.3431
   23MOL   C33411378   7.956   7.601   6.148  0.2484  0.1416 -0.3805
   23MOL   C33511379   7.941   7.496   6.244  0.1470  0.0206  0.0873
   23MOL   C33611380   7.916   7.361   6.201 -0.0332 -0.5807  0.2713
   23MOL   C33711381   7.901   7.338   6.065 -0.6901 -0.0005  0.1645
   23MOL   C33811382   7.923   7.435   5.971  0.1202  0.0313 -0.8835
   23MOL   C33911383   7.946   7.572   6.013 -0.0616  0.7770  0.2341
   23MOL   H34011384   7.823   0.088   6.374  0.0290  0.0668  1.6176
   23MOL   H34111385   7.667   0.145   6.406  1.2023  1.3715  1.3331
   23MOL   H34211386   7.647   7.781   6.336 -0.7281 -0.2507  0.3797
   23MOL   H34311387   7.589   7.798   6.177 -3.3737 -0.1999 -0.0000
   23MOL   H34411388   7.508   7.884   6.310  0.8389  1.4982  1.0615
   23MOL   H34511389   0.021   7.791   6.102 -1.0737 -0.1678 -0.0292
   23MOL   H34611390   0.041   7.755   6.275 -1.5177  2.5512  1.0793
   23MOL   H34711391   7.962   7.516   6.349  1.3313  2.7122 -0.6180
   23MOL   H34811392   7.902   7.280   6.270 -2.1733 -0.0838  0.4457
   23MOL   H34911393   7.897   7.235   6.031 -1.8819 -0.5855  1.9561
   23MOL   H35011394   7.910   7.413   5.866  2.2305 -1.6909 -0.8096
   23MOL   H35111395   7.947   7.656   5.946  0.5622  0.8444  0.3243
   23MOL   C35211396   7.633   0.079   6.147 -0.0825 -0.1081 -0.2134
   23MOL   C35311397   7.477   0.120   6.144  1.0949  0.0638 -0.2837
   23MOL   C35411398   7.422   0.144   6.285  0.1673 -0.8519 -0.6669
   23MOL   C35511399   7.405   0.013   6.068  0.4948  0.6412  0.3352
   23MOL   O35611400   7.466   7.959   5.982 -0.4291  0.1173  0.9926
   23MOL   O35711401   7.271   0.012   6.109 -0.3107 -0.1779  0.5499
   23MOL   C35811402   7.185   7.917   6.079 -0.0963 -0.1596 -0.1443
   23MOL   C35911403   7.187   7.827   6.205  0.0828 -0.2895  0.2938
   23MOL   C36011404   7.086   7.847   6.303 -0.8504  0.1669 -0.9391
   23MOL   C36111405   7.092   7.777   6.422 -0.1093 -0.5709 -0.5921
   23MOL   C36211406   7.195   7.680   6.438 -0.2469 -0.4421  0.2821
   23MOL   C36311407   7.282   7.649   6.334 -0.1739 -0.2777  0.0783
   23MOL   C36411408   7.285   7.724   6.212 -0.1658 -0.3213 -0.5183
   23MOL   H36511409   7.667   0.038   6.051 -1.0555  0.3535 -0.7525
   23MOL   H36611410   7.698   0.165   6.163 -0.6786  0.0641  1.3113
   23MOL   H36711411   7.421   0.057   6.351 -4.2340  0.5681  1.3644
   23MOL   H36811412   7.317   0.174   6.293  0.0684 -1.4922  0.6368
   23MOL   H36911413   7.481   0.210   6.349 -0.3682 -1.8748  0.9265
   23MOL   H37011414   7.085   7.955   6.058 -0.8472 -0.3828  2.7613
   23MOL   H37111415   7.223   7.862   5.993  0.6994  0.9323 -0.5040
   23MOL   H37211416   7.008   7.919   6.283 -1.8867 -0.6100  0.2437
   23MOL   H37311417   7.010   7.792   6.490  1.6110 -1.1704  1.6947
   23MOL   H37411418   7.194   7.627   6.533 -0.1040 -1.2654 -0.1735
   23MOL   H37511419   7.354   7.569   6.343  0.7059  0.6894  1.8983
   23MOL   H37611420   7.359   7.707   6.135  2.2232 -1.7247  1.9942
   23MOL   C37711421   7.486   0.249   6.063 -0.5692 -1.1679 -0.2111
   23MOL   C37811422   7.363   0.330   6.010  0.2936  0.1592  0.1553
   23MOL   C37911423   7.255   0.374   6.117  0.4046  0.5274 -0.4810
   23MOL   C38011424   7.290   0.251   5.895 -0.1749 -0.1178 -0.7034
   23MOL   O38111425   7.170   0.234   5.893 -0.1285 -0.1418 -0.0361
   23MOL   O38211426   7.372   0.223   5.794  0.2021 -0.0568  0.1634
   23MOL   C38311427   7.317   0.160   5.677  0.1885  0.7764 -0.7399
   23MOL   C38411428   7.295   0.010   5.682  0.9803  0.0191 -0.2230
   23MOL   C38511429   7.182   7.963   5.736 -0.2645  0.0775  0.3691
   23MOL   C38611430   7.160   7.826   5.732  0.2152 -0.1098  0.2523
   23MOL   C38711431   7.264   7.740   5.683  0.4499 -0.5391 -0.3704
   23MOL   C38811432   7.381   7.795   5.624  0.1711 -0.3360 -0.5731
   23MOL   C38911433   7.391   7.934   5.627  0.3785 -0.1210 -0.3723
   23MOL   H39011434   7.543   0.235   5.971  1.1120 -0.0291  0.6279
   23MOL   H39111435   7.540   0.313   6.132 -0.0024 -2.3491  0.4470
   23MOL   H39211436   7.195   0.447   6.063 -1.3930  0.1685  0.9833
   23MOL   H39311437   7.289   0.413   6.213 -0.9417  0.2218  0.1415
   23MOL   H39411438   7.188   0.295   6.152  1.8356 -0.9135 -0.9623
   23MOL   H39511439   7.219   0.198   5.647  0.3764  1.3807 -0.6041
   23MOL   H39611440   7.383   0.169   5.591  0.0860 -1.4850 -1.0769
   23MOL   H39711441   7.113   0.022   5.786 -1.7259 -1.0492 -0.1098
   23MOL   H39811442   7.071   7.781   5.773 -0.1478 -0.8705 -1.3136
   23MOL   H39911443   7.244   7.635   5.703  1.3669 -0.1578  2.8785
   23MOL   H40011444   7.458   7.743   5.570 -0.2182  1.3802 -2.8615
   23MOL   H40111445   7.477   7.977   5.579  0.6083  0.1604  0.2754
   23MOL   C40211446   7.424   0.459   5.932  0.2182 -0.3538  0.1047
   23MOL   C40311447   7.468   0.595   5.998 -0.3925  0.2233  0.1834
   23MOL   C40411448   7.561   0.570   6.116 -0.5552 -0.4844 -0.5433
   23MOL   C40511449   7.347   0.674   6.056 -0.2065  0.3589 -0.2032
   23MOL   O40611450   7.334   0.705   6.179 -0.0326  0.0160 -0.3909
   23MOL   O40711451   7.258   0.707   5.960 -0.6534  0.3184 -0.3744
   23MOL   C40811452   7.123   0.747   5.997 -0.9330 -0.1262 -0.1688
   23MOL   C40911453   7.022   0.692   5.896 -0.6204 -0.6007 -0.5438
   23MOL   C41011454   7.047   0.561   5.852  0.9848 -0.3345 -0.0889
   23MOL   C41111455   6.950   0.507   5.759 -0.4748  0.5118  0.5534
   23MOL   C41211456   6.829   0.575   5.724 -1.0179  0.9223 -0.6804
   23MOL   C41311457   6.807   0.707   5.779 -0.0789 -0.1575 -0.1615
   23MOL   C41411458   6.900   0.766   5.869  0.2945  0.1570 -0.4686
   23MOL   H41511459   7.361   0.490   5.849  0.4064  0.4979  0.2779
   23MOL   H41611460   7.518   0.419   5.894 -0.4514 -1.4474 -0.4279
   23MOL   H41711461   7.649   0.519   6.076  0.8115  1.8433 -0.5577
   23MOL   H41811462   7.504   0.517   6.193  1.4925 -0.2464  1.1949
   23MOL   H41911463   7.588   0.659   6.172 -1.5678 -1.1740  1.0807
   23MOL   H42011464   7.098   0.707   6.095  0.5789  2.7281  1.4546
   23MOL   H42111465   7.107   0.855   6.000  1.7234  0.2649  1.2747
   23MOL   H42211466   7.127   0.496   5.884  0.3146 -1.3083 -0.3442
   23MOL   H42311467   6.968   0.407   5.724  0.0192  1.0581 -0.7928
   23MOL   H42411468   6.760   0.537   5.650  2.0342 -3.7142 -1.3369
   23MOL   H42511469   6.713   0.757   5.760 -0.2341 -0.3902 -0.0138
   23MOL   H42611470   6.860   0.859   5.908 -0.8070 -0.4156 -0.2246
   23MOL   C42711471   7.549   0.681   5.891 -0.5300  0.0320 -0.1599
   23MOL   C42811472   7.620   0.821   5.914 -0.2803 -0.5148  0.4884
   23MOL   C42911473   7.652   0.887   5.775 -0.8375 -0.2273  0.8847
   23MOL   C43011474   7.756   0.787   5.978  0.6052  0.1366 -0.0190
   23MOL   O43111475   7.785   0.816   6.094 -0.5182 -0.3201 -0.3537
   23MOL   O43211476   7.838   0.711   5.897 -0.0210 -0.1201 -0.0551
   23MOL   C43311477   7.962   0.665   5.954  0.1451 -0.3741 -0.3836
   23MOL   C43411478   7.944   0.539   6.034  0.2502  0.2359  0.1537
   23MOL   C43511479   7.951   0.550   6.175  0.7557 -0.7829 -0.7911
   23MOL   C43611480   7.942   0.436   6.254 -0.0966 -0.0499 -0.2458
   23MOL   C43711481   7.922   0.312   6.195 -0.5448 -0.7166  1.0087
   23MOL   C43811482   7.902   0.308   6.053 -0.1229 -0.5009 -0.7821
   23MOL   C43911483   7.903   0.422   5.977  0.8503 -0.1277 -0.8189
   23MOL   H44011484   7.485   0.698   5.804  0.4230 -0.8200 -1.0459
   23MOL   H44111485   7.619   0.613   5.842  1.2104  1.6611 -0.0071
   23MOL   H44211486   7.735   0.958   5.784 -1.2013  0.2596  0.4102
   23MOL   H44311487   7.560   0.921   5.727 -1.3725 -0.4021  1.7703
   23MOL   H44411488   7.699   0.823   5.701  2.4681 -1.4521  3.8599
   23MOL   H44511489   0.022   0.646   5.871  2.9592  1.0377  1.4932
   23MOL   H44611490   0.001   0.730   6.029  0.5065  0.2342 -1.1299
   23MOL   H44711491   7.989   0.645   6.210  2.8654 -0.5733 -3.5118
   23MOL   H44811492   7.967   0.444   6.359 -0.5469  5.0741 -0.4472
   23MOL   H44911493   7.930   0.218   6.249  3.2343 -1.7574 -1.1458
   23MOL   H45011494   7.863   0.215   6.014 -0.5496 -0.8016  0.3410
   23MOL   H45111495   7.873   0.407   5.875 -0.3017 -0.3889 -0.4437
   23MOL   C45211496   7.533   0.921   6.001  0.7932 -0.3428 -1.0055
   23MOL   C45311497   7.548   1.079   6.017  0.1677  0.1973  0.4024
   23MOL   C45411498   7.441   1.118   6.113  0.1237 -0.3163 -0.5095
   23MOL   C45511499   7.531   1.150   5.886  0.0619 -0.0125 -0.6740
   23MOL   O45611500   7.621   1.222   5.838 -0.2090 -0.0043 -0.2363
   23MOL   O45711501   7.402   1.125   5.837  0.1696  0.0468  0.0575
   23MOL   C45811502   7.360   1.186   5.721  0.5221  0.1850 -0.0953
   23MOL   C45911503   7.210   1.212   5.728  0.0529  0.1103 -0.0588
   23MOL   C46011504   7.132   1.128   5.806  0.4779 -1.0405 -0.2489
   23MOL   C46111505   6.990   1.134   5.785 -0.5920 -0.6848  0.6373
   23MOL   C46211506   6.925   1.236   5.710 -0.8398  0.4126 -0.2502
   23MOL   C46311507   7.005   1.329   5.640  0.2740  0.2107 -0.5566
   23MOL   C46411508   7.148   1.316   5.645 -0.5940 -0.2615 -0.5506
   23MOL   H46511509   7.525   0.873   6.099 -2.1623 -0.5282 -1.3080
   23MOL   H46611510   7.435   0.910   5.955 -0.6015  0.3463  1.7084
   23MOL   H46711511   7.344   1.071   6.104  0.6764 -1.8021  1.0320
   23MOL   H46811512   7.408   1.221   6.121 -0.0290 -0.2723 -1.6339
   23MOL   H46911513   7.467   1.099   6.217 -0.9338  1.0502  0.0182
   23MOL   H47011514   7.407   1.283   5.712 -0.3654  0.5118 -1.2869
   23MOL   H47111515   7.382   1.124   5.634  0.4865  0.3716 -0.2358
   23MOL   H47211516   7.173   1.051   5.870 -1.1382 -2.2007 -0.5651
   23MOL   H47311517   6.923   1.071   5.842 -3.0366  1.2025 -0.0923
   23MOL   H47411518   6.817   1.238   5.707 -0.8303  2.9441  0.3457
   23MOL   H47511519   6.957   1.412   5.589 -0.8328 -1.0486 -1.6043
   23MOL   H47611520   7.206   1.384   5.584  1.2036 -0.1193  1.2763
   23MOL   C47711521   7.684   1.102   6.087 -0.1835 -0.8104  0.4148
   23MOL   C47811522   7.711   1.252   6.134  0.4615 -0.0975  0.3189
   23MOL   C47911523   7.838   1.308   6.070  0.0836 -0.9340  0.9595
   23MOL   C48011524   7.731   1.261   6.291 -0.2794 -0.4129  0.4442
   23MOL   O48111525   7.827   1.320   6.344  0.5027 -0.3143 -0.3424
   23MOL   O48211526   7.630   1.200   6.362  0.6566  0.0400  0.4120
   23MOL   C48311527   7.651   1.166   6.501 -0.3582  0.8020 -0.0332
   23MOL   C48411528   7.755   1.053   6.519 -0.3271 -0.1826  0.6552
   23MOL   C48511529   7.754   0.942   6.436  0.6398 -0.0269  0.3932
   23MOL   C48611530   7.858   0.847   6.453 -0.1232 -0.9345 -0.1488
   23MOL   C48711531   7.964   0.871   6.543  0.0420 -0.4319 -0.4035
   23MOL   C48811532   7.964   0.991   6.621 -0.0182 -0.0447 -0.8539
   23MOL   C48911533   7.857   1.076   6.612  0.4930  0.0792 -0.2324
   23MOL   H49011534   7.762   1.066   6.020  0.6981  0.3558  0.8040
   23MOL   H49111535   7.681   1.034   6.173 -0.9600  2.1050  2.7492
   23MOL   H49211536   7.823   1.318   5.962 -0.2514  0.9048  1.1550
   23MOL   H49311537   7.926   1.244   6.082  0.8564  0.2057  1.4274
   23MOL   H49411538   7.857   1.409   6.106  2.3894 -0.7584 -0.6451
   23MOL   H49511539   7.699   1.253   6.546  1.3473  1.0504 -2.2373
   23MOL   H49611540   7.555   1.138   6.545 -0.9635  1.8134 -0.7025
   23MOL   H49711541   7.671   0.927   6.368  2.9784 -0.7885 -2.3674
   23MOL   H49811542   7.874   0.762   6.387  0.0979 -0.8660 -0.1810
   23MOL   H49911543   0.036   0.799   6.557 -0.1619 -0.5951 -0.0955
   23MOL   H50011544   0.041   1.010   6.686  1.3058  0.6429 -2.7419
   23MOL   H50111545   7.850   1.166   6.671  0.7086  0.7302 -1.1798
   23MOL   H50211546   7.621   1.307   6.108  0.3690 -0.5270 -0.2733
   24MOL     C111547   4.455   4.447   1.991 -0.0379  0.6798 -0.2341
   24MOL     C211548   4.591   4.507   1.971 -0.9583 -0.5480  0.2262
   24MOL     C311549   4.694   4.384   1.984 -0.2606  0.1594  0.0976
   24MOL     C411550   4.630   4.601   2.087 -0.2254  0.4532 -0.0474
   24MOL     O511551   4.542   4.639   2.160  0.7430  0.3257 -0.0963
   24MOL     O611552   4.761   4.633   2.084  0.0788 -0.3395 -0.1631
   24MOL     C711553   4.808   4.727   2.174 -0.7546  0.0238  0.9164
   24MOL     C811554   4.959   4.735   2.175 -0.1412 -0.4568 -1.3122
   24MOL     C911555   5.019   4.863   2.190  0.3966 -0.2805  0.4215
   24MOL    C1011556   5.160   4.878   2.194  0.2666 -0.4825 -0.2242
   24MOL    C1111557   5.235   4.763   2.182  1.1413  0.2902  0.0941
   24MOL    C1211558   5.179   4.635   2.162 -0.7219 -0.2486 -0.7707
   24MOL    C1311559   5.039   4.622   2.152  0.2882 -0.3786  0.7244
   24MOL    H1411560   4.465   4.380   2.076  0.9927  0.9053 -0.1796
   24MOL    H1511561   4.363   4.503   2.010 -1.2471 -1.4500  0.4034
   24MOL    H1611562   4.675   4.303   1.915 -1.2499  0.2118  0.2990
   24MOL    H1711563   4.695   4.335   2.082  0.7745 -2.1521 -1.0522
   24MOL    H1811564   4.794   4.424   1.968 -0.6852  1.9449  1.5909
   24MOL    H1911565   4.758   4.821   2.150 -1.5436 -0.7367 -0.5213
   24MOL    H2011566   4.765   4.706   2.272  0.6185  0.9344  1.7304
   24MOL    H2111567   4.960   4.952   2.207  2.0859  0.9562 -0.1322
   24MOL    H2211568   5.208   4.972   2.218 -0.1506 -0.5888  1.0536
   24MOL    H2311569   5.341   4.779   2.191  0.7701  3.2119 -0.1530
   24MOL    H2411570   5.242   4.548   2.147  0.4373  0.4547  0.0425
   24MOL    H2511571   4.983   4.530   2.147  0.6331 -0.4870 -1.7266
   24MOL    H2611572   4.425   4.377   1.912  2.0916  1.2117 -1.5673
   24MOL    C2711573   4.612   4.572   1.827  0.7478 -0.0782  0.0404
   24MOL    C2811574   4.520   4.697   1.786 -0.2256 -0.2453 -0.4156
   24MOL    C2911575   4.530   4.810   1.892  0.8831 -0.0924  0.1346
   24MOL    C3011576   4.371   4.656   1.766 -0.5158  0.3808 -0.7594
   24MOL    O3111577   4.333   4.541   1.721  0.0852 -0.3769  0.0604
   24MOL    O3211578   4.287   4.763   1.784 -0.1361 -0.7278  0.1531
   24MOL    C3311579   4.151   4.756   1.745  0.4537  0.0881  0.2076
   24MOL    C3411580   4.132   4.769   1.591 -0.0326  0.2201  0.6260
   24MOL    C3511581   4.222   4.857   1.523 -0.1541 -0.1486  0.2448
   24MOL    C3611582   4.213   4.868   1.383 -0.3337 -0.7337  0.6087
   24MOL    C3711583   4.108   4.805   1.312  0.0433 -0.5169  0.5634
   24MOL    C3811584   4.013   4.728   1.390 -0.1515 -0.9244  0.5225
   24MOL    C3911585   4.030   4.707   1.527  0.0872 -0.0674  0.4177
   24MOL    H4011586   4.612   4.499   1.746  0.8527 -0.4048  0.3321
   24MOL    H4111587   4.716   4.608   1.828  0.9409 -0.6503  0.5895
   24MOL    H4211588   4.633   4.820   1.924  1.2025  1.6939 -1.3644
   24MOL    H4311589   4.468   4.801   1.981 -2.2296  1.3972 -1.7832
   24MOL    H4411590   4.499   4.910   1.861  0.6755  0.6324  2.5691
   24MOL    H4511591   4.116   4.658   1.778  1.5356  0.6615  3.2231
   24MOL    H4611592   4.103   4.837   1.800  0.0126 -0.9160  1.3241
   24MOL    H4711593   4.305   4.901   1.575  1.7066 -1.3117 -1.6592
   24MOL    H4811594   4.294   4.926   1.340 -1.9059 -0.6699 -2.4264
   24MOL    H4911595   4.102   4.813   1.204 -0.0471 -1.8787  0.4666
   24MOL    H5011596   3.934   4.681   1.334  0.2337 -1.7335  0.6416
   24MOL    H5111597   3.969   4.636   1.582  0.4492  0.3732  1.4084
   24MOL    C5211598   4.570   4.744   1.640 -0.4901  0.3227 -0.9027
   24MOL    C5311599   4.694   4.837   1.616  0.7529  0.0052  0.4066
   24MOL    C5411600   4.825   4.753   1.658 -0.0834 -0.2014  0.6274
   24MOL    C5511601   4.678   4.974   1.687 -0.6536 -0.4452  0.0474
   24MOL    O5611602   4.761   5.004   1.773  0.4933 -0.3775 -0.6202
   24MOL    O5711603   4.575   5.048   1.645 -0.6458 -0.1550 -0.0377
   24MOL    C5811604   4.559   5.177   1.710 -0.0064 -0.8410 -0.2744
   24MOL    C5911605   4.417   5.213   1.696  0.3831  0.1540  0.0663
   24MOL    C6011606   4.315   5.142   1.766 -0.2620  0.1370  0.2677
   24MOL    C6111607   4.176   5.178   1.755 -0.1008 -0.2842  0.0775
   24MOL    C6211608   4.141   5.288   1.676 -0.1788  0.1129  0.4088
   24MOL    C6311609   4.244   5.360   1.609 -0.1608 -0.5354  0.4634
   24MOL    C6411610   4.379   5.324   1.617 -0.1283  0.4993 -0.1436
   24MOL    H6511611   4.482   4.797   1.606 -1.5863  1.5718  3.4893
   24MOL    H6611612   4.582   4.649   1.588 -0.5489  0.3152 -0.9021
   24MOL    H6711613   4.921   4.794   1.625 -0.9630  1.7381  0.4383
   24MOL    H6811614   4.824   4.646   1.641  1.0975 -0.2102  0.5538
   24MOL    H6911615   4.839   4.759   1.766 -0.9470 -1.3552  0.8100
   24MOL    H7011616   4.584   5.178   1.816 -0.5639  0.2168 -0.1453
   24MOL    H7111617   4.632   5.245   1.666  0.7566 -1.2706  0.3044
   24MOL    H7211618   4.352   5.068   1.835  1.5514  2.3097  1.6946
   24MOL    H7311619   4.086   5.135   1.796 -2.0376  0.1886 -3.4740
   24MOL    H7411620   4.037   5.319   1.669  1.0249  4.0023 -2.9324
   24MOL    H7511621   4.224   5.451   1.554  0.2451 -0.0812  1.0681
   24MOL    H7611622   4.458   5.379   1.569 -0.4641  0.9745 -0.1662
   24MOL    C7711623   4.693   4.849   1.461 -0.0978 -0.3928 -0.9297
   24MOL    C7811624   4.752   4.969   1.373  0.7376 -1.1641 -0.2829
   24MOL    C7911625   4.894   5.004   1.428  0.6970 -0.2185  0.2353
   24MOL    C8011626   4.655   5.090   1.369  0.3691 -0.3557 -0.2609
   24MOL    O8111627   4.688   5.202   1.419 -0.1798 -0.0909  0.3088
   24MOL    O8211628   4.539   5.064   1.308 -0.1684  0.8732  0.2829
   24MOL    C8311629   4.447   5.175   1.296 -0.2000  0.2542 -0.2904
   24MOL    C8411630   4.329   5.148   1.205 -0.3771  0.0757  0.1616
   24MOL    C8511631   4.202   5.183   1.259  0.2009 -0.6152 -0.9127
   24MOL    C8611632   4.080   5.163   1.193  0.1462  0.4585 -0.3977
   24MOL    C8711633   4.087   5.134   1.055 -0.3070  0.2949 -0.1048
   24MOL    C8811634   4.214   5.111   0.997 -0.4577  0.4765  0.7787
   24MOL    C8911635   4.338   5.114   1.067  0.4333 -0.2616  0.6403
   24MOL    H9011636   4.590   4.844   1.426  0.0621 -2.5847 -1.1274
   24MOL    H9111637   4.724   4.753   1.421 -0.5642 -0.0877 -2.0429
   24MOL    H9211638   4.883   5.034   1.532 -2.4047 -2.2605  0.5633
   24MOL    H9311639   4.937   5.093   1.382  1.2640 -0.5628  0.0931
   24MOL    H9411640   4.968   4.925   1.439 -0.2828 -1.1229  0.3815
   24MOL    H9511641   4.411   5.189   1.398 -0.2692 -3.1291  0.2052
   24MOL    H9611642   4.500   5.262   1.257  0.9902 -0.4274 -0.2129
   24MOL    H9711643   4.194   5.199   1.365  1.6792 -0.8824 -0.7499
   24MOL    H9811644   3.983   5.187   1.234  0.2167  0.4604 -0.2337
   24MOL    H9911645   3.994   5.125   1.001 -0.0644  1.2504 -0.6849
   24MOL   H10011646   4.218   5.096   0.890  0.7667  3.2297  0.3885
   24MOL   H10111647   4.429   5.093   1.013  1.2074  0.9987  1.4422
   24MOL   C10211648   4.770   4.912   1.234  0.2089 -0.2330  0.0341
   24MOL   C10311649   4.852   4.978   1.112 -0.3938 -0.2467 -0.0574
   24MOL   C10411650   5.000   4.933   1.121  0.2890 -0.4279  0.0764
   24MOL   C10511651   4.855   5.131   1.121  0.3552  0.1921 -0.0815
   24MOL   O10611652   4.956   5.190   1.157 -0.1506 -0.5833  0.1729
   24MOL   O10711653   4.740   5.190   1.091 -0.0610  0.3803 -0.0953
   24MOL   C10811654   4.728   5.328   1.113  0.1950  0.0935 -0.5507
   24MOL   C10911655   4.617   5.402   1.042 -0.1925 -0.6417  0.6678
   24MOL   C11011656   4.562   5.354   0.921 -0.4310  0.0504  0.0051
   24MOL   C11111657   4.465   5.423   0.851  0.7259  0.0784  0.3681
   24MOL   C11211658   4.426   5.547   0.901  0.0854 -0.5385  0.8856
   24MOL   C11311659   4.472   5.594   1.024  0.3085 -0.2339  0.4680
   24MOL   C11411660   4.561   5.517   1.094  0.0489 -0.0579 -0.1523
   24MOL   H11511661   4.669   4.894   1.196  0.0169  2.0070 -0.5970
   24MOL   H11611662   4.810   4.811   1.236 -0.4038 -0.4660  0.8379
   24MOL   H11711663   5.038   4.940   1.223 -1.1809 -1.9470  0.7656
   24MOL   H11811664   5.070   4.978   1.051  1.4623  0.0188  1.5229
   24MOL   H11911665   5.004   4.827   1.095 -0.6760 -1.0146  2.1657
   24MOL   H12011666   4.724   5.352   1.219  0.9777 -0.5841 -0.3659
   24MOL   H12111667   4.826   5.371   1.092  1.2464 -2.6612 -1.4435
   24MOL   H12211668   4.601   5.262   0.879 -1.2750  0.7881 -2.4840
   24MOL   H12311669   4.427   5.388   0.756  1.5134  1.2172 -0.3797
   24MOL   H12411670   4.343   5.594   0.851 -0.1600 -2.0670 -0.1917
   24MOL   H12511671   4.442   5.686   1.070  2.2411  1.7246 -2.0374
   24MOL   H12611672   4.607   5.551   1.186  1.7820  0.2146 -1.1077
   24MOL   C12711673   4.795   4.938   0.974 -0.3536  0.1722  0.9371
   24MOL   C12811674   4.864   4.959   0.831  0.0454 -0.0045 -0.3932
   24MOL   C12911675   4.956   4.837   0.802 -0.2134 -1.2873 -0.0600
   24MOL   C13011676   4.931   5.104   0.826 -0.7190  0.3797  0.6470
   24MOL   O13111677   4.862   5.209   0.826 -0.8567 -0.0581  0.0492
   24MOL   O13211678   5.061   5.105   0.846 -1.1109  0.4306  0.1349
   24MOL   C13311679   5.132   5.222   0.881  0.5740 -0.6599 -0.6664
   24MOL   C13411680   5.223   5.268   0.762 -0.5408 -0.4699  0.4687
   24MOL   C13511681   5.204   5.213   0.632 -0.2983 -0.6133  0.1749
   24MOL   C13611682   5.278   5.261   0.527 -0.2350 -0.2550 -0.0901
   24MOL   C13711683   5.363   5.368   0.541  0.1175  0.0430  0.2995
   24MOL   C13811684   5.386   5.426   0.667 -0.5782 -0.1854 -0.2727
   24MOL   C13911685   5.311   5.379   0.776  0.1070  0.1859 -0.0312
   24MOL   H14011686   4.693   4.976   0.975 -0.1087  0.8840  0.0634
   24MOL   H14111687   4.769   4.833   0.984 -0.4343 -0.0192 -1.0496
   24MOL   H14211688   5.017   4.856   0.714 -1.1636  1.5757 -0.1603
   24MOL   H14311689   4.902   4.743   0.794 -0.0052 -1.2037 -2.9195
   24MOL   H14411690   5.034   4.824   0.878  0.9173 -1.1051 -1.1721
   24MOL   H14511691   5.060   5.301   0.905  0.1004 -0.3608 -2.8800
   24MOL   H14611692   5.186   5.200   0.972 -0.3490 -0.5846 -0.0929
   24MOL   H14711693   5.138   5.129   0.615 -0.2859 -1.1005  2.4016
   24MOL   H14811694   5.264   5.217   0.429  0.0687 -1.1590  0.2639
   24MOL   H14911695   5.417   5.409   0.457 -0.6205 -1.0964 -0.7362
   24MOL   H15011696   5.456   5.508   0.672  0.8705 -1.4353  0.3038
   24MOL   H15111697   5.328   5.426   0.872 -0.7872 -1.0217  0.7301
   24MOL   C15211698   4.738   4.956   0.732 -0.6396 -0.9532 -0.6251
   24MOL   C15311699   4.757   4.940   0.575  0.5457 -0.1567 -0.2223
   24MOL   C15411700   4.787   4.796   0.539 -0.1472 -0.2684  0.1944
   24MOL   C15511701   4.865   5.041   0.522 -0.3367 -0.1139  0.2506
   24MOL   O15611702   4.968   5.006   0.469 -0.7801 -0.4882  0.0142
   24MOL   O15711703   4.831   5.169   0.532  0.5399  0.2916  0.3288
   24MOL   C15811704   4.907   5.280   0.479 -0.3299  0.1268 -0.0032
   24MOL   C15911705   4.817   5.405   0.476  0.4154 -0.2330  0.1568
   24MOL   C16011706   4.776   5.468   0.593 -0.2631 -0.4944  0.1290
   24MOL   C16111707   4.691   5.579   0.597  0.2878 -0.3986 -0.1974
   24MOL   C16211708   4.643   5.622   0.478 -0.0891 -0.7930 -0.5984
   24MOL   C16311709   4.677   5.564   0.360  0.0649  0.1392  0.3721
   24MOL   C16411710   4.763   5.449   0.357  0.6041  0.5408  0.0202
   24MOL   H16511711   4.691   5.054   0.742  2.1663  0.3896 -0.0545
   24MOL   H16611712   4.673   4.879   0.773 -0.8367 -1.2781 -1.5494
   24MOL   H16711713   4.770   4.780   0.432  0.4235 -3.4369  0.5266
   24MOL   H16811714   4.715   4.737   0.595  0.8548 -2.6631 -0.9904
   24MOL   H16911715   4.885   4.750   0.544 -0.3128 -0.7333 -0.6953
   24MOL   H17011716   4.992   5.302   0.543  0.3476  2.4850 -1.6669
   24MOL   H17111717   4.956   5.255   0.385  0.8233  0.1009  0.5959
   24MOL   H17211718   4.805   5.426   0.689  0.5790  1.3649  0.7042
   24MOL   H17311719   4.662   5.621   0.693  2.4126  0.2665  0.1796
   24MOL   H17411720   4.563   5.694   0.475  2.7660  2.5330 -0.1721
   24MOL   H17511721   4.637   5.609   0.271  1.6676 -0.3334 -0.5992
   24MOL   H17611722   4.783   5.400   0.263 -0.6227  0.4423 -0.1957
   24MOL   C17711723   4.628   4.987   0.485 -0.6022 -0.4168 -0.1390
   24MOL   C17811724   4.480   4.942   0.519  1.1786 -0.2629 -0.6030
   24MOL   C17911725   4.437   4.992   0.663 -0.2823  0.0020  0.1108
   24MOL   C18011726   4.455   4.787   0.502 -0.3903  0.2411  0.4925
   24MOL   O18111727   4.393   4.714   0.581  0.5692 -0.6139  0.4184
   24MOL   O18211728   4.501   4.743   0.380  0.7288 -0.1256 -0.1319
   24MOL   C18311729   4.494   4.608   0.342  0.2598  0.4453 -0.1653
   24MOL   C18411730   4.632   4.547   0.348  0.6639 -0.2177  0.0357
   24MOL   C18511731   4.659   4.443   0.440  0.1924 -0.3737  0.1245
   24MOL   C18611732   4.791   4.400   0.458  0.1711 -0.3015 -0.1160
   24MOL   C18711733   4.899   4.446   0.380  0.2700 -0.2340 -0.1903
   24MOL   C18811734   4.862   4.541   0.276  0.2724  0.6834  0.1273
   24MOL   C18911735   4.731   4.590   0.262  0.5264  0.7759  0.6155
   24MOL   H19011736   4.648   4.985   0.378  2.3076  2.0058  0.2689
   24MOL   H19111737   4.617   5.095   0.494 -0.2939 -0.3299 -0.7864
   24MOL   H19211738   4.488   5.085   0.688 -1.4527  1.0115 -1.2010
   24MOL   H19311739   4.461   4.916   0.738  2.0548  2.2141  1.6815
   24MOL   H19411740   4.333   5.002   0.692 -0.4740  0.6278 -0.7540
   24MOL   H19511741   4.428   4.550   0.406  1.4293 -0.9855 -0.2147
   24MOL   H19611742   4.452   4.593   0.242  1.1254 -0.7620 -0.3663
   24MOL   H19711743   4.583   4.408   0.509  1.0975 -1.3340  0.6341
   24MOL   H19811744   4.791   4.330   0.540 -1.7426 -1.4905 -1.0689
   24MOL   H19911745   4.997   4.400   0.389  0.0969 -0.5122  0.2891
   24MOL   H20011746   4.939   4.578   0.211  0.1394  1.2575  0.2964
   24MOL   H20111747   4.712   4.666   0.187 -0.8531  0.6179  0.8056
   24MOL   C20211748   4.398   5.027   0.416 -0.4461 -0.4893  0.5870
   24MOL   C20311749   4.247   4.992   0.378  0.4446 -0.8170  0.5030
   24MOL   C20411750   4.165   4.964   0.511  0.5322 -0.5123 -0.2847
   24MOL   C20511751   4.249   4.871   0.273 -0.2480  0.9621 -0.1051
   24MOL   O20611752   4.332   4.865   0.182  0.3083  0.0680 -0.8098
   24MOL   O20711753   4.135   4.800   0.276 -0.1465  0.1209 -0.1139
   24MOL   C20811754   4.106   4.724   0.160 -0.6476 -0.0371 -0.5337
   24MOL   C20911755   4.027   4.595   0.184 -0.9971 -0.2993 -0.3651
   24MOL   C21011756   3.989   4.524   0.067  0.2430  0.1824 -0.0272
   24MOL   C21111757   3.919   4.401   0.075 -0.2632  0.0435  0.2399
   24MOL   C21211758   3.878   4.357   0.207 -0.4129 -0.3888 -0.4103
   24MOL   C21311759   3.924   4.420   0.321 -0.1879 -0.1258  0.5969
   24MOL   C21411760   4.000   4.538   0.311 -0.7400  0.4536 -0.3631
   24MOL   H21511761   4.452   5.031   0.321 -0.2859  1.0272  0.7272
   24MOL   H21611762   4.392   5.134   0.438 -0.2068  0.2904 -2.8366
   24MOL   H21711763   4.202   4.895   0.587 -3.0366 -0.2309  1.8222
   24MOL   H21811764   4.068   4.921   0.488 -0.3100  0.8826  0.6000
   24MOL   H21911765   4.152   5.061   0.560  0.8354 -0.6755  0.1305
   24MOL   H22011766   4.037   4.789   0.104  0.3290  1.4149 -0.0705
   24MOL   H22111767   4.191   4.691   0.101 -0.9810 -0.5878 -0.7169
   24MOL   H22211768   4.017   4.566   7.979 -0.9428  0.5537 -0.2198
   24MOL   H22311769   3.889   4.358   7.988 -0.4478 -0.5966  0.5877
   24MOL   H22411770   3.830   4.260   0.208  1.9694 -1.6143  1.0102
   24MOL   H22511771   3.901   4.373   0.415  2.2377 -1.4252  0.5807
   24MOL   H22611772   4.036   4.591   0.398  0.1415 -1.7333  0.6345
   24MOL   C22711773   4.203   5.123   0.297  0.0543 -0.3893 -0.2123
   24MOL   C22811774   4.065   5.153   0.228  0.2191  1.4049  0.4753
   24MOL   C22911775   3.947   5.127   0.328 -0.1162 -0.1910 -0.2018
   24MOL   C23011776   4.032   5.067   0.102  0.2170  0.3706  0.0830
   24MOL   O23111777   3.920   5.020   0.078  0.5671  0.2322 -0.9927
   24MOL   O23211778   4.129   5.064   0.009  0.0866 -0.3839 -0.1360
   24MOL   C23311779   4.126   4.980   7.906 -0.5768 -0.5264  0.4698
   24MOL   C23411780   4.261   4.958   7.836  1.2770 -0.0486  0.0214
   24MOL   C23511781   4.315   4.830   7.833  0.0914  0.6783  0.2739
   24MOL   C23611782   4.421   4.805   7.750 -0.2150  0.1236 -0.5022
   24MOL   C23711783   4.485   4.913   7.685  0.3584  0.2864 -0.3125
   24MOL   C23811784   4.430   5.040   7.692  0.2776 -0.6596  0.3286
   24MOL   C23911785   4.320   5.063   7.774  0.0950  0.4803 -0.2134
   24MOL   H24011786   4.278   5.151   0.223  0.5408  2.0083  1.1050
   24MOL   H24111787   4.227   5.204   0.367  1.8511  0.0345 -1.2753
   24MOL   H24211788   3.954   5.200   0.408 -1.6224  0.0222 -0.2555
   24MOL   H24311789   3.925   5.025   0.356 -0.7609  0.3834  1.3884
   24MOL   H24411790   3.851   5.165   0.295  0.5256  1.6623  0.0118
   24MOL   H24511791   4.098   4.883   7.947 -0.1712 -1.5499 -1.6115
   24MOL   H24611792   4.051   5.020   7.837 -0.6299  2.1920  2.0369
   24MOL   H24711793   4.266   4.751   7.888  0.5904  2.1944  2.9804
   24MOL   H24811794   4.463   4.708   7.728  1.4705  0.2503  2.0759
   24MOL   H24911795   4.560   4.883   7.613  0.4026 -1.4115  0.4013
   24MOL   H25011796   4.472   5.124   7.639  0.1783 -0.3453  0.7469
   24MOL   H25111797   4.265   5.156   7.774 -1.1015 -0.2025  2.2165
   24MOL   C25211798   4.032   5.302   0.192  0.9426 -0.3257 -0.7509
   24MOL   C25311799   4.137   5.403   0.139  0.9228  0.1244  0.0222
   24MOL   C25411800   4.218   5.354   0.010 -0.5235  0.1387 -0.3731
   24MOL   C25511801   4.229   5.439   0.253 -0.6745  0.0707  0.0575
   24MOL   O25611802   4.353   5.426   0.242  0.4070 -0.3424 -0.0619
   24MOL   O25711803   4.164   5.480   0.363 -0.2884  0.0069 -0.4534
   24MOL   C25811804   4.232   5.515   0.472  0.3845  0.4754 -0.1478
   24MOL   C25911805   4.144   5.507   0.597  0.1452  0.3210  0.5471
   24MOL   C26011806   4.092   5.379   0.624 -0.1668  1.1858  0.7483
   24MOL   C26111807   4.008   5.360   0.737 -0.4747  0.3427  1.0392
   24MOL   C26211808   3.984   5.475   0.819 -0.5154  0.0088 -0.5797
   24MOL   C26311809   4.034   5.602   0.792 -0.0742  0.2745  0.7957
   24MOL   C26411810   4.106   5.623   0.671 -0.9007 -0.1875 -0.6442
   24MOL   H26511811   3.986   5.348   0.279  0.3393 -1.8393 -0.2590
   24MOL   H26611812   3.947   5.300   0.123 -0.4388  1.6135  0.8535
   24MOL   H26711813   4.160   5.322   7.931 -0.1249  1.3225 -1.0904
   24MOL   H26811814   4.284   5.272   0.037 -0.3767  1.1696  2.5621
   24MOL   H26911815   4.283   5.428   7.971  0.4908 -0.3773  0.2285
   24MOL   H27011816   4.314   5.451   0.505 -1.0927 -1.4304 -0.0210
   24MOL   H27111817   4.277   5.614   0.465  0.9258  0.3556  1.4447
   24MOL   H27211818   4.125   5.303   0.554 -0.6161  1.5829  0.1013
   24MOL   H27311819   3.983   5.260   0.769  1.9212 -0.5446  0.2547
   24MOL   H27411820   3.924   5.463   0.908 -0.0715  1.3161 -0.0852
   24MOL   H27511821   4.028   5.682   0.864  0.4115  0.9942  0.0448
   24MOL   H27611822   4.137   5.723   0.643  1.4549 -0.4175  1.0126
   24MOL   C27711823   4.053   5.527   0.099  0.4712  0.3193  0.1563
   24MOL   C27811824   4.109   5.680   0.083  0.2422 -0.3356  0.5574
   24MOL   C27911825   4.246   5.687   0.009  0.0868 -0.2633 -0.3856
   24MOL   C28011826   4.118   5.752   0.221  0.1286 -0.3492 -0.3136
   24MOL   O28111827   4.224   5.789   0.266 -0.0588 -0.3009 -0.2855
   24MOL   O28211828   3.992   5.760   0.279  0.2761 -0.3751  0.1780
   24MOL   C28311829   3.972   5.844   0.396  0.0443 -0.3943  0.2305
   24MOL   C28411830   3.823   5.845   0.442 -0.2206 -0.4405  0.2236
   24MOL   C28511831   3.726   5.933   0.376  0.3634  0.6479 -0.1125
   24MOL   C28611832   3.592   5.928   0.413  0.1255 -1.0084 -0.6970
   24MOL   C28711833   3.545   5.842   0.517 -0.1255 -0.4178 -0.6520
   24MOL   C28811834   3.647   5.759   0.576  0.1491 -0.0204 -0.1229
   24MOL   C28911835   3.779   5.755   0.536 -0.2497 -0.0510 -0.5183
   24MOL   H29011836   3.973   5.537   0.173  0.9447  0.0299  0.7107
   24MOL   H29111837   4.007   5.494   0.006  2.0355 -0.7512 -0.2507
   24MOL   H29211838   4.323   5.621   0.050 -0.0048 -0.3570 -0.3655
   24MOL   H29311839   4.297   5.783   0.003 -1.7831  0.6908 -1.5865
   24MOL   H29411840   4.230   5.647   7.916 -0.8452  0.4698 -0.5395
   24MOL   H29511841   4.038   5.805   0.474  1.0148 -3.2750 -1.9583
   24MOL   H29611842   4.016   5.940   0.367 -0.3664  0.1795  1.4535
   24MOL   H29711843   3.755   6.010   0.305 -0.3404  1.4149  0.4269
   24MOL   H29811844   3.516   5.991   0.368  0.6144 -0.9911 -1.5143
   24MOL   H29911845   3.442   5.832   0.545  0.1588  1.8536  1.4003
   24MOL   H30011846   3.618   5.697   0.660  3.6539  1.5851  2.4051
   24MOL   H30111847   3.852   5.689   0.580 -0.8638 -0.9830 -0.8810
   24MOL   C30211848   3.997   5.749   8.005 -0.5182 -0.0349 -0.6996
   24MOL   C30311849   4.006   5.881   7.927  0.5473 -0.4223 -0.1501
   24MOL   C30411850   3.866   5.908   7.864 -0.3398  0.0100  0.1773
   24MOL   C30511851   4.111   5.870   7.817  0.1856 -0.4766 -0.3736
   24MOL   O30611852   4.210   5.938   7.821 -0.1390 -0.3263  0.1060
   24MOL   O30711853   4.085   5.778   7.717  0.0806  0.0315  0.2136
   24MOL   C30811854   4.183   5.738   7.621  0.5205  0.3707 -0.3593
   24MOL   C30911855   4.171   5.816   7.492 -0.7560  0.3023 -0.1970
   24MOL   C31011856   4.108   5.761   7.381  0.2770  0.0717  1.0405
   24MOL   C31111857   4.076   5.832   7.264  0.4094 -0.2481 -0.0117
   24MOL   C31211858   4.121   5.967   7.260 -0.3676  0.0083 -0.9144
   24MOL   C31311859   4.207   6.018   7.362  0.6951 -0.1754 -0.6603
   24MOL   C31411860   4.239   5.939   7.476  0.4669 -0.0260 -0.0305
   24MOL   H31511861   3.914   5.757   0.068  2.2683  1.3851  2.5811
   24MOL   H31611862   3.957   5.678   7.932  4.9900 -1.4196 -2.5916
   24MOL   H31711863   3.832   5.820   7.809  0.8151 -1.0047  1.0536
   24MOL   H31811864   3.869   5.994   7.798  1.5954  1.2512  1.8538
   24MOL   H31911865   3.793   5.936   7.940 -1.0535  0.7130 -0.7488
   24MOL   H32011866   4.283   5.750   7.663  0.6863  2.4869 -1.3061
   24MOL   H32111867   4.178   5.632   7.597 -1.6044  0.4086 -0.1882
   24MOL   H32211868   4.054   5.669   7.398  1.4158 -0.7810  0.0630
   24MOL   H32311869   4.011   5.796   7.186  1.4565 -0.9275 -0.5791
   24MOL   H32411870   4.091   6.031   7.178  1.3759 -0.0983 -1.6600
   24MOL   H32511871   4.263   6.110   7.362  1.1712 -0.4642  0.0686
   24MOL   H32611872   4.312   5.969   7.549  1.3452 -0.2496 -0.8198
   24MOL   C32711873   4.030   6.000   0.031 -0.1856 -0.3596  0.5646
   24MOL   C32811874   3.999   6.155   0.011 -0.0224  0.3095 -0.0797
   24MOL   C32911875   4.051   6.191   7.877  0.1122  0.2397  0.3710
   24MOL   C33011876   4.079   6.220   0.121 -0.1585  0.2043  0.2093
   24MOL   O33111877   4.144   6.322   0.099 -0.2482 -0.2950 -0.1306
   24MOL   O33211878   4.047   6.167   0.241  0.1779 -0.0964 -0.1376
   24MOL   C33311879   4.123   6.205   0.352  0.9487  0.1499  0.6299
   24MOL   C33411880   4.086   6.341   0.407  0.7538  0.0281  0.4818
   24MOL   C33511881   4.173   6.458   0.394  0.3300 -0.0967  0.4180
   24MOL   C33611882   4.138   6.587   0.429  0.2973 -0.6038 -0.1865
   24MOL   C33711883   4.000   6.608   0.468  0.0581 -0.0616 -1.1256
   24MOL   C33811884   3.913   6.496   0.484 -0.1761  0.2430 -0.2754
   24MOL   C33911885   3.953   6.362   0.461  0.9552 -0.2062  0.0254
   24MOL   H34011886   4.125   5.973   0.078 -0.9140 -0.0524  2.2108
   24MOL   H34111887   3.969   5.967   0.115 -0.4696  0.1865  0.5701
   24MOL   H34211888   4.015   6.131   7.794  1.7534 -1.6326  0.9776
   24MOL   H34311889   4.159   6.186   7.870  0.0291  1.3951 -2.3604
   24MOL   H34411890   4.026   6.294   7.852  3.4688  0.4372 -2.5255
   24MOL   H34511891   4.118   6.136   0.436 -2.2069  1.8909  1.9945
   24MOL   H34611892   4.228   6.204   0.324  1.8220  2.6996  3.4304
   24MOL   H34711893   4.266   6.440   0.342  1.6512 -1.8532  3.2440
   24MOL   H34811894   4.208   6.667   0.410  2.1037 -2.5944 -2.3290
   24MOL   H34911895   3.959   6.708   0.473  1.0247  0.3266 -0.9906
   24MOL   H35011896   3.814   6.510   0.524  0.2598  2.7129  0.0086
   24MOL   H35111897   3.887   6.279   0.479  0.0687  0.7981  1.4762
   24MOL   C35211898   3.839   6.172   0.015 -0.8425 -1.2412  0.1458
   24MOL   C35311899   3.755   6.303   0.053  0.3512  1.1687 -0.1728
   24MOL   C35411900   3.771   6.327   0.208  1.3948  0.7572  0.4489
   24MOL   C35511901   3.613   6.264   0.019 -0.4499  0.1163 -0.2112
   24MOL   O35611902   3.538   6.207   0.101  0.1012  0.1630  0.7385
   24MOL   O35711903   3.583   6.292   7.900  0.2579 -0.1641 -0.1705
   24MOL   C35811904   3.453   6.280   7.848  0.5585  0.6321  0.0156
   24MOL   C35911905   3.455   6.259   7.700 -0.1742 -0.0213 -0.4574
   24MOL   C36011906   3.558   6.312   7.615 -0.0837  0.2339 -0.1778
   24MOL   C36111907   3.548   6.289   7.477  0.1542  0.1863 -0.9169
   24MOL   C36211908   3.431   6.235   7.423  0.2705  0.1475 -0.0250
   24MOL   C36311909   3.330   6.177   7.499  0.4947 -0.8082  0.1976
   24MOL   C36411910   3.343   6.196   7.637 -0.3585  0.5744  0.5163
   24MOL   H36511911   3.803   6.093   0.082  1.4619 -1.5407  1.0498
   24MOL   H36611912   3.804   6.139   7.924 -0.7839 -0.1932 -0.2267
   24MOL   H36711913   3.828   6.418   0.226 -2.7377  3.0465  2.4971
   24MOL   H36811914   3.803   6.240   0.265  1.2446 -0.8365 -1.8417
   24MOL   H36911915   3.673   6.333   0.254  0.7350  1.0455 -0.9724
   24MOL   H37011916   3.400   6.191   7.882  0.4111  0.6642 -0.1290
   24MOL   H37111917   3.391   6.363   7.882 -2.3003 -1.4210 -0.0166
   24MOL   H37211918   3.644   6.360   7.660 -0.7339  0.0950  1.2221
   24MOL   H37311919   3.631   6.317   7.414  4.1390  0.3607  4.1049
   24MOL   H37411920   3.424   6.231   7.315 -0.5261 -1.7789  0.0748
   24MOL   H37511921   3.238   6.139   7.457  0.3015 -1.1558  0.9273
   24MOL   H37611922   3.263   6.160   7.701  0.2117  0.3136  1.0960
   24MOL   C37711923   3.818   6.434   7.984  0.2959 -0.2351 -0.1754
   24MOL   C37811924   3.752   6.579   7.992 -0.5173 -0.7118  0.0118
   24MOL   C37911925   3.649   6.598   0.105  0.3826  0.8460 -0.8314
   24MOL   C38011926   3.680   6.602   7.856  0.1153  0.8859 -0.2989
   24MOL   O38111927   3.743   6.619   7.754 -0.1037  0.5213  0.0359
   24MOL   O38211928   3.542   6.601   7.866  0.0396 -0.2643 -0.6861
   24MOL   C38311929   3.469   6.646   7.753 -0.7262 -0.5386  0.2756
   24MOL   C38411930   3.327   6.664   7.779 -0.0085  0.7354 -0.6380
   24MOL   C38511931   3.235   6.621   7.684 -0.7383 -0.0189  0.4121
   24MOL   C38611932   3.100   6.648   7.712  0.2917  0.2491 -0.0320
   24MOL   C38711933   3.055   6.705   7.833 -0.6866  0.7933  0.5772
   24MOL   C38811934   3.145   6.737   7.933 -0.3805  0.5217  0.8070
   24MOL   C38911935   3.285   6.728   7.903  0.1355 -0.3363  0.4792
   24MOL   H39011936   3.841   6.401   7.883 -2.3158 -2.0477 -0.2274
   24MOL   H39111937   3.923   6.438   0.005 -0.3395 -3.0402  2.8680
   24MOL   H39211938   3.577   6.517   0.096  1.3059  0.0280 -0.9938
   24MOL   H39311939   3.596   6.693   0.098  0.7752  1.3214  1.8588
   24MOL   H39411940   3.696   6.584   0.203 -1.6620 -0.0706  0.0505
   24MOL   H39511941   3.526   6.734   7.721 -0.3980 -0.7903  0.1591
   24MOL   H39611942   3.490   6.591   7.661  0.6810  1.8375 -0.8921
   24MOL   H39711943   3.275   6.572   7.597  0.4457 -0.2476  1.0734
   24MOL   H39811944   3.029   6.611   7.640  0.2048 -1.1374  0.7522
   24MOL   H39911945   2.952   6.727   7.856 -1.7190 -1.1021 -1.9244
   24MOL   H40011946   3.109   6.782   0.017  0.9809  1.4946  0.8749
   24MOL   H40111947   3.363   6.753   7.974  0.2821 -0.6684  0.4345
   24MOL   C40211948   3.870   6.689   8.005  0.4870 -0.5522 -0.2053
   24MOL   C40311949   3.847   6.839   0.052 -0.0349 -0.2666  0.6849
   24MOL   C40411950   3.819   6.857   0.207  0.5597 -0.3795  0.1118
   24MOL   C40511951   3.717   6.904   7.993 -0.3098  0.2484  0.0820
   24MOL   O40611952   3.618   6.934   0.051 -0.2065  0.3104 -0.3213
   24MOL   O40711953   3.724   6.931   7.860 -0.4496  0.0747 -0.1647
   24MOL   C40811954   3.632   7.015   7.792  0.1689  0.8718 -1.0116
   24MOL   C40911955   3.679   7.055   7.653 -0.8204 -0.0931 -0.8086
   24MOL   C41011956   3.735   6.963   7.565  0.3086  0.4580  0.4704
   24MOL   C41111957   3.782   6.998   7.436 -0.0498 -0.2902  0.7576
   24MOL   C41211958   3.761   7.127   7.392 -0.1500  0.2053  0.6318
   24MOL   C41311959   3.707   7.225   7.475  0.2884 -0.7927 -0.6851
   24MOL   C41411960   3.668   7.184   7.606  0.7230 -0.6127 -0.5519
   24MOL   H41511961   3.922   6.694   7.909 -0.5033 -0.3257 -0.7400
   24MOL   H41611962   3.930   6.636   0.072 -0.2841 -1.7392 -0.4095
   24MOL   H41711963   3.813   6.963   0.234  3.3666 -0.6692  2.0020
   24MOL   H41811964   3.889   6.800   0.267  2.8426 -1.3499 -3.3393
   24MOL   H41911965   3.718   6.823   0.231 -0.3533  1.8739 -0.3906
   24MOL   H42011966   3.533   6.970   7.789 -0.6258  2.1259  3.2550
   24MOL   H42111967   3.623   7.104   7.855  0.1754  0.4470 -0.4041
   24MOL   H42211968   3.762   6.862   7.592  1.3281  0.2770 -1.1843
   24MOL   H42311969   3.838   6.926   7.378 -1.7646 -0.7051 -0.4133
   24MOL   H42411970   3.793   7.168   7.297  0.7565  0.2474  0.9541
   24MOL   H42511971   3.695   7.327   7.441  0.4316 -0.3967  0.4610
   24MOL   H42611972   3.620   7.256   7.671 -0.6648 -1.6265 -0.4271
   24MOL   C42711973   3.971   6.924   8.007  0.6940  0.5819 -0.5709
   24MOL   C42811974   4.112   6.924   0.072 -0.0682  0.6208 -0.1810
   24MOL   C42911975   4.153   6.780   0.118  0.9600  0.8285  0.7289
   24MOL   C43011976   4.111   7.020   0.189 -0.1453 -0.0714 -0.3639
   24MOL   O43111977   4.133   6.974   0.304  0.1879 -0.2823  0.3867
   24MOL   O43211978   4.073   7.146   0.161  0.7790  0.1771 -0.0189
   24MOL   C43311979   4.067   7.234   0.272 -0.0380  0.6246  0.3902
   24MOL   C43411980   3.928   7.241   0.327  1.0399  0.6214 -0.7842
   24MOL   C43511981   3.903   7.286   0.460  0.3980 -0.7383 -0.1869
   24MOL   C43611982   3.771   7.302   0.511  0.6851  0.0637 -1.1899
   24MOL   C43711983   3.661   7.273   0.429 -0.3357 -0.1421  0.0329
   24MOL   C43811984   3.678   7.235   0.298  0.4992  0.7901  0.3671
   24MOL   C43911985   3.813   7.227   0.243 -0.6165 -0.2423 -0.7594
   24MOL   H44011986   3.932   7.025   7.997 -1.4939 -0.1357  0.5175
   24MOL   H44111987   3.986   6.892   7.904 -1.9755  0.6264 -0.9977
   24MOL   H44211988   4.243   6.766   0.178  0.2435 -1.7746  1.2494
   24MOL   H44311989   4.152   6.709   0.035  0.3307  2.0515 -0.3416
   24MOL   H44411990   4.076   6.741   0.184  0.5097 -0.7124 -0.6778
   24MOL   H44511991   4.146   7.224   0.346 -0.6173 -0.9753  0.8168
   24MOL   H44611992   4.076   7.333   0.227 -0.2455 -0.4263 -2.0529
   24MOL   H44711993   3.989   7.317   0.517  0.9705 -1.6170 -0.5708
   24MOL   H44811994   3.766   7.331   0.615 -2.4531  0.4330 -1.4007
   24MOL   H44911995   3.561   7.275   0.470 -0.9480  2.1777 -1.4866
   24MOL   H45011996   3.587   7.209   0.246 -0.4659  1.7264  1.5656
   24MOL   H45111997   3.820   7.201   0.138 -0.1813 -2.1602 -0.2582
   24MOL   C45211998   4.218   6.984   7.973  0.2626 -0.1484  0.2075
   24MOL   C45311999   4.365   7.000   7.985 -0.2630 -0.6411 -0.4705
   24MOL   C45412000   4.444   6.870   0.010  0.5109  0.4314 -0.3635
   24MOL   C45512001   4.403   7.097   0.093  0.8694  0.5168  0.1287
   24MOL   O45612002   4.469   7.056   0.190 -0.1209  0.1813  0.1411
   24MOL   O45712003   4.359   7.221   0.065  0.0402 -0.3601  0.3627
   24MOL   C45812004   4.369   7.326   0.163  0.3857  0.1226  0.5041
   24MOL   C45912005   4.350   7.461   0.113 -0.1328 -0.5284 -0.1194
   24MOL   C46012006   4.257   7.488   0.013 -0.2188  0.0382 -0.1918
   24MOL   C46112007   4.255   7.618   7.966 -0.1794 -0.4527  0.3847
   24MOL   C46212008   4.327   7.722   0.021 -0.5588 -1.1146 -0.3831
   24MOL   C46312009   4.421   7.691   0.120  0.1219  0.2614  0.1433
   24MOL   C46412010   4.432   7.559   0.168  0.6991 -0.1456 -0.2536
   24MOL   H46512011   4.187   7.080   7.931  1.3831 -0.0310 -0.3680
   24MOL   H46612012   4.203   6.914   7.890 -1.6079 -0.9759  1.2114
   24MOL   H46712013   4.415   6.832   0.108 -0.1539  0.2168 -0.6405
   24MOL   H46812014   4.553   6.875   0.008  0.6763 -1.8632  0.9503
   24MOL   H46912015   4.412   6.788   7.954  0.0241  0.1373  0.2570
   24MOL   H47012016   4.309   7.304   0.251  1.0393  2.0635  1.4660
   24MOL   H47112017   4.472   7.325   0.200  0.3520 -0.0766  0.5896
   24MOL   H47212018   4.196   7.410   7.976 -0.4794 -0.8040  1.6065
   24MOL   H47312019   4.200   7.635   7.875 -0.8756 -0.6626  0.7566
   24MOL   H47412020   4.319   7.824   7.994  0.0187 -0.4339  1.4612
   24MOL   H47512021   4.493   7.767   0.147 -0.4921  1.4511 -1.4523
   24MOL   H47612022   4.501   7.537   0.248  0.8577  0.8144 -0.1159
   24MOL   C47712023   4.428   7.061   7.852  0.0123 -0.7217  0.2785
   24MOL   C47812024   4.413   6.982   7.714  0.1342  0.0856 -0.4840
   24MOL   C47912025   4.531   6.992   7.609  0.0146 -0.3035  0.0074
   24MOL   C48012026   4.288   7.016   7.632  0.0573 -0.3734 -0.1258
   24MOL   O48112027   4.209   6.927   7.599  0.3851 -0.1354  0.1481
   24MOL   O48212028   4.271   7.151   7.602  0.1684 -0.4403 -0.0859
   24MOL   C48312029   4.152   7.201   7.538  0.0256 -0.5868  0.5107
   24MOL   C48412030   4.069   7.285   7.634 -0.5370  0.3797  0.3969
   24MOL   C48512031   4.071   7.428   7.632 -1.0985 -0.5973 -0.2017
   24MOL   C48612032   4.004   7.498   7.733 -0.6598  0.1158  0.1128
   24MOL   C48712033   3.931   7.428   7.831  0.7782 -0.0313  0.8754
   24MOL   C48812034   3.921   7.285   7.826 -0.2466 -0.6062 -0.1803
   24MOL   C48912035   3.997   7.216   7.734  0.6984  0.0520 -0.2667
   24MOL   H49012036   4.536   7.057   7.866  0.4498  0.6186 -2.4376
   24MOL   H49112037   4.417   7.168   7.835  2.7637 -0.4578 -0.1438
   24MOL   H49212038   4.552   7.093   7.573  0.5369  0.2367  1.7480
   24MOL   H49312039   4.519   6.929   7.522 -2.8657  2.5718 -1.8218
   24MOL   H49412040   4.624   6.968   7.660 -0.5718  0.8874  1.7154
   24MOL   H49512041   4.186   7.267   7.459 -0.5408 -1.2175 -0.2626
   24MOL   H49612042   4.089   7.124   7.495 -0.1260 -0.5778  0.7137
   24MOL   H49712043   4.138   7.469   7.558  0.1202 -1.1923  0.5542
   24MOL   H49812044   4.016   7.605   7.747 -1.2957  0.2598 -0.4302
   24MOL   H49912045   3.884   7.478   7.914 -0.9168  3.3438 -1.9785
   24MOL   H50012046   3.858   7.232   7.896 -1.4453 -0.7865 -1.3667
   24MOL   H50112047   3.980   7.109   7.725 -0.0039 -0.0966  2.3845
   24MOL   H50212048   4.396   6.879   7.743 -2.4349  0.4316 -0.5623
   25MOL     C112049   0.067   1.783   4.648  0.0816 -0.9656 -0.1576
   25MOL     C212050   0.142   1.654   4.607 -0.1022 -0.3224 -0.2137
   25MOL     C312051   0.125   1.554   4.726 -0.9290  0.2938  0.4140
   25MOL     C412052   0.296   1.673   4.599  0.5633  0.0453 -0.1047
   25MOL     O512053   0.348   1.782   4.629  0.3732 -0.2851  0.4088
   25MOL     O612054   0.354   1.569   4.552  0.5204  0.1226  0.4488
   25MOL     C712055   0.499   1.559   4.530 -0.7701  0.2827  0.1597
   25MOL     C812056   0.571   1.498   4.647 -0.5341 -0.2810  0.1213
   25MOL     C912057   0.503   1.466   4.766 -0.0455  1.1311  0.6895
   25MOL    C1012058   0.570   1.412   4.874  0.0237  0.5798 -0.2296
   25MOL    C1112059   0.713   1.392   4.859  0.0412  0.4654  0.3192
   25MOL    C1212060   0.782   1.438   4.746  0.5346 -0.5439  0.3560
   25MOL    C1312061   0.710   1.488   4.634  0.7264 -0.8996  0.5673
   25MOL    H1412062   0.067   1.857   4.568  0.9009 -0.1825  0.5472
   25MOL    H1512063   7.969   1.764   4.668  0.1263  0.1163  1.1877
   25MOL    H1612064   0.020   1.557   4.753 -1.2947 -0.9107 -0.8149
   25MOL    H1712065   0.174   1.583   4.819  1.3930 -0.0209 -0.6649
   25MOL    H1812066   0.151   1.450   4.710 -0.0567 -0.0074  3.4667
   25MOL    H1912067   0.511   1.497   4.441  0.2860  0.7031 -0.0033
   25MOL    H2012068   0.533   1.663   4.524 -0.3807  0.1209 -0.4467
   25MOL    H2112069   0.397   1.485   4.766 -0.2243  0.1420 -0.3761
   25MOL    H2212070   0.521   1.392   4.968 -1.8305 -0.0845 -1.3046
   25MOL    H2312071   0.764   1.363   4.949 -1.2045  0.4121  1.0226
   25MOL    H2412072   0.889   1.426   4.742  0.6940  0.9847 -0.4674
   25MOL    H2512073   0.762   1.523   4.546  0.0958  2.1482  1.3603
   25MOL    H2612074   0.103   1.838   4.735  1.3968 -0.5983 -0.9154
   25MOL    C2712075   0.080   1.572   4.484  0.6423  0.4745  0.5670
   25MOL    C2812076   0.060   1.619   4.335  0.3492 -0.5477 -0.0614
   25MOL    C2912077   0.204   1.662   4.292 -0.7588 -0.1940 -0.0080
   25MOL    C3012078   7.972   1.744   4.333  0.1502  0.0348 -0.2691
   25MOL    O3112079   0.007   1.854   4.289 -0.3256  0.8030  0.0263
   25MOL    O3212080   7.853   1.726   4.400  0.5271  0.0080  0.1207
   25MOL    C3312081   7.784   1.842   4.444 -0.1882  0.3160 -1.0167
   25MOL    C3412082   7.681   1.817   4.543  0.4649 -0.2039 -0.0143
   25MOL    C3512083   7.683   1.886   4.665 -0.0896 -0.3343 -0.5501
   25MOL    C3612084   7.598   1.853   4.772 -0.1249 -0.4330 -0.6748
   25MOL    C3712085   7.504   1.748   4.749  0.6269 -0.7383 -0.3826
   25MOL    C3812086   7.497   1.679   4.629  0.1585  0.9972 -0.4675
   25MOL    C3912087   7.592   1.704   4.532 -0.6694 -0.3042 -0.0027
   25MOL    H4012088   7.988   1.539   4.515  1.0603 -1.1206  0.2195
   25MOL    H4112089   0.138   1.480   4.480 -1.8843 -1.0843 -1.7677
   25MOL    H4212090   0.266   1.733   4.346  0.0049 -0.3325 -0.6836
   25MOL    H4312091   0.215   1.708   4.194  1.6606 -1.3122 -0.2933
   25MOL    H4412092   0.266   1.573   4.301  0.3432  0.3931 -1.5120
   25MOL    H4512093   7.851   1.920   4.479  0.9357 -1.0914 -0.0183
   25MOL    H4612094   7.736   1.895   4.361  0.7366 -0.0905 -1.8265
   25MOL    H4712095   7.755   1.964   4.684 -1.3397  0.2542  1.8803
   25MOL    H4812096   7.595   1.915   4.860 -2.4845 -0.2988 -0.8112
   25MOL    H4912097   7.430   1.720   4.822  1.6433 -0.2815  0.8524
   25MOL    H5012098   7.427   1.597   4.627  0.9417  0.3326 -1.2562
   25MOL    H5112099   7.590   1.636   4.448  0.3406  1.3024 -1.3460
   25MOL    C5212100   7.993   1.503   4.249 -0.3581  0.2188 -0.4055
   25MOL    C5312101   7.930   1.524   4.103  0.3639 -0.2273 -0.0799
   25MOL    C5412102   0.013   1.628   4.023  0.8573 -0.5456 -0.2644
   25MOL    C5512103   7.778   1.572   4.108  0.2150 -0.1829 -0.2970
   25MOL    O5612104   7.706   1.546   4.205 -0.4508 -0.1813  0.7045
   25MOL    O5712105   7.724   1.634   3.998  0.2143 -0.0393  0.5563
   25MOL    C5812106   7.582   1.662   3.994  0.2958 -0.5496 -0.0356
   25MOL    C5912107   7.528   1.712   3.857  0.0598 -0.0644  0.3462
   25MOL    C6012108   7.411   1.795   3.851 -0.0468 -0.5878  0.0233
   25MOL    C6112109   7.366   1.848   3.724 -0.3796 -0.9730  0.7235
   25MOL    C6212110   7.429   1.813   3.603  0.3118  0.9234  0.5294
   25MOL    C6312111   7.537   1.716   3.614  0.4801 -0.4963 -0.0035
   25MOL    C6412112   7.595   1.682   3.738  0.2648  0.8043  0.2954
   25MOL    H6512113   7.915   1.479   4.321  0.2361  0.2598  0.2578
   25MOL    H6612114   0.060   1.423   4.240 -0.6302 -0.1298  0.4442
   25MOL    H6712115   8.000   1.629   3.916  2.4143  1.6008 -0.5657
   25MOL    H6812116   0.119   1.619   4.046  0.7972  1.4458  0.8455
   25MOL    H6912117   7.989   1.730   4.047 -0.5581 -1.3033  1.2846
   25MOL    H7012118   7.528   1.571   4.020  0.3519 -0.2630  1.1040
   25MOL    H7112119   7.553   1.732   4.072  1.1964  0.4935 -0.6192
   25MOL    H7212120   7.355   1.829   3.937 -0.7078  0.8824 -0.9657
   25MOL    H7312121   7.281   1.914   3.728 -0.4981 -1.1423  1.0555
   25MOL    H7412122   7.402   1.851   3.506  1.3031 -1.2698 -0.6557
   25MOL    H7512123   7.583   1.681   3.523 -0.4472 -1.6127 -0.0654
   25MOL    H7612124   7.688   1.627   3.743  0.3857  0.9404 -0.3790
   25MOL    C7712125   7.931   1.390   4.026 -0.0336 -0.4241  0.3629
   25MOL    C7812126   7.843   1.260   4.053 -0.7407 -0.2541 -0.2864
   25MOL    C7912127   7.911   1.159   3.965 -0.2955  0.0826 -0.3458
   25MOL    C8012128   7.703   1.290   3.993  0.1325  0.3669  0.3897
   25MOL    O8112129   7.605   1.317   4.069 -0.6300 -0.3312 -0.2382
   25MOL    O8212130   7.697   1.296   3.856 -0.4367  0.0022 -0.2677
   25MOL    C8312131   7.569   1.305   3.798 -0.3160 -0.2933 -0.5050
   25MOL    C8412132   7.573   1.270   3.647 -0.0008 -1.0623 -0.0685
   25MOL    C8512133   7.621   1.146   3.609 -0.7705  0.7757 -0.1838
   25MOL    C8612134   7.618   1.101   3.477 -0.4292 -0.1889 -0.0062
   25MOL    C8712135   7.565   1.192   3.382 -0.5123 -0.4140  0.4457
   25MOL    C8812136   7.507   1.322   3.420  0.2453  0.1677 -0.5411
   25MOL    C8912137   7.517   1.360   3.555  0.6437 -0.4756  0.2386
   25MOL    H9012138   0.028   1.358   4.032 -0.0520 -0.7946 -1.1021
   25MOL    H9112139   7.904   1.424   3.926 -1.4763 -0.1785  0.8291
   25MOL    H9212140   8.000   1.118   4.014 -0.5791 -0.1803 -0.0487
   25MOL    H9312141   7.941   1.187   3.864 -1.3633 -3.1271 -1.6066
   25MOL    H9412142   7.842   1.076   3.952 -0.5623 -0.3752  3.3199
   25MOL    H9512143   7.521   1.216   3.838  0.9811  0.0883  2.0221
   25MOL    H9612144   7.510   1.394   3.815 -0.8517 -0.8605  0.6448
   25MOL    H9712145   7.655   1.089   3.694  1.9282  1.1103 -0.9980
   25MOL    H9812146   7.664   1.015   3.432 -1.7993 -0.6812 -0.4991
   25MOL    H9912147   7.556   1.172   3.276  1.4808 -0.2638  0.2218
   25MOL   H10012148   7.464   1.393   3.350  0.3827 -0.4694 -1.2744
   25MOL   H10112149   7.479   1.458   3.582 -1.4172 -0.7731 -1.3972
   25MOL   C10212150   7.845   1.221   4.209 -0.3072  0.4783 -0.0733
   25MOL   C10312151   7.805   1.081   4.271  0.3554  0.0398  0.0341
   25MOL   C10412152   7.936   1.005   4.278  0.7096  0.2633  0.1237
   25MOL   C10512153   7.710   1.005   4.176 -0.2839 -0.9611 -0.3487
   25MOL   O10612154   7.742   0.908   4.117 -0.6412  0.0286  0.0173
   25MOL   O10712155   7.585   1.059   4.179 -0.3642 -0.6306  0.3004
   25MOL   C10812156   7.472   0.992   4.134  0.4503  0.0962  0.6739
   25MOL   C10912157   7.446   0.859   4.206  0.4789 -0.5480  0.0253
   25MOL   C11012158   7.459   0.852   4.345  0.4566  0.8682  0.0426
   25MOL   C11112159   7.454   0.721   4.404 -0.2791  0.0324  0.2213
   25MOL   C11212160   7.427   0.606   4.322  0.3123 -0.4621 -0.1009
   25MOL   C11312161   7.387   0.621   4.193 -0.0079 -0.6234 -0.0575
   25MOL   C11412162   7.398   0.750   4.137  0.6640 -0.0439 -0.1431
   25MOL   H11512163   7.778   1.288   4.263  1.2040  1.2748  0.8409
   25MOL   H11612164   7.944   1.250   4.244 -0.0446 -1.9379  1.2801
   25MOL   H11712165   0.005   1.051   4.341  3.7929 -1.1621 -2.3862
   25MOL   H11812166   7.986   0.990   4.182 -1.3818  0.7975 -1.0793
   25MOL   H11912167   7.914   0.906   4.316  0.6304  0.6394  1.0566
   25MOL   H12012168   7.401   1.073   4.151  1.0697  0.9738 -0.8924
   25MOL   H12112169   7.490   0.980   4.027  0.5241  0.2503  0.6685
   25MOL   H12212170   7.482   0.941   4.402 -2.2842  0.4791  1.8620
   25MOL   H12312171   7.469   0.712   4.511  1.6446 -0.3758 -0.0571
   25MOL   H12412172   7.433   0.507   4.363  0.2105 -0.8076 -0.9108
   25MOL   H12512173   7.347   0.541   4.133 -1.8347 -0.7324  1.2614
   25MOL   H12612174   7.377   0.761   4.032  1.3315  0.4465 -0.2314
   25MOL   C12712175   7.728   1.090   4.410 -0.9200  0.1510  0.6663
   25MOL   C12812176   7.788   1.147   4.542  0.4161  0.5027 -0.1959
   25MOL   C12912177   7.865   1.278   4.519  0.2274 -0.2788 -0.4241
   25MOL   C13012178   7.886   1.040   4.592  0.3867  0.1068 -0.1850
   25MOL   O13112179   7.999   1.068   4.618  0.2490  0.0288  0.1486
   25MOL   O13212180   7.832   0.921   4.606  0.7715  0.3598  0.2955
   25MOL   C13312181   7.898   0.815   4.664 -0.6668 -0.0309 -0.1581
   25MOL   C13412182   8.001   0.750   4.578 -0.3603  0.0534  0.8277
   25MOL   C13512183   7.970   0.670   4.462 -0.4725 -0.0780  0.1723
   25MOL   C13612184   0.054   0.605   4.382 -0.0254 -0.8560  0.8596
   25MOL   C13712185   0.192   0.611   4.421  0.2992  0.6931  0.3255
   25MOL   C13812186   0.224   0.689   4.530 -1.0498 -0.1348 -0.1433
   25MOL   C13912187   0.126   0.757   4.606  0.2766 -0.4262 -0.5212
   25MOL   H14012188   7.688   0.990   4.426  0.2018 -0.1948  1.2950
   25MOL   H14112189   7.650   1.158   4.374  0.6616  1.8898  0.4504
   25MOL   H14212190   7.910   1.325   4.606 -2.1303 -0.2998  0.8526
   25MOL   H14312191   7.805   1.355   4.470 -0.8501 -0.2483  0.9358
   25MOL   H14412192   7.951   1.260   4.454  1.8252 -0.1329  1.6220
   25MOL   H14512193   7.938   0.845   4.760  0.5880 -1.8605 -0.0707
   25MOL   H14612194   7.814   0.746   4.674  0.6080 -1.5417  0.3003
   25MOL   H14712195   7.867   0.670   4.429 -1.0813  0.0385  2.0399
   25MOL   H14812196   0.006   0.549   4.303  1.0026  0.3853 -0.6901
   25MOL   H14912197   0.269   0.559   4.366  1.0189 -0.5748  2.4409
   25MOL   H15012198   0.327   0.704   4.558 -1.3070  1.5373 -0.0615
   25MOL   H15112199   0.155   0.812   4.694 -1.4672  0.1113 -0.2689
   25MOL   C15212200   7.661   1.163   4.644  0.1974 -0.1421 -0.7081
   25MOL   C15312201   7.678   1.248   4.774  0.5692  0.0264 -0.0473
   25MOL   C15412202   7.654   1.396   4.737 -0.2688 -0.4233  0.2681
   25MOL   C15512203   7.804   1.219   4.851 -0.7856 -0.1715  0.1512
   25MOL   O15612204   7.880   1.310   4.879 -0.0255  0.4191  0.3078
   25MOL   O15712205   7.822   1.097   4.900  0.1192  0.5019  0.2079
   25MOL   C15812206   7.938   1.051   4.966 -0.8295 -1.0340  0.7271
   25MOL   C15912207   7.931   0.914   5.005 -0.4776  0.0830 -0.1201
   25MOL   C16012208   0.037   0.837   5.041  0.8393 -0.4669  0.3952
   25MOL   C16112209   0.023   0.709   5.083  0.3439 -0.5192  0.4837
   25MOL   C16212210   7.906   0.650   5.097 -0.2322  0.6007  0.1992
   25MOL   C16312211   7.788   0.721   5.069  0.7645  0.1979 -0.4612
   25MOL   C16412212   7.803   0.850   5.027  0.3980 -0.3805 -0.0564
   25MOL   H16512213   7.627   1.063   4.672  1.0007 -0.2547 -0.0840
   25MOL   H16612214   7.582   1.209   4.585 -1.6016  0.5663  2.1537
   25MOL   H16712215   7.581   1.405   4.656  0.7316 -3.8430 -1.1433
   25MOL   H16812216   7.740   1.437   4.683  0.2796 -0.7464  0.8900
   25MOL   H16912217   7.647   1.478   4.808  2.6334 -0.7206  0.9622
   25MOL   H17012218   0.018   1.066   4.903 -0.2734  0.9311  1.9146
   25MOL   H17112219   7.949   1.114   5.054  0.7733  0.2337 -0.3597
   25MOL   H17212220   0.137   0.873   5.024  0.3076  0.6061 -0.6409
   25MOL   H17312221   0.114   0.653   5.100  0.3148 -1.4932 -2.2856
   25MOL   H17412222   7.905   0.546   5.125 -1.5979  0.8118  0.9611
   25MOL   H17512223   7.690   0.677   5.078  1.7469 -1.7718  0.9500
   25MOL   H17612224   7.711   0.905   5.016 -0.4720 -1.8462 -0.1207
   25MOL   C17712225   7.551   1.210   4.864 -1.6573  0.0076  0.0004
   25MOL   C17812226   7.487   1.289   4.985  0.2089  0.3097 -0.3509
   25MOL   C17912227   7.379   1.383   4.922 -0.1908 -0.1293 -0.8581
   25MOL   C18012228   7.595   1.375   5.059 -0.3720 -0.3458 -0.6262
   25MOL   O18112229   7.608   1.501   5.042  0.2191  0.0145  0.0718
   25MOL   O18212230   7.674   1.301   5.135  0.0545  0.3734  0.1572
   25MOL   C18312231   7.802   1.347   5.182 -0.6060  1.0507  0.0617
   25MOL   C18412232   7.803   1.395   5.323 -0.4065 -0.3720  0.3041
   25MOL   C18512233   7.805   1.535   5.348 -1.1719 -0.1235 -1.2996
   25MOL   C18612234   7.789   1.584   5.476  0.5893  0.0698  0.2517
   25MOL   C18712235   7.780   1.495   5.585 -0.0086  0.2607 -0.0563
   25MOL   C18812236   7.786   1.356   5.561 -0.4874  0.4778 -0.0821
   25MOL   C18912237   7.790   1.309   5.430  0.9416  0.1522 -0.2029
   25MOL   H19012238   7.582   1.112   4.901  1.3808  0.6791 -0.6011
   25MOL   H19112239   7.469   1.180   4.799  0.2783 -0.7665 -2.1537
   25MOL   H19212240   7.287   1.328   4.905 -1.2556  1.6444 -0.9179
   25MOL   H19312241   7.409   1.429   4.828 -1.3551  0.8663 -0.7449
   25MOL   H19412242   7.347   1.460   4.992  1.5669 -0.8900  0.8465
   25MOL   H19512243   7.867   1.261   5.169 -0.4730  1.2473 -0.5967
   25MOL   H19612244   7.849   1.429   5.127 -2.6731  1.6226 -0.8685
   25MOL   H19712245   7.813   1.597   5.260 -1.9724  0.4200 -1.0012
   25MOL   H19812246   7.781   1.689   5.497  1.1109  0.1398  0.1051
   25MOL   H19912247   7.767   1.534   5.685 -1.0079 -0.6168  0.1671
   25MOL   H20012248   7.776   1.288   5.645 -2.1505 -0.0905 -0.7087
   25MOL   H20112249   7.791   1.205   5.401  0.9529 -0.1152  0.7365
   25MOL   C20212250   7.413   1.184   5.085  0.8429  0.0577  0.6500
   25MOL   C20312251   7.332   1.201   5.217 -0.4201  0.3946 -0.2127
   25MOL   C20412252   7.196   1.271   5.179 -0.2275 -0.1429 -0.0680
   25MOL   C20512253   7.401   1.297   5.320 -0.1998  0.8712 -0.4194
   25MOL   O20612254   7.447   1.258   5.429  0.3180 -0.3138  0.1556
   25MOL   O20712255   7.401   1.427   5.284 -0.0682 -0.4608 -0.7780
   25MOL   C20812256   7.462   1.524   5.375  0.2738  0.3483  0.3978
   25MOL   C20912257   7.362   1.596   5.455  0.3269 -0.2460 -0.3961
   25MOL   C21012258   7.258   1.665   5.393 -0.2132 -0.2880 -0.3914
   25MOL   C21112259   7.155   1.723   5.472  0.2568  0.3595 -0.5374
   25MOL   C21212260   7.167   1.723   5.609  0.4439  0.2740 -0.5555
   25MOL   C21312261   7.283   1.674   5.670 -0.0484 -0.7322 -0.2599
   25MOL   C21412262   7.377   1.600   5.597  0.3541  0.0318 -0.6420
   25MOL   H21512263   7.502   1.128   5.115 -0.7746 -3.2429 -0.4335
   25MOL   H21612264   7.357   1.115   5.021  2.1034  0.5647 -1.0441
   25MOL   H21712265   7.156   1.222   5.089 -0.1173  0.8186 -0.6481
   25MOL   H21812266   7.210   1.376   5.152  0.8953 -0.3525 -0.3283
   25MOL   H21912267   7.134   1.256   5.267  0.7870 -0.2762  0.6291
   25MOL   H22012268   7.539   1.475   5.434  1.4158  2.8776  1.0827
   25MOL   H22112269   7.511   1.604   5.320  2.8407 -0.2015  1.7845
   25MOL   H22212270   7.255   1.655   5.286 -1.6341 -1.3416 -0.2736
   25MOL   H22312271   7.070   1.766   5.420  0.8661 -0.2123 -2.0594
   25MOL   H22412272   7.094   1.771   5.673 -0.0061 -1.3972  0.2005
   25MOL   H22512273   7.291   1.695   5.776  0.5711 -1.6803 -0.1097
   25MOL   H22612274   7.465   1.560   5.646  0.8401  2.3753  0.4323
   25MOL   C22712275   7.297   1.061   5.284  0.5980 -0.1449 -0.2111
   25MOL   C22812276   7.393   0.933   5.288  0.2110  0.4635 -1.1141
   25MOL   C22912277   7.536   0.975   5.348  0.0117  0.6606  0.0345
   25MOL   C23012278   7.394   0.879   5.146 -0.1806 -0.4189 -0.3510
   25MOL   O23112279   7.498   0.860   5.091 -0.2765 -0.6356  0.2186
   25MOL   O23212280   7.271   0.859   5.102  0.8257 -0.5323  0.1248
   25MOL   C23312281   7.258   0.804   4.972  0.3828 -0.4135 -0.2120
   25MOL   C23412282   7.220   0.919   4.868  0.3378 -0.0992 -0.5988
   25MOL   C23512283   7.134   1.020   4.899  0.4832 -0.4674 -0.2555
   25MOL   C23612284   7.088   1.120   4.802  0.7385  0.0349  0.6090
   25MOL   C23712285   7.147   1.115   4.673  0.3135  0.3338  0.0969
   25MOL   C23812286   7.242   1.016   4.647  0.9719 -0.3646 -0.8400
   25MOL   C23912287   7.278   0.921   4.742  0.1096 -0.1519  0.1281
   25MOL   H24012288   7.199   1.033   5.245  0.2224  2.1794 -0.9948
   25MOL   H24112289   7.282   1.077   5.391 -2.2009 -0.5932 -0.5125
   25MOL   H24212290   7.581   1.057   5.292 -0.0786 -0.3120 -1.4940
   25MOL   H24312291   7.604   0.892   5.363  0.7913  1.1717 -0.6048
   25MOL   H24412292   7.512   1.021   5.444 -2.1224  1.8268 -1.0201
   25MOL   H24512293   7.337   0.734   4.946  0.0675 -0.7120 -0.3743
   25MOL   H24612294   7.172   0.737   4.967  0.7275 -0.8398 -0.4167
   25MOL   H24712295   7.083   1.020   4.994  1.3516  1.5630  0.2358
   25MOL   H24812296   7.022   1.202   4.829 -0.2833 -0.7027  0.3768
   25MOL   H24912297   7.123   1.179   4.589 -2.0243 -1.1588 -0.4037
   25MOL   H25012298   7.289   1.009   4.550  2.3386 -0.5575 -0.1748
   25MOL   H25112299   7.352   0.847   4.716  2.2030  1.5171  1.1836
   25MOL   C25212300   7.320   0.833   5.390  0.4009 -0.0842  0.5900
   25MOL   C25312301   7.343   0.678   5.397 -1.2137  0.2967  0.0025
   25MOL   C25412302   7.320   0.632   5.542  0.8212  0.0351 -0.0127
   25MOL   C25512303   7.492   0.639   5.363 -0.2531 -0.2528 -0.2867
   25MOL   O25612304   7.538   0.588   5.258  0.1658 -0.1708  0.1310
   25MOL   O25712305   7.565   0.657   5.467  0.0920  0.3261 -0.3204
   25MOL   C25812306   7.701   0.635   5.469  0.0296  0.2046 -0.3056
   25MOL   C25912307   7.744   0.502   5.529 -0.4147 -0.3847 -0.3587
   25MOL   C26012308   7.880   0.456   5.507 -0.0368  0.8493  0.8254
   25MOL   C26112309   7.926   0.333   5.560 -0.2600 -0.5874 -0.2882
   25MOL   C26212310   7.840   0.257   5.633  0.4140  0.4326 -0.6196
   25MOL   C26312311   7.710   0.300   5.665  0.4112 -0.0963  0.7247
   25MOL   C26412312   7.662   0.422   5.616 -0.2277  0.5482 -0.2872
   25MOL   H26512313   7.213   0.855   5.393  0.0064 -1.8060 -0.0557
   25MOL   H26612314   7.347   0.868   5.489  1.0033  0.0651  0.3766
   25MOL   H26712315   7.230   0.677   5.584  0.8815  0.3473 -0.2210
   25MOL   H26812316   7.390   0.656   5.622 -0.6604  0.9347  1.0441
   25MOL   H26912317   7.322   0.523   5.547 -1.8562 -0.0846 -0.7802
   25MOL   H27012318   7.731   0.658   5.366  1.0781  0.3019  0.0173
   25MOL   H27112319   7.760   0.698   5.536  1.4528 -1.2542 -0.1571
   25MOL   H27212320   7.946   0.526   5.458  2.5170 -0.8070  1.8069
   25MOL   H27312321   0.022   0.302   5.560  0.5140  1.8166  0.1918
   25MOL   H27412322   7.884   0.164   5.665  2.1901  1.4624 -0.0168
   25MOL   H27512323   7.648   0.233   5.724 -2.0944 -1.3541 -3.1776
   25MOL   H27612324   7.563   0.455   5.645 -1.2575 -2.6345  0.0560
   25MOL   C27712325   7.239   0.610   5.294  0.0387  0.0850  0.0415
   25MOL   C27812326   7.173   0.464   5.303  0.0296 -0.5450 -0.3170
   25MOL   C27912327   7.088   0.457   5.432  0.4130 -0.0087 -0.7362
   25MOL   C28012328   7.292   0.362   5.294 -0.2952  0.3195  0.9070
   25MOL   O28112329   7.321   0.282   5.382  0.1613 -0.2507  0.1255
   25MOL   O28212330   7.360   0.368   5.176  0.1184  0.0120 -0.3795
   25MOL   C28312331   7.466   0.277   5.139 -0.3144 -0.1958  0.5245
   25MOL   C28412332   7.525   0.316   5.006  0.3899 -0.1112  0.1392
   25MOL   C28512333   7.627   0.232   4.949 -0.3106 -0.0738  0.6186
   25MOL   C28612334   7.695   0.268   4.832 -0.1056 -0.9177  0.4327
   25MOL   C28712335   7.667   0.393   4.774  0.0616  0.2306 -0.1943
   25MOL   C28812336   7.560   0.477   4.830 -0.5298  0.0655  0.3427
   25MOL   C28912337   7.496   0.436   4.939  0.1786 -0.3034  0.1149
   25MOL   H29012338   7.289   0.621   5.198  2.8391 -2.0716  1.2102
   25MOL   H29112339   7.158   0.684   5.297 -0.6748 -0.7373  1.3473
   25MOL   H29212340   7.137   0.448   5.529 -1.7974 -1.7536  0.2564
   25MOL   H29312341   7.026   0.367   5.430  0.5815 -0.1190 -1.2050
   25MOL   H29412342   7.019   0.541   5.438  0.7126  0.1829  0.0374
   25MOL   H29512343   7.545   0.291   5.212 -0.6751  1.9718  0.5114
   25MOL   H29612344   7.421   0.179   5.157 -1.4479 -0.4228 -3.1919
   25MOL   H29712345   7.646   0.136   4.995 -2.5031 -0.7603  0.1472
   25MOL   H29812346   7.774   0.203   4.800  1.5569  0.5885  1.3737
   25MOL   H29912347   7.716   0.430   4.685 -0.1715 -0.1594 -0.4864
   25MOL   H30012348   7.543   0.574   4.786  0.1012 -0.3968 -0.9290
   25MOL   H30112349   7.425   0.505   4.983  0.8089  0.9677 -0.8234
   25MOL   C30212350   7.079   0.440   5.177  1.1685  0.4341 -0.2332
   25MOL   C30312351   6.961   0.339   5.167 -0.2166 -0.0924 -0.8787
   25MOL   C30412352   6.828   0.408   5.224 -0.1216 -1.3378 -0.3477
   25MOL   C30512353   7.000   0.208   5.229 -0.0709  0.1158 -0.3922
   25MOL   O30612354   6.934   0.161   5.325 -0.1208  0.0691 -0.6208
   25MOL   O30712355   7.106   0.144   5.170  0.0448 -0.5522  0.2860
   25MOL   C30812356   7.160   0.032   5.230 -0.7866 -0.6832  0.1980
   25MOL   C30912357   7.271   7.976   5.151  0.1388  0.0686 -0.4848
   25MOL   C31012358   7.272   7.992   5.013 -0.1147 -0.0984  0.7009
   25MOL   C31112359   7.379   7.939   4.939  0.3560  0.0857  0.3807
   25MOL   C31212360   7.484   7.878   5.004 -0.5155  0.4757  0.2473
   25MOL   C31312361   7.480   7.870   5.146 -0.3098  0.5254 -0.4119
   25MOL   C31412362   7.378   7.917   5.220  0.8171 -0.2834 -0.1205
   25MOL   H31512363   7.146   0.423   5.093 -0.3980  0.1361 -1.4370
   25MOL   H31612364   7.034   0.537   5.154 -0.1900 -0.4786 -1.4616
   25MOL   H31712365   6.798   0.497   5.170  0.7162 -0.7273  0.1748
   25MOL   H31812366   6.850   0.440   5.326 -1.0703 -0.0457 -0.5445
   25MOL   H31912367   6.745   0.338   5.217 -2.3652  0.9881  1.8070
   25MOL   H32012368   7.195   0.072   5.325 -0.9159 -0.2589  0.0707
   25MOL   H32112369   7.088   7.962   5.259  0.1888 -1.8844 -0.5463
   25MOL   H32212370   7.183   0.021   4.963 -0.2565  0.0238  1.0421
   25MOL   H32312371   7.385   7.959   4.833  3.0690  0.1170  0.5067
   25MOL   H32412372   7.567   7.840   4.946 -0.9790 -1.7388  1.0044
   25MOL   H32512373   7.556   7.823   5.207 -1.0979  0.3907  0.4871
   25MOL   H32612374   7.366   7.921   5.328 -1.5333 -0.0336 -0.3679
   25MOL   C32712375   6.936   0.295   5.011  0.5270  0.9062  0.3633
   25MOL   C32812376   6.897   0.396   4.899 -0.2986  0.3645 -0.1214
   25MOL   C32912377   6.983   0.522   4.897  0.7197 -0.0000  0.7871
   25MOL   C33012378   6.747   0.444   4.894 -0.1969 -0.9675 -0.1401
   25MOL   O33112379   6.666   0.402   4.974  0.4561 -0.7636  0.0657
   25MOL   O33212380   6.717   0.522   4.798  0.4231 -0.0215  1.0327
   25MOL   C33312381   6.581   0.549   4.770  1.2532 -0.2136 -0.5029
   25MOL   C33412382   6.555   0.590   4.625 -0.2521  0.2243 -0.8671
   25MOL   C33512383   6.435   0.652   4.592 -0.0256  0.0812 -0.5898
   25MOL   C33612384   6.403   0.681   4.462  0.5384 -0.6491 -0.2509
   25MOL   C33712385   6.499   0.656   4.360  0.3070 -0.2010 -0.0447
   25MOL   C33812386   6.625   0.600   4.393  0.2230 -0.2427  0.5878
   25MOL   C33912387   6.647   0.565   4.527  0.1513 -0.3352  0.4467
   25MOL   H34012388   6.882   0.200   5.002  2.1696 -0.0297  0.1905
   25MOL   H34112389   7.028   0.252   4.974 -0.6241 -1.0463 -0.3101
   25MOL   H34212390   6.972   0.586   4.809  1.9496 -1.8736 -0.7679
   25MOL   H34312391   7.090   0.505   4.904  0.8037  1.0730  2.2886
   25MOL   H34412392   6.962   0.596   4.974  0.8810 -1.2871  2.0782
   25MOL   H34512393   6.530   0.454   4.783 -0.6872  0.6726 -1.3837
   25MOL   H34612394   6.526   0.614   4.837  0.2892 -1.7441  0.2137
   25MOL   H34712395   6.358   0.654   4.668  1.8552  1.2433  1.3628
   25MOL   H34812396   6.306   0.723   4.441  0.8359  0.6473  0.9256
   25MOL   H34912397   6.486   0.682   4.256 -3.7831 -1.2127  0.1350
   25MOL   H35012398   6.708   0.585   4.326 -1.3053 -2.8672 -0.7625
   25MOL   H35112399   6.747   0.534   4.555  0.5562 -0.3884 -1.0376
   25MOL   C35212400   6.919   0.326   4.750 -0.1212 -0.1550 -0.4294
   25MOL   C35312401   6.857   0.190   4.704  0.5434  0.4467 -0.4149
   25MOL   C35412402   6.712   0.168   4.751  0.1851 -0.6468 -0.4411
   25MOL   C35512403   6.951   0.076   4.757 -0.1792 -0.4042  0.4799
   25MOL   O35612404   7.074   0.080   4.736  0.8582  0.0394 -0.1328
   25MOL   O35712405   6.889   7.983   4.816 -0.7134  0.2356 -0.1508
   25MOL   C35812406   6.962   7.865   4.840  0.3727 -0.2885 -0.6333
   25MOL   C35912407   6.899   7.785   4.956  0.0749  0.2675  0.4859
   25MOL   C36012408   6.885   7.648   4.939 -0.6259  0.3760 -0.1641
   25MOL   C36112409   6.839   7.569   5.043  0.2980  0.0822 -0.3461
   25MOL   C36212410   6.821   7.631   5.168  0.1532 -0.0418  0.2323
   25MOL   C36312411   6.845   7.764   5.191  0.4127  0.7599  0.2801
   25MOL   C36412412   6.863   7.847   5.079 -0.7956  0.1108 -0.2274
   25MOL   H36512413   7.026   0.324   4.730 -0.3807 -1.8930 -1.7806
   25MOL   H36612414   6.886   0.398   4.675  0.4259 -1.1500 -1.6362
   25MOL   H36712415   6.640   0.241   4.714  0.0614  0.6702  2.2690
   25MOL   H36812416   6.693   0.161   4.858  0.1689 -2.8116 -0.5628
   25MOL   H36912417   6.669   0.078   4.707  0.0804 -1.5306  1.4295
   25MOL   H37012418   6.974   7.789   4.763  1.0850 -0.0168 -0.8000
   25MOL   H37112419   7.061   7.899   4.871 -0.5357  1.1094  0.8758
   25MOL   H37212420   6.916   7.599   4.848 -1.3283  2.4199 -1.5518
   25MOL   H37312421   6.820   7.463   5.038  2.0462 -0.2662  0.0869
   25MOL   H37412422   6.794   7.569   5.253  0.7109 -0.7434 -0.0941
   25MOL   H37512423   6.851   7.800   5.293  0.1846  0.1866  0.4925
   25MOL   H37612424   6.889   7.952   5.081  0.4585 -0.2021  0.4190
   25MOL   C37712425   6.848   0.206   4.548 -0.1346  0.4079  0.7312
   25MOL   C37812426   6.833   0.091   4.443 -0.3989 -0.7151  0.5929
   25MOL   C37912427   6.725   7.992   4.486  0.0033 -0.3040 -0.0719
   25MOL   C38012428   6.969   0.016   4.425  0.2150  0.8293 -0.0146
   25MOL   O38112429   6.985   7.906   4.463 -0.8330  0.4864 -0.2623
   25MOL   O38212430   7.063   0.090   4.367  0.5023 -0.4688 -0.1494
   25MOL   C38312431   7.191   0.028   4.345 -0.2039  0.7354  0.4733
   25MOL   C38412432   7.308   0.108   4.389  0.4715  0.1947 -0.1877
   25MOL   C38512433   7.304   0.174   4.512 -0.6615 -0.0501  0.1513
   25MOL   C38612434   7.413   0.250   4.557  0.2678  0.5748 -0.0202
   25MOL   C38712435   7.529   0.249   4.483 -0.0773  0.3541 -0.0576
   25MOL   C38812436   7.534   0.187   4.358 -0.3863 -0.0070 -0.2502
   25MOL   C38912437   7.423   0.114   4.313 -0.2719 -0.3411 -0.1169
   25MOL   H39012438   6.934   0.262   4.511  0.5272 -1.2972 -0.3991
   25MOL   H39112439   6.775   0.285   4.530 -1.1838 -0.6682  0.1275
   25MOL   H39212440   6.718   7.912   4.413 -0.4240  0.0840 -0.4580
   25MOL   H39312441   6.621   0.012   4.502 -0.0039  0.2581 -1.0400
   25MOL   H39412442   6.764   7.949   4.578  3.2739  1.6148 -0.4785
   25MOL   H39512443   7.209   7.947   4.407 -1.4337  1.0839  1.3402
   25MOL   H39612444   7.193   7.997   4.243  2.0697 -0.3255  0.8836
   25MOL   H39712445   7.217   0.168   4.577  0.3410 -2.2493  1.3706
   25MOL   H39812446   7.409   0.303   4.651 -0.1038 -0.9243  0.8234
   25MOL   H39912447   7.611   0.311   4.515 -0.7289  1.1693  0.0636
   25MOL   H40012448   7.621   0.179   4.295 -0.1773 -0.6493  0.1178
   25MOL   H40112449   7.426   0.053   4.224 -2.6762 -1.1686  0.3155
   25MOL   C40212450   6.791   0.139   4.300  0.8500 -0.7031  0.2448
   25MOL   C40312451   6.636   0.179   4.262 -0.6287  0.6124  0.4011
   25MOL   C40412452   6.557   0.251   4.379 -0.0683 -0.2881 -0.0222
   25MOL   C40512453   6.551   0.054   4.219  0.2576  0.4429 -0.2258
   25MOL   O40612454   6.597   7.949   4.194  0.0445  0.0944 -0.3507
   25MOL   O40712455   6.421   0.076   4.212  0.5689 -0.3979  0.3846
   25MOL   C40812456   6.338   7.978   4.178 -0.3628 -0.0022 -0.0251
   25MOL   C40912457   6.191   0.000   4.173  0.4426 -0.0054 -0.8127
   25MOL   C41012458   6.103   7.926   4.103  0.9408  0.1580 -0.0399
   25MOL   C41112459   5.966   7.963   4.088 -0.1398  0.3042  0.0575
   25MOL   C41212460   5.918   0.058   4.174 -0.4234  0.1244 -0.1815
   25MOL   C41312461   6.004   0.137   4.252 -0.1168  0.2559  0.8307
   25MOL   C41412462   6.141   0.109   4.251  0.7642 -0.1108 -0.8997
   25MOL   H41512463   6.836   0.068   4.230 -0.9155 -0.8367 -0.7830
   25MOL   H41612464   6.851   0.229   4.286  0.8643 -0.7449  0.0311
   25MOL   H41712465   6.550   0.195   4.472  0.2222  1.1109  0.8489
   25MOL   H41812466   6.453   0.275   4.355  0.3950  0.1825 -1.6795
   25MOL   H41912467   6.612   0.337   4.415  3.5367 -1.4057 -2.5520
   25MOL   H42012468   6.360   7.961   4.073 -0.3273  0.5122 -0.1023
   25MOL   H42112469   6.361   7.891   4.240 -1.6688  1.6360  2.8941
   25MOL   H42212470   6.132   7.845   4.037 -1.0140  0.1108 -0.8744
   25MOL   H42312471   5.893   7.912   4.027 -1.1717 -1.9897  3.1096
   25MOL   H42412472   5.814   0.088   4.179 -0.0424  1.2126  1.7740
   25MOL   H42512473   5.962   0.222   4.304  1.3582  1.3705  0.2154
   25MOL   H42612474   6.207   0.167   4.314  0.1744  0.3139 -0.6660
   25MOL   C42712475   6.633   0.289   4.145 -0.7939 -0.9493 -0.0668
   25MOL   C42812476   6.715   0.283   4.012  0.4275  0.4085 -0.1771
   25MOL   C42912477   6.712   0.142   3.948 -0.2680  0.0689  0.0309
   25MOL   C43012478   6.865   0.315   4.047 -0.5876  0.3304  0.5842
   25MOL   O43112479   6.953   0.236   4.018 -0.0838  0.2976  0.5002
   25MOL   O43212480   6.887   0.434   4.106  0.3056  0.1494 -0.1220
   25MOL   C43312481   7.016   0.458   4.151 -0.6797  0.3477 -0.4871
   25MOL   C43412482   7.017   0.541   4.277  0.0574 -0.6886 -0.2855
   25MOL   C43512483   7.083   0.498   4.395 -0.0261 -0.0187  0.0425
   25MOL   C43612484   7.074   0.574   4.513 -1.2761  0.6014 -0.7518
   25MOL   C43712485   7.000   0.694   4.516  0.4390 -0.2435 -0.3706
   25MOL   C43812486   6.931   0.739   4.394  0.2021  0.3605  0.4437
   25MOL   C43912487   6.940   0.661   4.277  0.3644  0.1918  0.4690
   25MOL   H44012488   6.662   0.382   4.194 -2.4722 -0.5980  0.2836
   25MOL   H44112489   6.531   0.302   4.110 -1.6532  1.2314  2.9762
   25MOL   H44212490   6.613   0.122   3.907  0.0087 -0.8222 -0.2205
   25MOL   H44312491   6.742   0.070   4.024  0.0840  2.2985  2.0781
   25MOL   H44412492   6.782   0.121   3.868 -1.1828 -0.7213 -0.5719
   25MOL   H44512493   7.064   0.364   4.177 -0.8356 -0.5216 -3.1617
   25MOL   H44612494   7.072   0.509   4.073  1.0443 -0.1445  0.4075
   25MOL   H44712495   7.138   0.405   4.388  0.5714  0.4278 -1.4630
   25MOL   H44812496   7.112   0.542   4.609 -2.2257  0.2401 -0.4945
   25MOL   H44912497   6.989   0.751   4.607  2.0800  2.3614 -1.7257
   25MOL   H45012498   6.872   0.829   4.397  2.0611  1.6077  0.4278
   25MOL   H45112499   6.888   0.695   4.188  1.2486  0.2632 -0.0235
   25MOL   C45212500   6.672   0.394   3.913 -0.0722  0.5169 -0.1646
   25MOL   C45312501   6.719   0.425   3.766  0.3969  0.3490 -0.3933
   25MOL   C45412502   6.647   0.552   3.705 -0.5781  0.1691  0.1877
   25MOL   C45512503   6.664   0.303   3.682 -0.1326  0.6412 -0.5120
   25MOL   O45612504   6.733   0.219   3.625 -0.2040 -0.2146 -0.4282
   25MOL   O45712505   6.528   0.297   3.677  0.1633  0.4895  0.7165
   25MOL   C45812506   6.465   0.205   3.595  0.7931  0.1925 -0.1949
   25MOL   C45912507   6.334   0.160   3.663 -0.9570  0.3130 -0.1604
   25MOL   C46012508   6.314   0.162   3.803  0.1424 -0.9002  0.0878
   25MOL   C46112509   6.191   0.127   3.859  0.0128 -0.1149 -0.5236
   25MOL   C46212510   6.094   0.063   3.780 -1.1306  0.5341  0.7163
   25MOL   C46312511   6.115   0.058   3.642 -0.3183  0.0489 -0.5353
   25MOL   C46412512   6.232   0.106   3.586  0.2967  0.5448  0.0040
   25MOL   H46512513   6.678   0.482   3.976 -1.5716 -1.7654  3.3600
   25MOL   H46612514   6.563   0.389   3.913 -0.1440  1.9594  0.8818
   25MOL   H46712515   6.539   0.548   3.722 -0.7328 -0.6646 -0.8898
   25MOL   H46812516   6.658   0.563   3.597  1.0172 -0.9853  0.2141
   25MOL   H46912517   6.670   0.650   3.748  0.7899  0.2331 -0.6676
   25MOL   H47012518   6.459   0.243   3.493 -0.9697  1.1010  0.2305
   25MOL   H47112519   6.528   0.117   3.589  1.6556  0.8434 -0.8553
   25MOL   H47212520   6.387   0.198   3.874  1.1881 -1.6312 -0.6130
   25MOL   H47312521   6.182   0.148   3.965  1.0174 -1.7848 -0.0849
   25MOL   H47412522   6.008   0.019   3.828 -0.7934 -2.1748 -1.0522
   25MOL   H47512523   6.041   0.018   3.574  1.5341 -0.5023 -2.2942
   25MOL   H47612524   6.249   0.096   3.480 -0.6483 -0.3124 -0.0731
   25MOL   C47712525   6.877   0.431   3.764  0.0541 -0.2682  0.1578
   25MOL   C47812526   6.953   0.451   3.634  0.1481 -0.5116 -0.2774
   25MOL   C47912527   7.100   0.406   3.639 -0.1283  0.6376 -0.5080
   25MOL   C48012528   6.943   0.591   3.570  0.0743 -0.7929 -0.0968
   25MOL   O48112529   6.911   0.686   3.640  0.1126  0.6846  0.3831
   25MOL   O48212530   6.958   0.592   3.435  0.4921 -0.4799 -0.4553
   25MOL   C48312531   6.925   0.708   3.353 -0.8843 -0.2263 -0.3916
   25MOL   C48412532   6.956   0.681   3.212  0.2937  0.0293  0.1565
   25MOL   C48512533   6.998   0.555   3.165 -0.1146 -0.0257  1.1307
   25MOL   C48612534   7.020   0.539   3.024 -0.5511  1.2016  0.0159
   25MOL   C48712535   6.998   0.644   2.935  0.0147 -0.1605  0.6981
   25MOL   C48812536   6.942   0.763   2.978  0.2766  0.3776 -0.1641
   25MOL   C48912537   6.932   0.784   3.118  0.3202 -0.1886 -0.3323
   25MOL   H49012538   6.911   0.332   3.794 -2.0681 -1.5687 -1.6056
   25MOL   H49112539   6.911   0.503   3.838 -2.9723  0.6087  0.7440
   25MOL   H49212540   7.145   0.440   3.546  0.0037  1.6253 -0.1007
   25MOL   H49312541   7.111   0.299   3.654  0.1888  0.8025  0.5091
   25MOL   H49412542   7.149   0.460   3.721 -0.1808 -0.4876  0.2761
   25MOL   H49512543   6.820   0.737   3.350 -0.5695  0.8650 -2.3114
   25MOL   H49612544   6.974   0.798   3.390 -2.4265 -0.3235  1.9992
   25MOL   H49712545   7.026   0.472   3.227  1.2688 -0.7161 -0.3777
   25MOL   H49812546   7.074   0.448   3.000 -2.5228 -0.3423  1.2508
   25MOL   H49912547   7.013   0.621   2.830 -1.7138 -0.9371  0.6075
   25MOL   H50012548   6.922   0.847   2.913  0.1831  0.4851  0.0044
   25MOL   H50112549   6.901   0.885   3.144  0.5630 -0.2061  0.0237
   25MOL   H50212550   6.909   0.382   3.563  0.7810 -0.7926 -0.4032
   26MOL     C112551   6.043   7.836   1.850  0.8101  0.4192 -0.0940
   26MOL     C212552   6.029   7.874   1.701 -0.1978  0.1568 -0.1407
   26MOL     C312553   5.978   0.018   1.693 -0.0280  0.4411 -0.1144
   26MOL     C412554   5.912   7.784   1.642 -0.3660 -0.3789  0.2661
   26MOL     O512555   5.860   7.696   1.708  0.1212 -0.0481  0.3738
   26MOL     O612556   5.895   7.805   1.504  0.0278  0.3373 -0.2945
   26MOL     C712557   5.800   7.721   1.436  0.0493  0.1123  1.0490
   26MOL     C812558   5.847   7.692   1.291 -0.5817  0.1903 -0.1401
   26MOL     C912559   5.827   7.786   1.190 -0.4333  0.8850  1.4759
   26MOL    C1012560   5.858   7.753   1.053  0.2259  0.7123  0.1779
   26MOL    C1112561   5.912   7.634   1.016 -0.3478 -0.0759 -1.0737
   26MOL    C1212562   5.945   7.543   1.124  0.0208 -0.3635  0.6272
   26MOL    C1312563   5.912   7.569   1.260 -0.2654  0.7273  0.4711
   26MOL    H1412564   6.052   7.733   1.883  0.7419  0.1277 -0.9814
   26MOL    H1512565   6.114   7.902   1.901  0.7574 -0.8527  1.6782
   26MOL    H1612566   5.903   0.038   1.770 -0.7368 -0.2171 -0.6282
   26MOL    H1712567   5.922   0.037   1.601 -0.8608 -1.3814  0.0015
   26MOL    H1812568   6.057   0.091   1.710  0.3651  0.0785 -0.3799
   26MOL    H1912569   5.790   7.620   1.477  0.0112 -0.8617 -1.2699
   26MOL    H2012570   5.700   7.764   1.434  0.2972  0.6708  0.5186
   26MOL    H2112571   5.774   7.877   1.216 -0.5126 -0.0126  4.6887
   26MOL    H2212572   5.829   7.832   0.985  2.9455  0.1838 -1.6891
   26MOL    H2312573   5.945   7.611   0.916 -0.1441 -1.4406 -0.7055
   26MOL    H2412574   6.000   7.455   1.098  1.8713  0.8192  0.4555
   26MOL    H2512575   5.945   7.503   1.339  1.1445  0.4321 -0.3541
   26MOL    H2612576   5.959   7.880   1.905  1.2649 -0.5131  1.3818
   26MOL    C2712577   6.169   7.856   1.632  0.7320  0.1911  0.3062
   26MOL    C2812578   6.246   7.717   1.614 -0.3351 -0.1564  0.1302
   26MOL    C2912579   6.173   7.630   1.507  0.5513  0.1782 -0.0180
   26MOL    C3012580   6.264   7.633   1.744 -0.7342  0.0754 -0.1786
   26MOL    O3112581   6.206   7.523   1.746 -0.1434  0.0719  0.3582
   26MOL    O3212582   6.339   7.690   1.845 -0.5355 -0.0265  0.2533
   26MOL    C3312583   6.352   7.621   1.960 -0.0427 -0.5157  0.8958
   26MOL    C3412584   6.449   7.683   2.053 -0.0109  0.2704 -0.0782
   26MOL    C3512585   6.515   7.610   2.148  0.9188  0.4244 -0.3874
   26MOL    C3612586   6.599   7.664   2.242 -0.5080 -0.3301  0.6772
   26MOL    C3712587   6.602   7.802   2.256 -0.4787  0.1110  0.1308
   26MOL    C3812588   6.520   7.883   2.175 -0.5584  0.1911 -0.2289
   26MOL    C3912589   6.460   7.823   2.067  0.4490  0.0944  0.1785
   26MOL    H4012590   6.240   7.916   1.689  1.7593 -0.2798 -0.4755
   26MOL    H4112591   6.149   7.902   1.536 -3.8954  0.1412  1.1248
   26MOL    H4212592   6.232   7.555   1.454 -0.7078 -1.1695  0.4264
   26MOL    H4312593   6.140   7.696   1.428 -0.6190  0.5930  0.8008
   26MOL    H4412594   6.087   7.575   1.547 -0.3423  2.7760  1.7688
   26MOL    H4512595   6.262   7.611   2.021  1.4403 -2.8233  2.8201
   26MOL    H4612596   6.394   7.522   1.943  1.2796 -0.2769  2.6437
   26MOL    H4712597   6.500   7.503   2.151  0.2533  0.5115 -0.6442
   26MOL    H4812598   6.655   7.601   2.310  0.1467 -1.3078 -0.7590
   26MOL    H4912599   6.647   7.838   2.347 -0.3592 -1.3335  0.6619
   26MOL    H5012600   6.510   7.988   2.194  3.1634  0.4454  0.6577
   26MOL    H5112601   6.407   7.881   1.993  0.2594 -1.9218 -1.3025
   26MOL    C5212602   6.393   7.761   1.561 -0.1054 -0.9550  0.1613
   26MOL    C5312603   6.495   7.654   1.492 -0.2234 -0.4256  0.0318
   26MOL    C5412604   6.614   7.746   1.467 -0.1105 -0.1084 -0.1181
   26MOL    C5512605   6.446   7.626   1.347  0.0856 -0.3277  0.1784
   26MOL    O5612606   6.414   7.512   1.305 -0.0517 -0.4659  0.2935
   26MOL    O5712607   6.439   7.737   1.278 -0.2616  0.1775 -0.2242
   26MOL    C5812608   6.384   7.743   1.146  0.0834  0.3774 -0.3919
   26MOL    C5912609   6.306   7.870   1.123 -0.1396 -0.3918  0.1676
   26MOL    C6012610   6.173   7.875   1.174 -0.9538  0.3767  0.4657
   26MOL    C6112611   6.104   7.997   1.183 -0.1775  0.2542  0.0990
   26MOL    C6212612   6.157   0.106   1.115 -0.6463  0.0378  0.0184
   26MOL    C6312613   6.281   0.097   1.047  0.8916 -0.7707  0.6312
   26MOL    C6412614   6.353   7.981   1.049  0.3616 -0.2893  0.5411
   26MOL    H6512615   6.449   7.801   1.646 -2.1156 -2.1404  2.0863
   26MOL    H6612616   6.367   7.844   1.495 -1.7341 -1.7345 -0.2188
   26MOL    H6712617   6.657   7.791   1.557 -1.5931 -1.1233  1.1222
   26MOL    H6812618   6.587   7.842   1.423 -2.6393 -1.7146 -2.2034
   26MOL    H6912619   6.687   7.720   1.390 -0.6523 -0.4459 -0.5146
   26MOL    H7012620   6.464   7.710   1.080 -1.8755 -1.1283 -2.1140
   26MOL    H7112621   6.302   7.671   1.135  0.2751  0.0055  0.5709
   26MOL    H7212622   6.128   7.785   1.214 -2.2308  0.9997  0.4579
   26MOL    H7312623   6.006   7.997   1.228  0.0524  0.1505  0.6040
   26MOL    H7412624   6.098   0.196   1.109  0.1233  0.5746  0.4143
   26MOL    H7512625   6.315   0.177   0.983  0.2260 -0.3649  0.7819
   26MOL    H7612626   6.450   7.989   1.001 -0.8426 -2.2716 -2.4025
   26MOL    C7712627   6.531   7.531   1.580  0.1092 -0.0862 -0.2535
   26MOL    C7812628   6.662   7.442   1.557  0.1245  0.4973 -0.3763
   26MOL    C7912629   6.665   7.395   1.411  0.3582 -0.0447  0.3174
   26MOL    C8012630   6.646   7.312   1.636  0.0166 -0.3293 -0.1491
   26MOL    O8112631   6.686   7.203   1.588 -0.1304 -0.3146  0.6071
   26MOL    O8212632   6.601   7.325   1.762  0.1533  0.0978 -0.2251
   26MOL    C8312633   6.616   7.212   1.849  0.2541  0.4700 -1.0088
   26MOL    C8412634   6.536   7.232   1.978  0.1914 -0.8116  0.2880
   26MOL    C8512635   6.597   7.232   2.107 -0.1674  0.7466 -0.4198
   26MOL    C8612636   6.515   7.240   2.226 -0.4536  0.2753  0.6740
   26MOL    C8712637   6.379   7.267   2.213  0.0363 -0.1481  0.4162
   26MOL    C8812638   6.327   7.283   2.087 -0.3273 -0.3195  0.9160
   26MOL    C8912639   6.402   7.266   1.974  0.2595  0.4876 -0.5894
   26MOL    H9012640   6.440   7.471   1.575 -0.8802  1.3626 -0.1052
   26MOL    H9112641   6.546   7.570   1.681  2.2180 -2.5865  0.4497
   26MOL    H9212642   6.657   7.477   1.339 -1.2792 -0.8739 -0.4841
   26MOL    H9312643   6.586   7.325   1.384  0.0476  1.1854 -2.0835
   26MOL    H9412644   6.757   7.343   1.384  2.3784  2.0438  2.9785
   26MOL    H9512645   6.587   7.116   1.807 -0.2691 -0.0038  0.4109
   26MOL    H9612646   6.719   7.202   1.885 -0.5850 -0.6100  1.1452
   26MOL    H9712647   6.704   7.218   2.117 -0.1652  1.2466  0.2843
   26MOL    H9812648   6.567   7.223   2.319  3.2256 -2.8025 -1.8184
   26MOL    H9912649   6.325   7.279   2.306  2.7996 -0.3517  2.0979
   26MOL   H10012650   6.222   7.306   2.077 -0.0585  0.4338 -0.1543
   26MOL   H10112651   6.359   7.275   1.875 -0.3866  0.9606 -0.2679
   26MOL   C10212652   6.794   7.522   1.592 -0.5636  0.2784  0.5071
   26MOL   C10312653   6.929   7.474   1.647  0.8346  0.1730  0.3502
   26MOL   C10412654   6.982   7.362   1.553  0.0624  1.0732 -0.0289
   26MOL   C10512655   6.903   7.423   1.789 -0.2242 -0.2665 -0.6154
   26MOL   O10612656   6.827   7.495   1.859  0.3101  0.1035  0.0883
   26MOL   O10712657   6.965   7.313   1.823 -0.2402  0.0823 -0.3661
   26MOL   C10812658   6.954   7.263   1.954 -0.0019 -0.1909  0.3335
   26MOL   C10912659   6.994   7.122   1.967 -0.5098  0.4516  0.0419
   26MOL   C11012660   7.028   7.078   2.096  0.2554 -0.2176 -0.5976
   26MOL   C11112661   7.073   6.947   2.115  0.2212 -0.1466 -0.0028
   26MOL   C11212662   7.081   6.866   2.000  0.1516  0.2848  0.1144
   26MOL   C11312663   7.031   6.902   1.871 -0.3420  0.1394 -0.1963
   26MOL   C11412664   6.981   7.032   1.858 -0.0163 -0.0154  0.2132
   26MOL   H11512665   6.768   7.609   1.652  1.2921  1.8889 -0.9699
   26MOL   H11612666   6.836   7.572   1.505  2.4249 -2.3355  0.3378
   26MOL   H11712667   7.086   7.341   1.578 -0.4547  0.0853  1.3719
   26MOL   H11812668   6.974   7.392   1.448 -0.2447  1.5046  0.1218
   26MOL   H11912669   6.938   7.262   1.560 -1.0502  1.5596 -0.1020
   26MOL   H12012670   7.030   7.318   2.011 -0.2778 -0.3815  0.8835
   26MOL   H12112671   6.856   7.278   1.999 -0.9864 -1.4489 -1.3795
   26MOL   H12212672   7.019   7.140   2.185  1.9082 -1.2211  0.2940
   26MOL   H12312673   7.094   6.912   2.215 -0.0656 -0.6006 -0.0942
   26MOL   H12412674   7.124   6.768   2.013  0.9430  0.6428  0.2081
   26MOL   H12512675   7.027   6.834   1.787 -0.8605  0.3555 -0.3492
   26MOL   H12612676   6.939   7.058   1.762  0.3425 -0.7740 -0.1550
   26MOL   C12712677   7.030   7.597   1.652  0.4035 -0.3297  0.7224
   26MOL   C12812678   7.157   7.608   1.748  1.5305 -0.0244  0.5421
   26MOL   C12912679   7.231   7.731   1.683  0.0509 -0.6238 -0.2581
   26MOL   C13012680   7.252   7.486   1.729  0.4039  0.3036 -0.8072
   26MOL   O13112681   7.277   7.407   1.818 -0.0375  0.0505  0.2116
   26MOL   O13212682   7.296   7.469   1.607 -0.2689 -0.1839 -0.1211
   26MOL   C13312683   7.393   7.370   1.569  0.4020  0.5057  0.2366
   26MOL   C13412684   7.329   7.241   1.508  0.4169  0.4492 -0.5208
   26MOL   C13512685   7.272   7.149   1.594 -0.4145 -0.3047  0.6618
   26MOL   C13612686   7.210   7.030   1.549 -0.3508  0.3590 -0.2521
   26MOL   C13712687   7.205   7.007   1.410 -0.2972 -0.5395 -0.1198
   26MOL   C13812688   7.262   7.104   1.322  0.4337  0.1901  0.4778
   26MOL   C13912689   7.328   7.215   1.374 -0.2300 -0.3654  0.8769
   26MOL   H14012690   6.965   7.683   1.671  0.3907 -0.5318  1.6244
   26MOL   H14112691   7.067   7.610   1.551 -0.0219  1.1813  0.7433
   26MOL   H14212692   7.307   7.758   1.757 -0.3447  0.1008 -0.1109
   26MOL   H14312693   7.153   7.805   1.664 -0.3197 -0.6618  1.0988
   26MOL   H14412694   7.277   7.699   1.590  1.1710 -1.8081  0.6955
   26MOL   H14512695   7.470   7.405   1.500  0.8268 -1.0492 -0.1011
   26MOL   H14612696   7.466   7.338   1.643  0.5139 -0.4808 -0.2956
   26MOL   H14712697   7.261   7.178   1.697 -2.9173  0.6443  0.1580
   26MOL   H14812698   7.156   6.970   1.621  0.3386  0.2209  0.1640
   26MOL   H14912699   7.167   6.916   1.367 -0.3487 -0.5379 -0.0758
   26MOL   H15012700   7.283   7.065   1.224  1.3616  0.3392  0.6157
   26MOL   H15112701   7.390   7.272   1.307 -1.1469 -0.8338 -0.3939
   26MOL   C15212702   7.105   7.641   1.894  0.0666  0.0453  0.2535
   26MOL   C15312703   7.204   7.698   2.005 -0.0263 -0.0347  0.0590
   26MOL   C15412704   7.218   7.854   2.007 -0.7825 -0.2859  0.3804
   26MOL   C15512705   7.345   7.627   2.005 -0.8174 -0.4852  0.1088
   26MOL   O15612706   7.443   7.671   1.951  0.1550 -0.4424 -0.2887
   26MOL   O15712707   7.356   7.515   2.078 -0.4869 -0.1385 -0.1998
   26MOL   C15812708   7.486   7.451   2.091  0.3889  0.0452 -0.9734
   26MOL   C15912709   7.474   7.317   2.164 -0.0958 -0.9637 -0.8533
   26MOL   C16012710   7.367   7.229   2.142 -0.1009 -0.1498  0.4566
   26MOL   C16112711   7.354   7.106   2.204 -0.2322  0.4034  0.7196
   26MOL   C16212712   7.467   7.065   2.282  0.5244 -0.1449  0.7275
   26MOL   C16312713   7.567   7.161   2.312 -0.6632 -0.0864 -0.0701
   26MOL   C16412714   7.580   7.281   2.250  0.1395  0.2331 -0.0735
   26MOL   H16512715   7.080   7.538   1.920 -0.0125 -1.0213 -3.7413
   26MOL   H16612716   7.010   7.693   1.883 -1.7322 -3.1095  0.4263
   26MOL   H16712717   7.170   7.920   2.080 -2.0749 -0.0160 -0.6850
   26MOL   H16812718   7.178   7.892   1.913  3.1882 -1.6656 -2.0013
   26MOL   H16912719   7.325   7.875   2.012 -1.0398  1.1071  0.3871
   26MOL   H17012720   7.533   7.428   1.996  0.0375 -2.0480 -0.6625
   26MOL   H17112721   7.552   7.515   2.148  0.9494 -1.9984  0.7490
   26MOL   H17212722   7.286   7.258   2.077 -0.1681 -2.8807 -0.7315
   26MOL   H17312723   7.273   7.035   2.201 -0.3280  0.3629  3.3366
   26MOL   H17412724   7.463   6.976   2.343 -1.9728  1.2166  2.6459
   26MOL   H17512725   7.631   7.144   2.398 -0.2078  0.6312 -0.2647
   26MOL   H17612726   7.659   7.351   2.271 -0.7932  1.5705 -0.9300
   26MOL   C17712727   7.134   7.662   2.143  0.3023 -0.3643  0.1507
   26MOL   C17812728   7.162   7.718   2.283 -0.1256 -1.0703 -0.7169
   26MOL   C17912729   7.044   7.809   2.324  0.0753  0.0403 -0.6262
   26MOL   C18012730   7.299   7.796   2.299  0.4641 -0.1625  0.9553
   26MOL   O18112731   7.307   7.917   2.306  0.0917  0.5628  0.1132
   26MOL   O18212732   7.407   7.707   2.288 -0.4638 -0.3468 -0.6539
   26MOL   C18312733   7.544   7.746   2.318 -0.1692 -1.3541  0.1658
   26MOL   C18412734   7.595   7.696   2.454  0.2866  0.2026  0.4247
   26MOL   C18512735   7.731   7.672   2.469  0.3644  0.6003 -0.3649
   26MOL   C18612736   7.785   7.645   2.594 -0.7814  0.2592 -0.0361
   26MOL   C18712737   7.708   7.646   2.709  0.1961  0.2505  0.1208
   26MOL   C18812738   7.574   7.682   2.695 -0.4719 -0.2442  0.0738
   26MOL   C18912739   7.519   7.706   2.570 -0.1160  0.0514 -0.7470
   26MOL   H19012740   7.124   7.554   2.145 -1.5849 -0.2356 -0.6470
   26MOL   H19112741   7.027   7.680   2.131 -0.1268 -2.5163  0.5896
   26MOL   H19212742   6.948   7.764   2.299 -0.5277  1.0280 -0.1184
   26MOL   H19312743   7.049   7.907   2.278  0.8530  0.7451  0.9179
   26MOL   H19412744   7.052   7.827   2.431 -0.1096  2.9594 -1.0788
   26MOL   H19512745   7.605   7.704   2.237  2.0022  1.0818  0.4962
   26MOL   H19612746   7.570   7.851   2.309  1.1256 -1.7081 -0.2275
   26MOL   H19712747   7.794   7.674   2.381 -0.9536  2.1083 -1.3092
   26MOL   H19812748   7.891   7.626   2.600 -1.1353 -1.6592  0.4448
   26MOL   H19912749   7.759   7.636   2.804  0.9535 -0.6778 -0.3719
   26MOL   H20012750   7.512   7.684   2.783  1.0071 -0.2051  1.1171
   26MOL   H20112751   7.413   7.724   2.565 -0.5085 -1.2357  1.8302
   26MOL   C20212752   7.169   7.600   2.389 -0.0941 -0.7896  0.0337
   26MOL   C20312753   7.055   7.505   2.454  0.1162 -0.6353  0.2238
   26MOL   C20412754   6.986   7.439   2.327 -0.1725 -0.1980  0.0715
   26MOL   C20512755   6.955   7.595   2.535  0.5000 -0.2271  0.0337
   26MOL   O20612756   6.833   7.605   2.511 -0.2523 -0.3237  0.5627
   26MOL   O20712757   7.012   7.652   2.637  0.1408  0.1376  0.1928
   26MOL   C20812758   6.951   7.752   2.710 -0.5167 -0.2663 -0.2880
   26MOL   C20912759   7.030   7.809   2.830  0.7989  0.2297  0.1765
   26MOL   C21012760   7.068   7.948   2.830  0.1504  0.8133  0.0326
   26MOL   C21112761   7.147   7.997   2.938 -1.1709 -0.5087  0.5452
   26MOL   C21212762   7.167   7.910   3.045 -0.6305  0.5310  0.8433
   26MOL   C21312763   7.120   7.778   3.051 -0.6318  0.1165  0.5962
   26MOL   C21412764   7.051   7.720   2.940 -0.6578 -0.2228 -0.8850
   26MOL   H21512765   7.231   7.636   2.470 -2.0343  2.8986 -0.0204
   26MOL   H21612766   7.227   7.523   2.338 -0.3126  0.0822 -1.5648
   26MOL   H21712767   6.901   7.372   2.344  0.9275 -1.7769 -0.4592
   26MOL   H21812768   7.059   7.385   2.267  0.0674  0.9535 -0.6816
   26MOL   H21912769   6.945   7.515   2.261  1.3654  1.6751  1.2405
   26MOL   H22012770   6.944   7.834   2.639 -2.3139  0.5342  0.7798
   26MOL   H22112771   6.847   7.723   2.723  0.0104 -1.7807  0.7527
   26MOL   H22212772   7.043   0.002   2.745 -1.0464  1.0923  0.5742
   26MOL   H22312773   7.180   0.093   2.943 -1.4790 -0.2722 -1.8764
   26MOL   H22412774   7.220   7.946   3.132  0.2765 -0.5823  0.7666
   26MOL   H22512775   7.154   7.720   3.136  1.4895 -0.2545 -0.4826
   26MOL   H22612776   7.020   7.616   2.940 -3.1756  0.4588  1.2594
   26MOL   C22712777   7.129   7.397   2.550  0.6054  0.2764 -0.2092
   26MOL   C22812778   7.077   7.253   2.580  0.6099 -0.4690 -0.4466
   26MOL   C22912779   7.135   7.162   2.468 -0.1545 -0.1552  0.1297
   26MOL   C23012780   6.925   7.247   2.591 -0.5219  0.1909  0.2382
   26MOL   O23112781   6.860   7.158   2.534 -0.2148 -0.2999  0.9183
   26MOL   O23212782   6.867   7.332   2.678 -0.6598  0.5388 -0.2931
   26MOL   C23312783   6.728   7.340   2.682 -0.4380  0.5383 -0.4516
   26MOL   C23412784   6.677   7.401   2.816 -0.3361 -0.1258  0.0067
   26MOL   C23512785   6.539   7.419   2.837 -0.4202 -0.1819 -0.1782
   26MOL   C23612786   6.477   7.473   2.955  0.4006  0.2054  0.6713
   26MOL   C23712787   6.565   7.487   3.064 -0.4020 -0.6192 -0.4333
   26MOL   C23812788   6.705   7.454   3.053 -0.0217  0.4023 -0.6827
   26MOL   C23912789   6.762   7.426   2.929  0.2272  0.1238 -0.6335
   26MOL   H24012790   7.151   7.441   2.648  0.0793 -0.4420  0.2342
   26MOL   H24112791   7.230   7.380   2.512  0.2641 -1.7310 -0.2278
   26MOL   H24212792   7.112   7.196   2.367 -0.0556  0.5954  0.3621
   26MOL   H24312793   7.089   7.063   2.473  0.0313 -0.2326  0.3010
   26MOL   H24412794   7.243   7.157   2.461  0.1028  5.5063 -2.2315
   26MOL   H24512795   6.713   7.409   2.599 -0.6158  0.6030 -0.3662
   26MOL   H24612796   6.675   7.247   2.660  0.4204 -0.1505  0.3794
   26MOL   H24712797   6.475   7.399   2.752 -0.0463 -2.7463  0.1096
   26MOL   H24812798   6.371   7.489   2.954  0.4309  0.4071 -0.1825
   26MOL   H24912799   6.524   7.512   3.160  1.5097 -1.6184  0.6808
   26MOL   H25012800   6.771   7.468   3.137  2.5375  0.3824 -2.6330
   26MOL   H25112801   6.864   7.390   2.924  0.7831  1.2777  1.9793
   26MOL   C25212802   7.124   7.209   2.718  0.4725  0.3382 -0.2556
   26MOL   C25312803   7.266   7.150   2.762 -0.1217  0.5668  0.4441
   26MOL   C25412804   7.381   7.235   2.694 -0.0757  0.2363  0.1854
   26MOL   C25512805   7.277   7.001   2.712 -0.3677 -0.8306 -0.6282
   26MOL   O25612806   7.345   6.966   2.620 -0.0602  0.0817 -0.4734
   26MOL   O25712807   7.192   6.926   2.778  0.2698  0.2526  0.2435
   26MOL   C25812808   7.168   6.784   2.747  0.3108 -0.4093 -0.6137
   26MOL   C25912809   7.093   6.773   2.619  0.1821  0.3154  0.7151
   26MOL   C26012810   7.165   6.717   2.514 -0.6128 -0.0917 -0.3440
   26MOL   C26112811   7.103   6.714   2.387 -0.1191  0.2608  0.3357
   26MOL   C26212812   6.977   6.770   2.368  0.3844  0.3949 -0.3614
   26MOL   C26312813   6.911   6.835   2.478  0.6827  0.2686 -0.6148
   26MOL   C26412814   6.968   6.834   2.605 -0.1114 -0.1276  0.4521
   26MOL   H26512815   7.049   7.135   2.746  2.1238 -1.8716 -1.4987
   26MOL   H26612816   7.099   7.287   2.790 -1.3426 -1.1821  0.8110
   26MOL   H26712817   7.388   7.226   2.585  0.3554  2.9850 -0.0587
   26MOL   H26812818   7.477   7.194   2.724  0.2854 -1.6637 -3.2612
   26MOL   H26912819   7.383   7.341   2.720  1.8734 -0.1216  1.5578
   26MOL   H27012820   7.259   6.724   2.738 -0.1409 -1.2230  0.2133
   26MOL   H27112821   7.107   6.744   2.828 -0.4618 -1.6360 -1.7828
   26MOL   H27212822   7.267   6.688   2.532 -0.1863  1.5521 -0.0472
   26MOL   H27312823   7.157   6.659   2.312  0.9615  1.0378  0.5318
   26MOL   H27412824   6.922   6.761   2.275 -1.9650 -1.5494  1.1190
   26MOL   H27512825   6.820   6.889   2.457  0.2509 -0.2070  0.0117
   26MOL   H27612826   6.936   6.886   2.693  0.1321 -0.0246  0.4782
   26MOL   C27712827   7.295   7.152   2.917  0.3379 -0.2133  0.1076
   26MOL   C27812828   7.320   7.278   3.019 -0.5190  0.2225  0.2017
   26MOL   C27912829   7.205   7.380   3.006 -0.3905  0.0082 -0.0127
   26MOL   C28012830   7.450   7.353   2.976 -0.0787  0.4047  0.4816
   26MOL   O28112831   7.445   7.471   2.945  0.1314  0.1374  0.4487
   26MOL   O28212832   7.561   7.287   2.985 -0.1498 -0.3898  0.3355
   26MOL   C28312833   7.678   7.333   2.918 -0.6330 -0.2679 -0.6844
   26MOL   C28412834   7.735   7.226   2.829 -0.4578 -0.8838  0.1463
   26MOL   C28512835   7.771   7.248   2.695 -0.0747 -0.3714  0.5237
   26MOL   C28612836   7.826   7.147   2.611  0.0926  0.4202 -0.1285
   26MOL   C28712837   7.854   7.026   2.668  0.4204 -0.3179 -0.2009
   26MOL   C28812838   7.807   6.996   2.794  0.2103 -0.2016 -0.9153
   26MOL   C28912839   7.760   7.097   2.878 -0.7935  0.7760 -0.4966
   26MOL   H29012840   7.372   7.077   2.937  0.3966 -0.3680 -0.6638
   26MOL   H29112841   7.199   7.118   2.956  0.2709  1.5736  1.5397
   26MOL   H29212842   7.222   7.436   2.914  2.7575 -2.6611 -1.1578
   26MOL   H29312843   7.212   7.441   3.096  0.4158 -0.5435  0.2984
   26MOL   H29412844   7.103   7.341   3.007  0.2728 -1.9308 -2.9992
   26MOL   H29512845   7.670   7.429   2.867  0.2607  0.6643  0.8926
   26MOL   H29612846   7.759   7.343   2.991  0.7186  1.1981 -2.3033
   26MOL   H29712847   7.758   7.345   2.648  3.4069 -0.5838 -0.9839
   26MOL   H29812848   7.845   7.167   2.507 -1.2096 -1.5802 -0.7856
   26MOL   H29912849   7.903   6.956   2.602 -2.0217 -1.4305 -0.8926
   26MOL   H30012850   7.830   6.893   2.821 -1.4014 -0.2362  0.4524
   26MOL   H30112851   7.732   7.077   2.981 -0.8936  0.8487 -0.5097
   26MOL   C30212852   7.345   7.219   3.167  0.1953 -0.4874  0.4770
   26MOL   C30312853   7.243   7.123   3.235  1.5557  0.7941  0.2428
   26MOL   C30412854   7.092   7.166   3.215 -0.2339 -0.7823 -0.0051
   26MOL   C30512855   7.267   7.137   3.393  0.0994 -0.0621  0.4085
   26MOL   O30612856   7.372   7.175   3.431 -0.1499  0.5169  0.0077
   26MOL   O30712857   7.163   7.100   3.478  0.0446  0.0143  0.5333
   26MOL   C30812858   7.183   7.109   3.620  0.0879  0.2785 -0.4004
   26MOL   C30912859   7.059   7.071   3.697 -0.0654 -0.3906 -1.0966
   26MOL   C31012860   7.022   6.940   3.724 -0.1355  0.3286  0.2917
   26MOL   C31112861   6.908   6.908   3.804  0.4737  0.2382 -1.2050
   26MOL   C31212862   6.823   7.007   3.851  0.2300  0.6880 -0.5856
   26MOL   C31312863   6.871   7.141   3.834 -0.1178 -0.6205  0.6743
   26MOL   C31412864   6.991   7.178   3.762  0.2398  0.4137 -0.1650
   26MOL   H31512865   7.340   7.302   3.237  0.9295  0.1442 -0.2077
   26MOL   H31612866   7.448   7.181   3.163 -0.2854 -1.8073  0.2633
   26MOL   H31712867   7.016   7.117   3.276 -2.8843  1.2372 -1.5906
   26MOL   H31812868   7.054   7.127   3.120  0.5364 -2.2942  0.2936
   26MOL   H31912869   7.081   7.274   3.224 -0.5739 -0.5498 -2.6102
   26MOL   H32012870   7.268   7.046   3.646 -0.6334 -0.2167  0.7982
   26MOL   H32112871   7.212   7.212   3.642  0.4447  0.2219 -0.6016
   26MOL   H32212872   7.082   6.859   3.683  0.6321  0.7720  0.5283
   26MOL   H32312873   6.874   6.806   3.814 -0.6134  0.5878 -1.2754
   26MOL   H32412874   6.729   6.992   3.903  1.7263  0.8965  2.3261
   26MOL   H32512875   6.804   7.219   3.868  1.9857  1.8069 -0.5691
   26MOL   H32612876   7.014   7.281   3.737  2.9384 -0.5825 -2.0117
   26MOL   C32712877   7.288   6.978   3.188  0.3213 -0.4404  0.1676
   26MOL   C32812878   7.235   6.845   3.246  0.1088  0.0670  0.2327
   26MOL   C32912879   7.265   6.738   3.138  0.5325 -1.0916  0.0359
   26MOL   C33012880   7.082   6.846   3.266 -0.0427  0.5014  0.0052
   26MOL   O33112881   7.028   6.856   3.376  0.1665  0.5211 -0.3953
   26MOL   O33212882   7.005   6.833   3.162  0.0989  0.2480 -0.0123
   26MOL   C33312883   6.863   6.833   3.161 -0.5734  0.2227  0.1476
   26MOL   C33412884   6.814   6.722   3.072 -0.0193 -0.4955  0.3419
   26MOL   C33512885   6.785   6.595   3.122  0.7748 -0.0542  0.7780
   26MOL   C33612886   6.757   6.485   3.038  0.1584  0.2173 -0.6217
   26MOL   C33712887   6.748   6.516   2.901  0.2837 -0.7025 -0.1158
   26MOL   C33812888   6.766   6.647   2.846 -0.1127  0.9489  0.3415
   26MOL   C33912889   6.805   6.746   2.933 -0.4111  0.8771  0.2171
   26MOL   H34012890   7.397   6.971   3.200  0.5131  2.7077  0.6426
   26MOL   H34112891   7.249   6.966   3.087 -0.7119  1.4826  0.3213
   26MOL   H34212892   7.224   6.643   3.173  3.0056 -1.6927  1.4441
   26MOL   H34312893   7.373   6.749   3.124  0.7122 -0.9399  1.5115
   26MOL   H34412894   7.221   6.774   3.045  1.1984  0.8514  0.4535
   26MOL   H34512895   6.821   6.824   3.261 -2.4899  0.1769 -0.6429
   26MOL   H34612896   6.838   6.933   3.124  1.3251  0.9891  0.8725
   26MOL   H34712897   6.794   6.576   3.228 -1.6592 -1.2807  0.8239
   26MOL   H34812898   6.734   6.385   3.073  0.9141  0.5993  0.9839
   26MOL   H34912899   6.718   6.439   2.832  0.3671 -0.4746 -0.4068
   26MOL   H35012900   6.760   6.655   2.738  0.3200 -2.7452 -0.0246
   26MOL   H35112901   6.839   6.843   2.900 -1.8358  1.2947 -0.0489
   26MOL   C35212902   7.304   6.802   3.377  0.0108 -0.1197  0.6598
   26MOL   C35312903   7.323   6.655   3.446 -0.0683  0.5111  0.8844
   26MOL   C35412904   7.190   6.586   3.450  0.9670 -0.0779 -0.3289
   26MOL   C35512905   7.379   6.688   3.585 -0.4319 -0.6309 -0.2500
   26MOL   O35612906   7.318   6.678   3.691 -0.2525 -0.0975 -0.1745
   26MOL   O35712907   7.507   6.740   3.579 -0.3292 -0.3709 -0.0161
   26MOL   C35812908   7.557   6.794   3.694  0.1474 -0.0168 -0.1410
   26MOL   C35912909   7.676   6.885   3.666  0.0903 -0.5423 -0.3016
   26MOL   C36012910   7.805   6.837   3.694  0.5494  0.0682  0.6159
   26MOL   C36112911   7.907   6.925   3.655 -0.0157 -0.3235  0.0534
   26MOL   C36212912   7.887   7.061   3.624 -0.2033 -0.2881  0.1429
   26MOL   C36312913   7.754   7.106   3.615 -0.2396  0.3077 -0.4915
   26MOL   C36412914   7.647   7.017   3.637  0.2573 -0.2672  0.1268
   26MOL   H36512915   7.277   6.871   3.457  1.1171  0.2839  0.6920
   26MOL   H36612916   7.408   6.829   3.363  0.1596  0.2913  2.4151
   26MOL   H36712917   7.166   6.532   3.359  1.3161 -0.4987 -0.1752
   26MOL   H36812918   7.118   6.661   3.482  1.6488 -0.0878  1.2820
   26MOL   H36912919   7.190   6.513   3.532  2.0300  3.1402  2.6679
   26MOL   H37012920   7.484   6.862   3.738 -0.3500  0.0303 -1.0263
   26MOL   H37112921   7.587   6.712   3.759 -1.6429 -0.3635  0.2709
   26MOL   H37212922   7.828   6.734   3.717  1.8484 -0.0858 -1.2688
   26MOL   H37312923   0.002   6.890   3.669 -0.3465 -1.4962 -0.4167
   26MOL   H37412924   7.967   7.128   3.598 -3.3284  2.9452 -1.7165
   26MOL   H37512925   7.745   7.209   3.584 -1.1926  0.2273 -0.5028
   26MOL   H37612926   7.545   7.050   3.619 -0.4084 -1.9763  0.6991
   26MOL   C37712927   7.436   6.567   3.376  0.1366 -0.3528  0.6316
   26MOL   C37812928   7.474   6.416   3.406 -0.3557 -0.6850 -0.5804
   26MOL   C37912929   7.478   6.410   3.558 -0.2828 -0.2955 -0.2106
   26MOL   C38012930   7.621   6.395   3.356 -0.3734 -0.3961 -0.4663
   26MOL   O38112931   7.717   6.344   3.423 -0.1897  0.4562 -0.2692
   26MOL   O38212932   7.633   6.436   3.234 -0.0543 -0.7960 -0.7696
   26MOL   C38312933   7.757   6.438   3.171 -0.5037  0.0376  0.3960
   26MOL   C38412934   7.818   6.576   3.139 -0.3820  0.3203 -0.1414
   26MOL   C38512935   7.759   6.697   3.182  0.3193 -0.6085 -0.5483
   26MOL   C38612936   7.821   6.823   3.165  0.1339  0.2208 -0.3887
   26MOL   C38712937   7.940   6.821   3.088 -0.4008  0.2865 -0.7067
   26MOL   C38812938   7.990   6.701   3.031 -0.6861  0.4889  0.4841
   26MOL   C38912939   7.937   6.578   3.064  0.4262  0.0107  0.1648
   26MOL   H39012940   7.535   6.612   3.383 -0.0397  0.4054 -1.4850
   26MOL   H39112941   7.394   6.566   3.276 -0.4925 -2.6293  0.8933
   26MOL   H39212942   7.544   6.481   3.609 -1.0776 -0.0493  0.4785
   26MOL   H39312943   7.506   6.309   3.588  0.7678 -0.1400 -0.6480
   26MOL   H39412944   7.378   6.431   3.596  0.0896 -0.2102  0.7342
   26MOL   H39512945   7.827   6.364   3.209  1.2177  0.9591 -0.8877
   26MOL   H39612946   7.748   6.390   3.073  0.9641  0.7435 -0.0959
   26MOL   H39712947   7.673   6.703   3.247  0.2195 -1.6758 -0.5738
   26MOL   H39812948   7.776   6.915   3.198  0.8877 -0.3929  2.4741
   26MOL   H39912949   8.000   6.910   3.085 -1.5914  1.1658  0.9531
   26MOL   H40012950   0.077   6.707   2.977 -1.1377  1.0967 -0.2452
   26MOL   H40112951   7.985   6.488   3.029 -1.5865 -0.1331 -2.3615
   26MOL   C40212952   7.365   6.319   3.342 -0.5010 -0.2927  0.5656
   26MOL   C40312953   7.383   6.160   3.326 -0.1330 -0.0676 -0.5293
   26MOL   C40412954   7.430   6.105   3.457  0.0976  0.2958 -1.0895
   26MOL   C40512955   7.475   6.128   3.212 -0.4514 -0.4206 -0.0578
   26MOL   O40612956   7.514   6.213   3.127 -0.3543 -0.4153 -0.6239
   26MOL   O40712957   7.504   5.992   3.207 -0.3200 -0.3735 -0.7384
   26MOL   C40812958   7.585   5.941   3.107 -0.7301 -0.4182 -0.5284
   26MOL   C40912959   7.732   5.956   3.136  0.8095 -0.0211 -1.0290
   26MOL   C41012960   7.793   6.083   3.097  0.0210  0.2554  0.2095
   26MOL   C41112961   7.929   6.106   3.116 -1.6614  0.0591  0.4772
   26MOL   C41212962   8.006   6.002   3.169 -0.4412 -1.2554 -0.1807
   26MOL   C41312963   7.951   5.878   3.203  0.8024  0.1564  0.5358
   26MOL   C41412964   7.808   5.858   3.198 -0.3035 -0.8231  0.2372
   26MOL   H41512965   7.340   6.356   3.242  0.6811 -1.7800 -0.2970
   26MOL   H41612966   7.275   6.346   3.398 -0.0440  0.7991  0.8075
   26MOL   H41712967   7.381   6.153   3.542  1.5478  1.2444 -0.7760
   26MOL   H41812968   7.537   6.119   3.471  0.1794 -0.4345 -0.9551
   26MOL   H41912969   7.426   5.997   3.467  0.0904  0.3418 -0.5715
   26MOL   H42012970   7.560   5.837   3.088  0.6645 -0.8578 -0.0174
   26MOL   H42112971   7.562   5.987   3.011 -0.3518  0.7698 -0.0610
   26MOL   H42212972   7.751   6.147   3.022  0.5668 -1.7472 -1.8448
   26MOL   H42312973   7.978   6.197   3.085 -1.0345 -0.5983 -0.5147
   26MOL   H42412974   0.107   6.004   3.174 -0.4742  0.6957  0.2430
   26MOL   H42512975   0.014   5.805   3.242  0.6926  0.4007  1.2006
   26MOL   H42612976   7.769   5.770   3.246 -4.1928  0.1507 -0.9882
   26MOL   C42712977   7.241   6.084   3.297  0.5006 -0.1683  0.2946
   26MOL   C42812978   7.135   6.138   3.189  0.8072 -0.1553 -0.1018
   26MOL   C42912979   7.204   6.181   3.055 -0.9280 -0.1384  0.4443
   26MOL   C43012980   7.056   6.253   3.253 -0.1204 -0.2694  0.5951
   26MOL   O43112981   7.054   6.366   3.203 -0.2166 -0.3930  0.2704
   26MOL   O43212982   6.990   6.219   3.360 -0.2112  0.2060 -0.5039
   26MOL   C43312983   6.916   6.316   3.439  0.5335 -0.3582 -0.3654
   26MOL   C43412984   6.974   6.339   3.580  0.1501  0.5312  0.2067
   26MOL   C43512985   6.939   6.457   3.644  0.0631 -0.0020  0.1818
   26MOL   C43612986   6.982   6.488   3.775 -0.2850 -0.4650  0.0927
   26MOL   C43712987   7.070   6.405   3.846 -0.5529 -0.0807 -0.1590
   26MOL   C43812988   7.118   6.289   3.773 -0.0972  0.3066 -0.3284
   26MOL   C43912989   7.069   6.257   3.639  0.8323  0.0026 -0.4197
   26MOL   H44012990   7.197   6.079   3.396  0.8797  0.4983  0.5017
   26MOL   H44112991   7.263   5.980   3.272 -0.8217 -0.2013 -0.7894
   26MOL   H44212992   7.127   6.211   2.984 -2.1969 -3.3148  0.3733
   26MOL   H44312993   7.262   6.105   3.002 -4.0725 -2.6502  0.4222
   26MOL   H44412994   7.268   6.266   3.076 -0.5605 -1.0440  3.2964
   26MOL   H44512995   6.913   6.409   3.384 -2.6988 -0.9994 -1.3463
   26MOL   H44612996   6.811   6.287   3.444  0.0197  1.2622 -1.3337
   26MOL   H44712997   6.866   6.522   3.599  0.6125  0.2344 -0.3693
   26MOL   H44812998   6.947   6.579   3.821  2.2384  0.1653  0.8833
   26MOL   H44912999   7.117   6.426   3.941 -1.2358 -1.4115  0.4968
   26MOL   H45013000   7.196   6.235   3.826 -1.6849  0.4456  2.2518
   26MOL   H45113001   7.104   6.166   3.594 -0.1861 -0.7729  0.3306
   26MOL   C45213002   7.044   6.019   3.152  0.1980 -0.0166 -0.1129
   26MOL   C45313003   6.898   6.027   3.094 -0.1014 -0.1705 -0.2089
   26MOL   C45413004   6.881   6.136   2.985  0.0731 -0.6378  0.0656
   26MOL   C45513005   6.801   6.058   3.212  0.0357 -0.4121 -0.5850
   26MOL   O45613006   6.739   6.163   3.222 -0.1051 -0.1072 -0.1409
   26MOL   O45713007   6.817   5.962   3.301  0.8018 -0.0610  0.1998
   26MOL   C45813008   6.750   5.963   3.421  0.7449 -0.3429  0.2256
   26MOL   C45913009   6.835   5.923   3.537  0.1720  0.0593  0.2451
   26MOL   C46013010   6.836   6.001   3.654  0.0649 -0.0794 -0.3444
   26MOL   C46113011   6.920   5.970   3.755  0.3365 -0.2086 -0.3742
   26MOL   C46213012   7.000   5.856   3.747 -0.1669 -0.1390  0.0138
   26MOL   C46313013   6.995   5.772   3.638 -0.5971  0.1913 -0.7628
   26MOL   C46413014   6.919   5.809   3.530 -0.5083  0.1272 -0.6160
   26MOL   H46513015   7.044   5.941   3.228 -2.1013 -1.9722 -2.0516
   26MOL   H46613016   7.098   5.961   3.078 -1.1344 -0.7140 -0.5557
   26MOL   H46713017   6.909   6.230   3.033 -0.7475  0.5881 -1.7533
   26MOL   H46813018   6.781   6.148   2.941 -0.1443  0.2091  0.7713
   26MOL   H46913019   6.947   6.121   2.900  1.6918  0.4693  1.0933
   26MOL   H47013020   6.688   6.050   3.444  2.6032  0.9278  0.4812
   26MOL   H47113021   6.675   5.883   3.417  1.4929 -0.9806 -1.5168
   26MOL   H47213022   6.780   6.093   3.664 -0.4370 -0.4782  0.5796
   26MOL   H47313023   6.927   6.046   3.831  1.5545 -1.4427  0.7818
   26MOL   H47413024   7.068   5.827   3.826  0.5612 -0.0750 -0.5798
   26MOL   H47513025   7.056   5.683   3.644 -0.8170  0.0682 -0.3302
   26MOL   H47613026   6.919   5.748   3.441  0.4253  0.5414 -0.9030
   26MOL   C47713027   6.869   5.890   3.026 -0.7361 -0.7223 -0.6601
   26MOL   C47813028   6.723   5.828   3.015 -0.1992 -0.4780  0.3077
   26MOL   C47913029   6.733   5.675   2.995  0.0625  0.1909 -0.6948
   26MOL   C48013030   6.635   5.893   2.911 -0.4302 -0.1027 -0.4602
   26MOL   O48113031   6.624   5.837   2.805 -0.0306 -0.3842 -0.2740
   26MOL   O48213032   6.577   6.009   2.940 -0.1630 -0.4744  0.2278
   26MOL   C48313033   6.508   6.086   2.842  0.6914 -0.0292  0.3011
   26MOL   C48413034   6.425   6.200   2.901  0.5926 -0.2423 -0.0698
   26MOL   C48513035   6.439   6.249   3.034 -0.4972  0.0750  0.0795
   26MOL   C48613036   6.363   6.360   3.076  0.0455  0.8294  0.4031
   26MOL   C48713037   6.290   6.433   2.978 -0.6430  0.4491 -0.2360
   26MOL   C48813038   6.257   6.374   2.857  0.2364 -0.0997 -0.2578
   26MOL   C48913039   6.325   6.260   2.820  0.4138 -0.1785 -0.1391
   26MOL   H49013040   6.922   5.806   3.071  1.8562  1.0504 -0.3133
   26MOL   H49113041   6.922   5.894   2.931 -0.5071 -0.7757 -0.5351
   26MOL   H49213042   6.775   5.663   2.896  0.8103  0.5865 -0.4260
   26MOL   H49313043   6.633   5.637   3.016  0.4460 -0.0206  0.8100
   26MOL   H49413044   6.805   5.633   3.066  1.7676  5.2247  0.7655
   26MOL   H49513045   6.575   6.148   2.782  0.2127 -0.0197 -0.2370
   26MOL   H49613046   6.443   6.028   2.776 -0.2509  2.5425 -1.1020
   26MOL   H49713047   6.514   6.196   3.091 -1.8093 -1.3551  0.5142
   26MOL   H49813048   6.373   6.384   3.181  1.6072  0.1727  0.4228
   26MOL   H49913049   6.228   6.518   3.005 -0.9527  0.4737 -1.0249
   26MOL   H50013050   6.181   6.412   2.790  1.5748  0.3819 -1.5536
   26MOL   H50113051   6.316   6.232   2.716 -0.9513  2.5364 -0.8025
   26MOL   H50213052   6.677   5.843   3.113 -0.1869 -1.3019  0.4450
   27MOL     C113053   2.270   2.527   2.207  0.2497 -0.5645 -0.8422
   27MOL     C213054   2.148   2.623   2.193  0.1953  0.2466  0.1361
   27MOL     C313055   2.138   2.700   2.332 -0.0134  0.0781  0.0153
   27MOL     C413056   2.025   2.530   2.181  0.6113 -0.9099  0.1583
   27MOL     O513057   1.937   2.511   2.272  0.1874  0.0634 -0.2125
   27MOL     O613058   2.022   2.451   2.066  0.1573  0.0223 -0.7048
   27MOL     C713059   1.925   2.346   2.055 -0.7844  0.0009 -0.1326
   27MOL     C813060   1.982   2.206   2.090 -0.4050 -1.3248  0.0421
   27MOL     C913061   1.917   2.113   2.178 -0.7554  0.2981 -0.4184
   27MOL    C1013062   1.960   1.979   2.187 -0.4930  0.0250  0.0963
   27MOL    C1113063   2.070   1.933   2.111 -0.7857  0.1610 -0.6324
   27MOL    C1213064   2.124   2.029   2.025 -0.2736  0.1966  0.1656
   27MOL    C1313065   2.084   2.163   2.009 -0.2757  0.0560 -0.5543
   27MOL    H1413066   2.365   2.576   2.226 -1.5112  3.0647 -0.9729
   27MOL    H1513067   2.278   2.454   2.288 -0.1775  0.6997  0.3693
   27MOL    H1613068   2.176   2.640   2.415  1.2507  2.4679  1.2189
   27MOL    H1713069   2.040   2.728   2.370 -1.3034 -0.1783 -3.0243
   27MOL    H1813070   2.205   2.783   2.314  0.5117 -0.3936 -0.2336
   27MOL    H1913071   1.834   2.368   2.110  0.5041  1.7496  1.3534
   27MOL    H2013072   1.888   2.356   1.953 -1.1742 -0.3516 -0.0292
   27MOL    H2113073   1.836   2.135   2.246 -1.8714 -3.5032 -0.4236
   27MOL    H2213074   1.920   1.915   2.265  0.2492 -1.2979 -0.5933
   27MOL    H2313075   2.122   1.839   2.120 -0.1353  0.3752 -2.1018
   27MOL    H2413076   2.189   1.994   1.946  0.4882  0.0222  0.8681
   27MOL    H2513077   2.131   2.226   1.935  1.2189  0.9281  1.0907
   27MOL    H2613078   2.275   2.470   2.115 -3.1941  1.0355 -2.1390
   27MOL    C2713079   2.165   2.727   2.070 -0.1624 -0.0478  0.2098
   27MOL    C2813080   2.057   2.830   2.024 -0.0955 -0.0152 -0.7512
   27MOL    C2913081   2.132   2.954   1.959 -0.3450  0.5276  0.6885
   27MOL    C3013082   1.967   2.885   2.140 -0.5204 -0.1998  0.5302
   27MOL    O3113083   1.888   2.816   2.204  0.1312 -0.0592 -0.5333
   27MOL    O3213084   1.986   3.019   2.177 -0.3347  0.2975  0.5272
   27MOL    C3313085   1.903   3.069   2.279 -0.5327  0.1769 -0.3125
   27MOL    C3413086   1.938   3.213   2.319  0.1293  0.4998  0.1920
   27MOL    C3513087   1.953   3.310   2.216  0.7448  0.0148  0.2374
   27MOL    C3613088   1.993   3.443   2.246  0.2733 -0.5921  0.5112
   27MOL    C3713089   2.019   3.478   2.380 -0.4313 -0.5174  0.5979
   27MOL    C3813090   2.006   3.387   2.482 -0.1875  0.5150  0.5961
   27MOL    C3913091   1.964   3.255   2.451  0.3700 -0.2431  0.0447
   27MOL    H4013092   2.204   2.669   1.985  1.9629 -0.2555  1.2762
   27MOL    H4113093   2.249   2.786   2.106  1.5485 -2.4917  0.3452
   27MOL    H4213094   2.074   3.046   1.956  1.1218  1.5729  2.7580
   27MOL    H4313095   2.178   2.915   1.868 -0.3723  1.7471  0.1407
   27MOL    H4413096   2.215   2.991   2.019 -2.1168  2.7608  1.8294
   27MOL    H4513097   1.796   3.067   2.259 -0.7831  1.6444  0.8754
   27MOL    H4613098   1.899   3.005   2.367  1.1838 -0.5661 -0.7587
   27MOL    H4713099   1.930   3.275   2.116  1.7544  1.1901 -0.4099
   27MOL    H4813100   2.007   3.513   2.165 -0.5860 -0.3066  0.6068
   27MOL    H4913101   2.037   3.582   2.404  0.5002 -0.7472  0.9430
   27MOL    H5013102   2.010   3.423   2.584 -3.3491  1.6710  0.3732
   27MOL    H5113103   1.942   3.181   2.527  0.1763 -0.3344 -0.1006
   27MOL    C5213104   1.969   2.767   1.905  0.1724 -0.3526  0.0025
   27MOL    C5313105   1.821   2.814   1.863 -0.0028 -0.5179 -0.5845
   27MOL    C5413106   1.720   2.772   1.975 -0.3488 -0.2433  0.7524
   27MOL    C5513107   1.775   2.734   1.734  0.5180 -0.6090  0.7682
   27MOL    O5613108   1.660   2.698   1.712  0.5758  0.0269 -0.9331
   27MOL    O5713109   1.872   2.713   1.642  0.2137  0.8428  0.0454
   27MOL    C5813110   1.831   2.630   1.527 -0.1972 -0.1097 -0.1212
   27MOL    C5913111   1.945   2.588   1.444 -0.9945  0.3513  0.3151
   27MOL    C6013112   1.923   2.494   1.342  0.1895 -1.4695 -0.2544
   27MOL    C6113113   2.035   2.432   1.281  0.8272 -0.1293 -0.3557
   27MOL    C6213114   2.164   2.466   1.324 -0.2558  0.4114 -0.3365
   27MOL    C6313115   2.187   2.562   1.423 -0.3184 -0.2450 -0.0169
   27MOL    C6413116   2.077   2.627   1.484  0.3297  1.7839 -0.3193
   27MOL    H6513117   1.960   2.660   1.921 -2.7389 -0.5587 -2.5082
   27MOL    H6613118   2.035   2.776   1.819 -1.8044  0.7503 -1.4280
   27MOL    H6713119   1.615   2.760   1.949 -0.3073  2.3742 -0.8012
   27MOL    H6813120   1.705   2.856   2.043 -1.1130  0.8527 -0.7458
   27MOL    H6913121   1.743   2.682   2.033  0.2826 -2.2314 -2.4692
   27MOL    H7013122   1.784   2.537   1.557 -0.4050  0.6130  1.8342
   27MOL    H7113123   1.757   2.693   1.478 -0.4011  0.0105  0.3407
   27MOL    H7213124   1.825   2.454   1.319  0.8929 -2.7918 -0.9879
   27MOL    H7313125   2.030   2.338   1.228 -1.6903 -1.2157  1.7052
   27MOL    H7413126   2.240   2.398   1.290  0.5673  0.7237  0.8657
   27MOL    H7513127   2.293   2.579   1.439 -0.4966  0.1777  0.7669
   27MOL    H7613128   2.093   2.701   1.561  2.2642  0.2674  0.7668
   27MOL    C7713129   1.830   2.969   1.833 -0.0386  0.5931 -0.4117
   27MOL    C7813130   1.727   3.065   1.761  0.0016  0.1461 -0.9592
   27MOL    C7913131   1.791   3.205   1.778  0.3536  0.8023  0.7279
   27MOL    C8013132   1.594   3.052   1.835  0.1991  0.4316  0.1859
   27MOL    O8113133   1.493   3.004   1.777  0.5371  0.2263 -0.4962
   27MOL    O8213134   1.599   3.090   1.956  0.7658  0.5601 -0.4366
   27MOL    C8313135   1.483   3.085   2.037  0.7109  0.0640 -0.2370
   27MOL    C8413136   1.513   3.157   2.172 -0.0344 -0.2531  0.2076
   27MOL    C8513137   1.450   3.117   2.287  0.0025 -0.1365  0.2257
   27MOL    C8613138   1.474   3.179   2.415 -0.6022 -0.5114 -0.2078
   27MOL    C8713139   1.549   3.301   2.417  0.3862 -0.2736 -0.2753
   27MOL    C8813140   1.616   3.346   2.300 -0.5136  0.3133  0.3233
   27MOL    C8913141   1.598   3.275   2.179  0.5878  0.3839  0.0601
   27MOL    H9013142   1.925   2.978   1.780 -0.9893  1.8732 -1.9494
   27MOL    H9113143   1.841   3.009   1.934 -3.3589  0.3519  0.1168
   27MOL    H9213144   1.724   3.281   1.740  1.6870  0.9211 -1.4730
   27MOL    H9313145   1.882   3.223   1.720 -1.1963  1.2787 -1.6008
   27MOL    H9413146   1.813   3.226   1.883  1.5341 -1.6790  1.0259
   27MOL    H9513147   1.399   3.140   1.994  1.4302  1.6140  0.2749
   27MOL    H9613148   1.458   2.981   2.057  0.5671 -0.1573 -1.5102
   27MOL    H9713149   1.388   3.028   2.289 -1.4907  0.7857 -2.6250
   27MOL    H9813150   1.426   3.135   2.501  1.2452  0.7515  1.5479
   27MOL    H9913151   1.553   3.355   2.511 -1.7829 -0.3461 -0.1185
   27MOL   H10013152   1.696   3.418   2.308  0.3767 -0.4818 -1.1331
   27MOL   H10113153   1.640   3.303   2.084 -2.4742  1.8515 -0.9299
   27MOL   C10213154   1.712   3.034   1.600  0.2005  0.6229  0.5169
   27MOL   C10313155   1.818   3.068   1.487 -0.3441 -0.0792 -1.4493
   27MOL   C10413156   1.959   3.013   1.520 -0.3563  0.2237 -0.0800
   27MOL   C10513157   1.843   3.224   1.464  0.7038  0.5665  0.3052
   27MOL   O10613158   1.761   3.312   1.503 -0.3248 -0.1975  0.6688
   27MOL   O10713159   1.946   3.247   1.379  0.3066 -0.3764 -0.1857
   27MOL   C10813160   1.941   3.379   1.317  0.3569  0.5076  0.0188
   27MOL   C10913161   2.031   3.398   1.199 -0.5006 -0.7394  0.0624
   27MOL   C11013162   2.127   3.502   1.200 -0.3058 -0.3661 -0.1082
   27MOL   C11113163   2.217   3.513   1.090  0.5510  0.3211 -0.0820
   27MOL   C11213164   2.214   3.426   0.985  0.6132 -0.3319  0.1141
   27MOL   C11313165   2.109   3.333   0.977 -0.3359  0.3319  0.4174
   27MOL   C11413166   2.021   3.315   1.085  0.8164 -0.0094  0.3266
   27MOL   H11513167   1.619   3.080   1.565  0.0738  0.9056  1.2109
   27MOL   H11613168   1.693   2.927   1.600  0.8163  0.5154 -0.1303
   27MOL   H11713169   2.031   3.029   1.440 -1.6708 -1.2113 -1.6031
   27MOL   H11813170   1.959   2.905   1.536 -0.5259  0.2568  0.1458
   27MOL   H11913171   2.011   3.057   1.604  0.0576 -0.3256 -0.0446
   27MOL   H12013172   1.840   3.400   1.281  0.3550 -1.4494 -1.1838
   27MOL   H12113173   1.962   3.450   1.397  1.8185  0.3260 -0.1973
   27MOL   H12213174   2.145   3.568   1.283 -0.8190 -0.5486  0.1495
   27MOL   H12313175   2.288   3.594   1.084  2.0838 -0.8529  1.5192
   27MOL   H12413176   2.286   3.425   0.905  2.0031 -1.9136  1.3410
   27MOL   H12513177   2.095   3.278   0.885  0.6425 -2.5296  1.9249
   27MOL   H12613178   1.957   3.229   1.084  1.4108 -0.4551 -0.7317
   27MOL   C12713179   1.786   3.000   1.352  1.2913  0.5347  0.5898
   27MOL   C12813180   1.672   3.040   1.250  1.0623 -0.2665  0.7372
   27MOL   C12913181   1.687   3.186   1.203  0.1356 -0.5772  0.5296
   27MOL   C13013182   1.526   3.025   1.309  0.4282 -0.4996  0.1181
   27MOL   O13113183   1.436   3.113   1.304 -0.5304 -0.1314 -0.0798
   27MOL   O13213184   1.516   2.899   1.376  0.3895 -0.1917  0.1235
   27MOL   C13313185   1.386   2.837   1.404 -0.0973 -0.2954 -0.3479
   27MOL   C13413186   1.378   2.693   1.361 -0.4869 -0.6028  0.2115
   27MOL   C13513187   1.494   2.611   1.379 -0.4238  0.3096 -0.4501
   27MOL   C13613188   1.498   2.474   1.344  0.3052  0.5760  0.3211
   27MOL   C13713189   1.392   2.422   1.264  0.0715 -0.2080  0.1574
   27MOL   C13813190   1.277   2.500   1.244  0.2896 -0.0898  0.6746
   27MOL   C13913191   1.269   2.631   1.292  0.2616  0.4072  0.6421
   27MOL   H14013192   1.768   2.896   1.378 -2.3378  0.5022 -1.6171
   27MOL   H14113193   1.878   3.003   1.293  1.8507  3.2988  1.5216
   27MOL   H14213194   1.775   3.226   1.152  0.3023 -0.8092  0.6347
   27MOL   H14313195   1.662   3.250   1.287 -0.1692 -0.2600  0.2012
   27MOL   H14413196   1.602   3.205   1.137  0.0671 -0.5963  0.6135
   27MOL   H14513197   1.360   2.837   1.510  1.8401 -1.4168  0.1527
   27MOL   H14613198   1.305   2.896   1.360 -1.5878 -0.3688  2.2252
   27MOL   H14713199   1.576   2.646   1.439 -0.2754 -1.0780  0.1746
   27MOL   H14813200   1.578   2.413   1.384  1.8183  2.0158 -0.4684
   27MOL   H14913201   1.391   2.321   1.225 -1.2329 -1.0835  2.4087
   27MOL   H15013202   1.202   2.453   1.182  1.2230 -2.0760  1.0054
   27MOL   H15113203   1.177   2.687   1.276  1.4562  2.2715  0.1778
   27MOL   C15213204   1.686   2.934   1.125 -0.1052 -0.2555  0.8117
   27MOL   C15313205   1.634   2.963   0.974  0.5740 -0.7802 -0.8860
   27MOL   C15413206   1.728   3.077   0.908  0.2453 -0.0696  0.6199
   27MOL   C15513207   1.484   3.016   0.962  0.1547 -0.2268 -0.1087
   27MOL   O15613208   1.461   3.130   0.914 -0.3154  0.2037 -0.1484
   27MOL   O15713209   1.395   2.937   1.025  0.2639 -0.1956 -0.3047
   27MOL   C15813210   1.262   2.999   1.064  0.9850 -0.2030 -0.0293
   27MOL   C15913211   1.141   2.917   1.024  0.1144  0.4764 -0.5285
   27MOL   C16013212   1.153   2.851   0.896 -0.0832  0.2119 -1.1257
   27MOL   C16113213   1.054   2.761   0.849  0.0468 -0.8122 -0.1829
   27MOL   C16213214   0.943   2.743   0.929 -0.4129 -0.3092  0.7548
   27MOL   C16313215   0.922   2.811   1.047  0.3481 -0.2277 -0.7461
   27MOL   C16413216   1.028   2.888   1.104 -0.2758 -0.1867  0.6907
   27MOL   H16513217   1.646   2.839   1.158  0.4502 -0.9762 -0.5481
   27MOL   H16613218   1.791   2.912   1.110 -0.3256 -0.9669  0.2854
   27MOL   H16713219   1.832   3.043   0.904 -0.1223 -1.4854  2.4108
   27MOL   H16813220   1.739   3.174   0.956 -1.4468  1.2336 -1.5175
   27MOL   H16913221   1.694   3.091   0.805  1.0320 -2.0296  0.0635
   27MOL   H17013222   1.259   3.002   1.173 -1.1965  2.3506 -0.1151
   27MOL   H17113223   1.251   3.101   1.028  2.4236 -0.0506 -0.0540
   27MOL   H17213224   1.236   2.881   0.835  0.7860 -0.2342 -0.1926
   27MOL   H17313225   1.067   2.705   0.757  2.7890  0.2326 -0.4604
   27MOL   H17413226   0.861   2.680   0.899 -0.2545 -0.6801  1.0968
   27MOL   H17513227   0.831   2.795   1.103  0.7734 -2.0007 -0.5365
   27MOL   H17613228   1.005   2.929   1.201 -1.2782  0.5911  0.1349
   27MOL   C17713229   1.644   2.836   0.882  0.2297  0.1850 -0.5119
   27MOL   C17813230   1.634   2.683   0.932 -0.0653  0.2015  0.4022
   27MOL   C17913231   1.501   2.658   1.004  0.8670 -0.3171  0.1307
   27MOL   C18013232   1.757   2.647   1.019 -0.8059 -0.0749 -0.4749
   27MOL   O18113233   1.750   2.578   1.122  0.5211  0.1321 -0.4031
   27MOL   O18213234   1.872   2.696   0.966 -0.2142  0.6538 -0.5193
   27MOL   C18313235   2.003   2.669   1.021 -0.4789  0.1804 -0.2054
   27MOL   C18413236   2.098   2.789   1.007  0.0059 -0.4835 -0.0904
   27MOL   C18513237   2.190   2.818   1.107 -0.0907  0.2883  0.0164
   27MOL   C18613238   2.280   2.928   1.087 -0.5581 -0.5967 -0.0700
   27MOL   C18713239   2.279   3.009   0.971  0.2871 -0.0790 -0.7128
   27MOL   C18813240   2.194   2.975   0.866  0.9936  0.8194  0.3146
   27MOL   C18913241   2.098   2.864   0.884  0.2254 -0.0502 -0.2614
   27MOL   H19013242   1.730   2.846   0.817 -1.1408  1.8412 -2.1194
   27MOL   H19113243   1.563   2.851   0.810  0.8144 -1.0680 -1.4505
   27MOL   H19213244   1.502   2.560   1.052 -0.4839  0.1807  1.2293
   27MOL   H19313245   1.407   2.662   0.948  0.1531 -1.2276  1.2347
   27MOL   H19413246   1.492   2.719   1.094  0.7812  0.9655 -0.7442
   27MOL   H19513247   1.990   2.657   1.128  0.1630 -2.1885 -0.3563
   27MOL   H19613248   2.039   2.582   0.964 -1.0073 -0.9651  1.1801
   27MOL   H19713249   2.196   2.762   1.199 -1.6851 -1.6425 -1.0377
   27MOL   H19813250   2.348   2.962   1.163 -1.6361  1.2102  0.1089
   27MOL   H19913251   2.332   3.103   0.966 -1.5713  1.0997  0.7032
   27MOL   H20013252   2.196   3.030   0.774  0.5707  2.3527  1.2040
   27MOL   H20113253   2.030   2.838   0.804 -1.8380 -1.4572  1.8921
   27MOL   C20213254   1.631   2.604   0.794  0.4793  0.5778  0.2931
   27MOL   C20313255   1.650   2.450   0.766  0.2400  0.0460  0.0556
   27MOL   C20413256   1.634   2.439   0.616  0.2376 -0.2582  0.3067
   27MOL   C20513257   1.540   2.363   0.839 -0.2306 -0.1393 -0.7577
   27MOL   O20613258   1.570   2.306   0.945 -0.3589 -0.1993 -0.1300
   27MOL   O20713259   1.420   2.370   0.783 -0.4677 -0.8010  0.1793
   27MOL   C20813260   1.304   2.313   0.849  0.6821 -0.2012  0.6955
   27MOL   C20913261   1.194   2.301   0.747  1.2976 -0.3785 -0.5877
   27MOL   C21013262   1.116   2.182   0.735  0.5590  0.1779 -0.1812
   27MOL   C21113263   1.012   2.182   0.639 -0.1573  0.9090 -0.5559
   27MOL   C21213264   0.985   2.288   0.557  0.4123 -0.2880 -0.1530
   27MOL   C21313265   1.062   2.405   0.566 -0.2794 -0.4564  0.8431
   27MOL   C21413266   1.168   2.410   0.662  0.2616 -0.6469  0.2692
   27MOL   H21513267   1.720   2.638   0.742  0.6019  0.5316  0.4714
   27MOL   H21613268   1.535   2.623   0.747  0.2833  1.1247  0.9128
   27MOL   H21713269   1.629   2.335   0.584 -1.1987  0.0641 -0.5327
   27MOL   H21813270   1.721   2.489   0.573 -1.0693  1.1704 -0.7212
   27MOL   H21913271   1.538   2.482   0.589  0.4840  0.1854  0.1347
   27MOL   H22013272   1.312   2.212   0.890 -2.6945 -0.4868  0.8539
   27MOL   H22113273   1.272   2.376   0.933 -0.5309  0.9785 -0.6243
   27MOL   H22213274   1.138   2.105   0.807  2.1783 -0.3470 -1.2153
   27MOL   H22313275   0.941   2.101   0.633 -0.5978  1.1196  1.2762
   27MOL   H22413276   0.901   2.281   0.489  1.6734  1.2808 -1.9159
   27MOL   H22513277   1.030   2.492   0.512  0.4134 -1.9769 -2.1406
   27MOL   H22613278   1.219   2.505   0.663 -1.0413  0.0577  1.9347
   27MOL   C22713279   1.791   2.403   0.814 -0.5285  0.3637  0.2189
   27MOL   C22813280   1.892   2.285   0.761 -0.4559 -0.1605  0.0941
   27MOL   C22913281   2.021   2.307   0.851 -0.4524 -0.0947  0.1718
   27MOL   C23013282   1.926   2.311   0.614  0.9366  0.0036  0.1425
   27MOL   O23113283   1.890   2.231   0.532  0.1330 -0.0716 -0.3474
   27MOL   O23213284   1.984   2.431   0.589  0.2395 -0.5870 -0.0130
   27MOL   C23313285   2.006   2.472   0.457  0.3570 -0.1123  0.1314
   27MOL   C23413286   2.045   2.618   0.447 -0.4699 -0.2331  1.1195
   27MOL   C23513287   2.015   2.695   0.334  0.7701 -0.4948  0.6002
   27MOL   C23613288   2.056   2.830   0.327 -0.3406 -0.1872  0.2351
   27MOL   C23713289   2.124   2.888   0.440 -0.4440  0.4293  0.8368
   27MOL   C23813290   2.151   2.809   0.552  0.8037  0.1442 -1.0643
   27MOL   C23913291   2.110   2.674   0.554 -0.3377 -0.5133  0.0416
   27MOL   H24013292   1.789   2.379   0.920  0.0288  0.7737  0.3258
   27MOL   H24113293   1.859   2.488   0.813  0.4773 -0.4272 -1.0332
   27MOL   H24213294   2.062   2.407   0.839  0.5700 -0.2270  2.2906
   27MOL   H24313295   2.112   2.248   0.840 -1.4104 -1.1927 -2.2069
   27MOL   H24413296   1.996   2.308   0.957  0.2079 -0.0533  0.3310
   27MOL   H24513297   2.078   2.404   0.410 -0.9027 -2.8348  1.9651
   27MOL   H24613298   1.906   2.474   0.414 -0.0616  2.1312  1.1357
   27MOL   H24713299   1.974   2.647   0.246 -1.4504 -1.9938  2.3881
   27MOL   H24813300   2.056   2.885   0.234 -1.7096 -1.3791 -0.4893
   27MOL   H24913301   2.164   2.988   0.441 -2.3466  1.2033  1.4553
   27MOL   H25013302   2.210   2.846   0.635 -0.3746 -2.1988  0.8686
   27MOL   H25113303   2.136   2.615   0.641 -0.7315  1.5209  1.5780
   27MOL   C25213304   1.820   2.144   0.785  0.0621 -0.5350 -0.2879
   27MOL   C25313305   1.901   2.015   0.781 -0.0430  0.5906  0.4822
   27MOL   C25413306   1.802   1.910   0.714 -0.0717 -0.2393 -0.1002
   27MOL   C25513307   1.924   1.983   0.930  0.9012  0.0150  0.1415
   27MOL   O25613308   2.016   2.028   1.000  0.1078 -0.1341  0.2851
   27MOL   O25713309   1.838   1.899   0.983 -0.0863  0.0979  0.3995
   27MOL   C25813310   1.834   1.878   1.133 -0.3441 -0.0253 -0.1632
   27MOL   C25913311   1.734   1.774   1.183 -0.5674  0.6981 -0.1093
   27MOL   C26013312   1.773   1.645   1.216  0.0544 -0.1701 -0.2307
   27MOL   C26113313   1.687   1.553   1.279 -0.5587 -0.4008  0.1442
   27MOL   C26213314   1.560   1.596   1.320 -0.1566 -0.1498 -0.4828
   27MOL   C26313315   1.519   1.728   1.286 -0.0215 -0.0161 -0.6433
   27MOL   C26413316   1.599   1.816   1.218 -0.6272  0.7625 -0.6145
   27MOL   H26513317   1.737   2.134   0.715 -2.5153 -1.3217  2.7816
   27MOL   H26613318   1.764   2.149   0.878  1.2760  0.4055  0.4137
   27MOL   H26713319   1.800   1.912   0.605 -0.0721  0.8069 -0.0831
   27MOL   H26813320   1.698   1.923   0.743  0.3291  3.6308 -0.1643
   27MOL   H26913321   1.833   1.811   0.749 -1.0093 -0.3618  0.3900
   27MOL   H27013322   1.930   1.848   1.174 -1.0637 -2.1914  0.0229
   27MOL   H27113323   1.814   1.972   1.184 -0.5773 -1.1998  1.9740
   27MOL   H27213324   1.876   1.615   1.212  0.2491  0.3359  0.9386
   27MOL   H27313325   1.734   1.459   1.304 -0.7283 -0.5523 -0.0980
   27MOL   H27413326   1.491   1.531   1.371  0.0947 -0.4258 -0.4970
   27MOL   H27513327   1.421   1.763   1.315  0.2705  0.5840 -0.3555
   27MOL   H27613328   1.572   1.920   1.208 -0.6665  0.7157 -1.0247
   27MOL   C27713329   2.030   2.011   0.688  0.1392  0.2023 -0.5953
   27MOL   C27813330   2.144   1.906   0.685 -0.0654 -0.3745 -0.1372
   27MOL   C27913331   2.088   1.765   0.706  0.3232 -0.1653  0.0322
   27MOL   C28013332   2.242   1.944   0.798 -0.0272  0.6463 -0.8557
   27MOL   O28113333   2.279   1.865   0.890  0.5457 -0.1372 -0.6142
   27MOL   O28213334   2.290   2.074   0.791  0.7775  0.2734  0.1818
   27MOL   C28313335   2.370   2.122   0.903 -0.1019 -0.0253  0.0349
   27MOL   C28413336   2.388   2.273   0.897 -0.6917  0.3218  0.6777
   27MOL   C28513337   2.339   2.357   0.997  0.3364  0.0448  0.0881
   27MOL   C28613338   2.339   2.495   0.972 -0.4796  0.1378  0.7224
   27MOL   C28713339   2.386   2.542   0.847  0.4214  0.5710 -1.0054
   27MOL   C28813340   2.438   2.463   0.750 -0.2783 -0.6211  0.6629
   27MOL   C28913341   2.438   2.326   0.772  0.3154  0.4617 -0.8876
   27MOL   H29013342   2.071   2.112   0.694  0.8130 -0.1001  0.0398
   27MOL   H29113343   1.997   2.013   0.584  1.9399 -2.1962 -1.2542
   27MOL   H29213344   2.167   1.689   0.701 -0.1587 -0.6821  0.1832
   27MOL   H29313345   2.002   1.739   0.644  0.7064  0.8789 -0.9531
   27MOL   H29413346   2.048   1.754   0.807 -0.4475  0.0046 -0.2503
   27MOL   H29513347   2.312   2.083   0.987  1.0411 -0.4037  0.6690
   27MOL   H29613348   2.468   2.073   0.908 -1.0452 -2.1258 -1.3635
   27MOL   H29713349   2.293   2.318   1.086  0.0795  1.2744  0.5096
   27MOL   H29813350   2.286   2.569   1.031 -0.5284 -0.1143  0.9944
   27MOL   H29913351   2.383   2.647   0.822 -1.4369  0.8250  0.2158
   27MOL   H30013352   2.469   2.503   0.655 -1.0286 -0.4904  0.4679
   27MOL   H30113353   2.467   2.258   0.694 -1.6309 -1.4080 -0.0440
   27MOL   C30213354   2.218   1.915   0.541 -0.3382  0.3981 -0.4609
   27MOL   C30313355   2.357   1.855   0.497 -0.3276 -0.0323 -0.8522
   27MOL   C30413356   2.391   1.714   0.558 -0.4165 -0.2239  0.3937
   27MOL   C30513357   2.462   1.968   0.535  0.4986  0.5434  0.5719
   27MOL   O30613358   2.446   2.091   0.514 -0.3269  0.6766  0.1763
   27MOL   O30713359   2.574   1.909   0.592 -0.0956 -0.0224  0.1354
   27MOL   C30813360   2.672   1.997   0.637 -0.1234  0.0964 -0.0897
   27MOL   C30913361   2.774   1.915   0.714  0.1533 -0.0974  0.2063
   27MOL   C31013362   2.909   1.898   0.682  0.6718 -0.4410  0.6058
   27MOL   C31113363   2.996   1.820   0.762 -0.5486 -0.3740  0.4930
   27MOL   C31213364   2.947   1.767   0.884 -0.1730  0.3442 -0.0474
   27MOL   C31313365   2.813   1.779   0.914  0.4870 -0.2690 -0.0559
   27MOL   C31413366   2.727   1.854   0.833  0.5267  0.2752 -0.4567
   27MOL   H31513367   2.201   2.011   0.492 -0.4043  0.5638 -0.1099
   27MOL   H31613368   2.148   1.851   0.486  0.3915 -1.9006  1.1973
   27MOL   H31713369   2.309   1.643   0.548 -1.1077  0.0877  3.3925
   27MOL   H31813370   2.423   1.729   0.661  1.3704  0.0894 -0.1713
   27MOL   H31913371   2.486   1.680   0.516 -0.3406 -2.9539  2.6703
   27MOL   H32013372   2.726   2.037   0.550  1.0966  0.9705  1.0498
   27MOL   H32113373   2.635   2.082   0.693  1.0382 -0.2128  1.1663
   27MOL   H32213374   2.943   1.934   0.586 -1.0799  0.5531  0.3478
   27MOL   H32313375   3.098   1.800   0.730 -0.1638 -1.4926  2.3416
   27MOL   H32413376   3.010   1.698   0.938  1.9281  1.1814 -1.3565
   27MOL   H32513377   2.775   1.747   1.010  2.5983 -1.4448  0.4199
   27MOL   H32613378   2.625   1.884   0.855  0.5676 -1.1011  1.7358
   27MOL   C32713379   2.341   1.827   0.339 -0.3410 -0.3742 -0.1109
   27MOL   C32813380   2.447   1.837   0.229 -0.5413  0.4225 -0.1502
   27MOL   C32913381   2.563   1.748   0.270  0.0471 -0.4720  0.5592
   27MOL   C33013382   2.495   1.978   0.200 -0.3355 -0.5479  0.5672
   27MOL   O33113383   2.614   2.010   0.212  0.7496 -0.4267 -0.0401
   27MOL   O33213384   2.400   2.068   0.150 -0.4490  0.2126  0.0842
   27MOL   C33313385   2.444   2.196   0.097 -0.3946 -0.3695 -0.2496
   27MOL   C33413386   2.439   2.308   0.192 -1.6533  0.2513  0.3450
   27MOL   C33513387   2.374   2.303   0.314  0.1880  0.0234 -0.3445
   27MOL   C33613388   2.367   2.417   0.399  0.5020 -0.3955 -0.2372
   27MOL   C33713389   2.428   2.540   0.357  0.1577 -0.4257 -0.1497
   27MOL   C33813390   2.503   2.542   0.239  0.1115  0.7790 -0.2381
   27MOL   C33913391   2.502   2.429   0.158 -0.0360 -0.2428 -0.8064
   27MOL   H34013392   2.255   1.881   0.300 -0.9562 -0.3412  1.2691
   27MOL   H34113393   2.288   1.732   0.336 -0.6616 -0.2636  1.8179
   27MOL   H34213394   2.610   1.780   0.363 -1.8638  1.4909  0.8935
   27MOL   H34313395   2.644   1.731   0.199  2.1397  2.1359  2.2479
   27MOL   H34413396   2.511   1.654   0.292  0.5863 -0.6670  1.0045
   27MOL   H34513397   2.540   2.191   0.047  0.1510  0.0443  0.7541
   27MOL   H34613398   2.365   2.206   0.023  1.3408  0.0438 -2.0739
   27MOL   H34713399   2.315   2.215   0.333 -1.6210  0.6763 -2.6461
   27MOL   H34813400   2.311   2.418   0.492 -0.6551 -0.1455 -0.9305
   27MOL   H34913401   2.419   2.627   0.421  3.1170  0.7900 -1.3214
   27MOL   H35013402   2.553   2.632   0.203  1.8372 -0.1943 -0.3478
   27MOL   H35113403   2.548   2.432   0.060  0.4657  1.8922 -0.5146
   27MOL   C35213404   2.371   1.778   0.097  0.5441 -0.2101 -0.6165
   27MOL   C35313405   2.444   1.725   7.972 -0.2101  1.4024  0.0718
   27MOL   C35413406   2.337   1.732   7.857 -0.2802  0.1622  0.1680
   27MOL   C35513407   2.472   1.571   8.001  0.2165 -0.1945  0.1443
   27MOL   O35613408   2.570   1.530   0.062 -0.2459 -0.2286  0.1542
   27MOL   O35713409   2.379   1.492   7.962 -0.7634 -0.1344 -0.1638
   27MOL   C35813410   2.406   1.355   7.947  0.8784 -0.9279  0.3302
   27MOL   C35913411   2.291   1.261   7.952 -0.3275  0.2548  0.2338
   27MOL   C36013412   2.174   1.296   7.885  0.2683 -0.2318  0.4011
   27MOL   C36113413   2.058   1.219   7.890  0.2870 -0.7406  0.6788
   27MOL   C36213414   2.055   1.102   7.965  0.0421 -0.0399  0.2693
   27MOL   C36313415   2.169   1.070   0.030 -0.2082  0.8687  0.1078
   27MOL   C36413416   2.290   1.147   0.026 -0.2414 -0.0427 -0.4792
   27MOL   H36513417   2.300   1.856   0.068  2.9293  2.1098 -0.4440
   27MOL   H36613418   2.304   1.696   0.121  1.9895 -0.7230  1.8839
   27MOL   H36713419   2.364   1.681   7.765 -0.6603 -2.0996  1.2624
   27MOL   H36813420   2.313   1.836   7.835  1.4765  0.8522  1.3670
   27MOL   H36913421   2.243   1.693   7.896  0.1504 -1.1413 -0.0940
   27MOL   H37013422   2.457   1.337   7.853  0.3480  1.2589 -0.4127
   27MOL   H37113423   2.478   1.335   0.020  0.6921 -2.2482  0.1661
   27MOL   H37213424   2.170   1.384   7.823 -1.6925 -1.0901 -0.7299
   27MOL   H37313425   1.970   1.242   7.831  0.0665 -2.9292  0.1118
   27MOL   H37413426   1.968   1.039   7.959 -1.1822  1.7094 -1.1669
   27MOL   H37513427   2.165   0.978   0.088  1.5035 -0.0311 -1.1469
   27MOL   H37613428   2.381   1.109   0.070 -0.4474 -0.3034 -0.2792
   27MOL   C37713429   2.561   1.824   7.933  0.9071  0.0308 -0.2982
   27MOL   C37813430   2.638   1.804   7.797 -0.7095  0.2795  0.0108
   27MOL   C37913431   2.573   1.887   7.679 -0.1054  0.4946 -0.9466
   27MOL   C38013432   2.649   1.664   7.748  0.5554 -0.4992 -0.2614
   27MOL   O38113433   2.601   1.621   7.642 -0.5757 -0.3463  0.6654
   27MOL   O38213434   2.715   1.585   7.830  0.0338  0.0746  0.1066
   27MOL   C38313435   2.738   1.448   7.799  0.2724  0.1688 -0.4488
   27MOL   C38413436   2.857   1.437   7.702 -0.5758 -0.3598 -0.2593
   27MOL   C38513437   2.853   1.348   7.595  1.4098  0.2950  0.1421
   27MOL   C38613438   2.959   1.338   7.504 -0.1616 -0.0713  0.6688
   27MOL   C38713439   3.084   1.405   7.532 -0.0380 -0.2903 -0.2569
   27MOL   C38813440   3.095   1.490   7.642  0.9484 -0.1716  0.0672
   27MOL   C38913441   2.986   1.498   7.731 -0.5636 -0.4053  0.1894
   27MOL   H39013442   2.634   1.823   0.007  1.6169 -0.8151 -0.9509
   27MOL   H39113443   2.518   1.924   7.930  0.8563  0.1979  3.1586
   27MOL   H39213444   2.636   1.913   7.593  1.5003  2.9708  0.9361
   27MOL   H39313445   2.535   1.981   7.718 -2.5256 -0.1474 -1.6642
   27MOL   H39413446   2.491   1.828   7.637 -0.1400  0.2760 -0.5681
   27MOL   H39513447   2.763   1.398   7.893  3.0586  1.6990 -0.3108
   27MOL   H39613448   2.653   1.414   7.740  0.7860 -1.1806 -0.4171
   27MOL   H39713449   2.763   1.295   7.569  0.5071  1.4890  0.7954
   27MOL   H39813450   2.946   1.281   7.414 -0.0107 -0.8804  1.1468
   27MOL   H39913451   3.169   1.383   7.470  1.4737  1.4250  1.1204
   27MOL   H40013452   3.191   1.533   7.668  0.0199  1.2543  1.2093
   27MOL   H40113453   3.002   1.553   7.822  0.0551 -0.2294 -0.0244
   27MOL   C40213454   2.792   1.859   7.807  0.8268  0.0369 -0.0532
   27MOL   C40313455   2.835   2.008   7.825 -0.2101  0.2996  0.0119
   27MOL   C40413456   2.735   2.102   7.906  0.3691  0.6830  0.5536
   27MOL   C40513457   2.839   2.072   7.683 -0.1215 -0.1205 -0.2712
   27MOL   O40613458   2.797   2.183   7.654 -0.3794  0.3613 -0.3602
   27MOL   O40713459   2.898   1.991   7.592 -0.3190 -0.6857  0.6173
   27MOL   C40813460   2.936   2.036   7.468  0.9577  0.1666  0.1080
   27MOL   C40913461   2.979   1.923   7.379  0.4528  0.1250  0.0321
   27MOL   C41013462   2.955   1.791   7.424  0.7980 -0.3540  0.1087
   27MOL   C41113463   2.972   1.683   7.331 -0.1361  0.3250  1.2575
   27MOL   C41213464   3.032   1.708   7.206 -0.1931  0.1186  0.2687
   27MOL   C41313465   3.061   1.841   7.163 -0.4684  0.3537 -0.3137
   27MOL   C41413466   3.034   1.949   7.252  0.3265  0.7236 -0.7627
   27MOL   H41513467   2.850   1.818   7.724 -0.5983 -0.4170 -0.8576
   27MOL   H41613468   2.837   1.794   7.882 -0.2712  0.0646  0.6466
   27MOL   H41713469   2.769   2.205   7.911  1.7893  0.2688 -0.0381
   27MOL   H41813470   2.722   2.064   0.001  1.6707  0.2699  0.5752
   27MOL   H41913471   2.643   2.110   7.848  0.6509 -3.6828 -0.6735
   27MOL   H42013472   2.852   2.095   7.433 -0.8179 -1.1977  1.9294
   27MOL   H42113473   3.024   2.100   7.480  1.2544 -0.5289  1.8567
   27MOL   H42213474   2.904   1.770   7.516 -1.4130 -0.3366 -1.0787
   27MOL   H42313475   2.944   1.583   7.360  2.9091 -1.7624 -2.4322
   27MOL   H42413476   3.051   1.629   7.135  0.9418 -0.5846  1.3308
   27MOL   H42513477   3.080   1.858   7.058 -0.4991  2.6599  0.0363
   27MOL   H42613478   3.051   2.051   7.223 -1.6643  1.2487 -0.1820
   27MOL   C42713479   2.989   2.020   7.871  0.2204 -0.1893 -0.0278
   27MOL   C42813480   3.035   2.060   0.004 -0.0910  0.0532 -0.1859
   27MOL   C42913481   2.970   1.959   0.106 -0.0410  0.0376 -0.2684
   27MOL   C43013482   3.009   2.204   0.045 -0.0296  0.5048  0.1234
   27MOL   O43113483   3.011   2.289   7.967  0.1440  0.3007  0.9494
   27MOL   O43213484   2.992   2.227   0.176 -0.5127 -0.4033 -0.0811
   27MOL   C43313485   2.991   2.357   0.229  0.3162 -0.1958  0.0966
   27MOL   C43413486   2.910   2.378   0.355 -0.3220 -0.2121  0.6305
   27MOL   C43513487   2.962   2.453   0.463 -0.1798 -0.1841  0.1042
   27MOL   C43613488   2.888   2.463   0.586  0.1642 -0.2257 -0.3793
   27MOL   C43713489   2.754   2.424   0.589 -1.1937  0.1772 -0.9320
   27MOL   C43813490   2.704   2.346   0.479  0.4421  0.0752  0.7278
   27MOL   C43913491   2.783   2.323   0.364 -0.3668 -0.1426  0.0069
   27MOL   H44013492   3.049   2.075   7.797  1.3183 -0.7841  0.4021
   27MOL   H44113493   3.037   1.923   7.856  1.4848  0.5587 -1.0043
   27MOL   H44213494   2.877   1.913   0.074  0.7252 -1.4691 -0.3831
   27MOL   H44313495   2.950   1.986   0.210 -2.4281  0.4351 -0.7923
   27MOL   H44413496   3.034   1.871   0.118 -1.4114 -0.5342  3.9614
   27MOL   H44513497   3.091   2.396   0.245  0.4295 -0.8426  1.0507
   27MOL   H44613498   2.936   2.426   0.167 -0.4826 -1.3258 -0.4694
   27MOL   H44713499   3.062   2.492   0.449 -1.6659  4.0291  0.6104
   27MOL   H44813500   2.926   2.519   0.670 -1.9994 -0.3862  0.7456
   27MOL   H44913501   2.703   2.439   0.683 -1.1676  1.3436 -1.1029
   27MOL   H45013502   2.602   2.312   0.483 -0.4105  2.1300 -1.9994
   27MOL   H45113503   2.749   2.265   0.280  2.1818  0.1738 -1.2936
   27MOL   C45213504   3.191   2.032   0.020 -0.0572  0.0566  0.6792
   27MOL   C45313505   3.309   2.101   7.938 -0.5252 -0.0180 -0.5877
   27MOL   C45413506   3.315   2.254   7.968  0.0217 -0.6170 -0.4394
   27MOL   C45513507   3.297   2.077   7.788 -0.3404 -0.1146 -0.3164
   27MOL   O45613508   3.303   2.174   7.705 -0.5229  0.2271 -0.2108
   27MOL   O45713509   3.292   1.948   7.753 -0.5358  0.4359  0.4329
   27MOL   C45813510   3.260   1.913   7.619 -0.2495 -0.4201  0.1522
   27MOL   C45913511   3.333   1.782   7.578 -0.2235  0.5349  0.2407
   27MOL   C46013512   3.300   1.718   7.459  0.3466  0.1103  0.1753
   27MOL   C46113513   3.367   1.596   7.421 -0.0527  0.0752  0.0898
   27MOL   C46213514   3.464   1.542   7.505 -0.4413  0.6068  0.2336
   27MOL   C46313515   3.500   1.607   7.624 -0.4082  0.0816 -0.1704
   27MOL   C46413516   3.428   1.715   7.668 -0.2841 -0.0370  0.3828
   27MOL   H46513517   3.206   1.924   0.009 -1.0095  0.0436 -0.6132
   27MOL   H46613518   3.218   2.052   0.124 -0.0044 -0.3067  0.7356
   27MOL   H46713519   3.302   2.269   0.068  0.6431 -1.8407 -0.1724
   27MOL   H46813520   3.244   2.316   7.914 -0.8924 -2.2369 -1.1589
   27MOL   H46913521   3.411   2.297   7.939  0.5441 -0.9252  0.7969
   27MOL   H47013522   3.156   1.882   7.608  0.3887 -2.1999 -1.0138
   27MOL   H47113523   3.304   1.979   7.544  0.2228 -0.2305  0.5989
   27MOL   H47213524   3.232   1.753   7.384 -2.9182 -3.3725  1.3656
   27MOL   H47313525   3.347   1.542   7.330 -0.4409 -2.7112  1.7609
   27MOL   H47413526   3.517   1.450   7.484  1.1842  0.7012  3.5567
   27MOL   H47513527   3.564   1.555   7.692  0.7920  1.7312 -0.0037
   27MOL   H47613528   3.445   1.758   7.766 -0.3658  0.7909  0.0434
   27MOL   C47713529   3.444   2.033   7.984  0.0709 -0.1876 -0.7569
   27MOL   C47813530   3.583   2.079   7.925 -0.2699 -0.6157  0.2322
   27MOL   C47913531   3.678   1.977   7.863 -0.3299  0.4196 -0.1801
   27MOL   C48013532   3.661   2.174   0.019 -0.0280 -0.6301 -0.1357
   27MOL   O48113533   3.695   2.284   7.993  0.6410  0.1373 -0.1008
   27MOL   O48213534   3.683   2.111   0.137  0.1094 -0.2219  0.2615
   27MOL   C48313535   3.733   2.189   0.244  0.5270 -0.4845 -0.0101
   27MOL   C48413536   3.625   2.239   0.334  0.1149 -0.7760  0.5559
   27MOL   C48513537   3.639   2.362   0.403 -0.2679 -0.0487 -0.4384
   27MOL   C48613538   3.527   2.403   0.480 -0.4128  0.5316 -0.5089
   27MOL   C48713539   3.407   2.329   0.485 -0.0988  0.3009 -0.9984
   27MOL   C48813540   3.400   2.203   0.426  0.4223  0.3561 -0.2000
   27MOL   C48913541   3.508   2.166   0.354 -0.5803 -0.1472 -1.1350
   27MOL   H49013542   3.440   1.924   7.977 -2.7729 -0.2401  0.9374
   27MOL   H49113543   3.445   2.049   0.085 -0.3057  0.6409 -0.8738
   27MOL   H49213544   3.705   1.900   7.936  1.6858 -1.1515 -2.5257
   27MOL   H49313545   3.765   2.031   7.827 -0.1461 -1.3658 -2.4551
   27MOL   H49413546   3.642   1.933   7.771  2.4523  0.5804 -1.3761
   27MOL   H49513547   3.799   2.120   0.296  1.0280 -1.6001 -2.0825
   27MOL   H49613548   3.790   2.278   0.218  0.9704 -0.6428  0.4140
   27MOL   H49713549   3.729   2.421   0.399 -1.0764  1.2887  0.5505
   27MOL   H49813550   3.542   2.491   0.540 -1.3556 -1.0985  2.1931
   27MOL   H49913551   3.328   2.382   0.535 -0.7307 -0.8699 -0.7324
   27MOL   H50013552   3.313   2.140   0.433  1.2000 -0.7730 -0.4393
   27MOL   H50113553   3.487   2.083   0.288 -0.4491 -2.2306  1.3459
   27MOL   H50213554   3.548   2.139   7.841  1.1505  1.4084  1.0587
   28MOL     C113555   0.878   4.405   2.595 -0.0208 -0.2905  0.1149
   28MOL     C213556   0.946   4.407   2.452  0.1380  0.4522  0.6262
   28MOL     C313557   0.832   4.381   2.351  1.0583  0.6369 -0.1208
   28MOL     C413558   1.048   4.292   2.440  0.0707  0.1914  0.1941
   28MOL     O513559   1.057   4.210   2.531 -0.6753 -0.3462 -0.2631
   28MOL     O613560   1.118   4.285   2.326  0.1700 -0.1524 -0.6237
   28MOL     C713561   1.171   4.153   2.287 -0.7312  0.2211  0.4896
   28MOL     C813562   1.292   4.171   2.204 -0.0080  0.6260 -0.1943
   28MOL     C913563   1.356   4.295   2.168 -0.1031 -0.2142 -0.5606
   28MOL    C1013564   1.473   4.299   2.089 -0.1661 -0.3960  0.4141
   28MOL    C1113565   1.531   4.177   2.042  0.1378 -0.2549 -0.1052
   28MOL    C1213566   1.470   4.060   2.089  0.0358  0.7913  0.1449
   28MOL    C1313567   1.357   4.051   2.165 -0.2922  0.0978  0.5715
   28MOL    H1413568   0.801   4.482   2.607 -0.7834 -0.7723 -1.5569
   28MOL    H1513569   0.843   4.303   2.606 -1.2611  0.1597  0.4761
   28MOL    H1613570   0.765   4.467   2.352  0.1444 -0.0778  1.3352
   28MOL    H1713571   0.773   4.293   2.372  1.2364  0.1577 -1.5349
   28MOL    H1813572   0.868   4.361   2.250  1.8472  2.1147 -0.1525
   28MOL    H1913573   1.199   4.084   2.367  1.4225  1.2249  0.6456
   28MOL    H2013574   1.090   4.104   2.233 -1.6636 -0.3191  2.3422
   28MOL    H2113575   1.315   4.389   2.203 -0.0510 -0.0598 -0.9157
   28MOL    H2213576   1.524   4.392   2.071 -2.2457  1.0194  1.5950
   28MOL    H2313577   1.613   4.177   1.972  0.8818  1.4775  0.7287
   28MOL    H2413578   1.497   3.962   2.051  2.0046  2.0927 -1.9155
   28MOL    H2513579   1.311   3.957   2.193 -0.0858  0.5430  2.4275
   28MOL    H2613580   0.949   4.416   2.677 -3.2621 -1.2489  3.1733
   28MOL    C2713581   1.004   4.548   2.415  0.2771 -0.5423  0.0209
   28MOL    C2813582   1.102   4.637   2.503 -0.4471 -0.3118  0.1498
   28MOL    C2913583   1.212   4.542   2.552  0.2167 -0.0830 -0.5099
   28MOL    C3013584   1.033   4.695   2.628 -0.5257  0.8967 -0.6415
   28MOL    O3113585   0.910   4.710   2.630  0.5609 -0.0409 -0.0945
   28MOL    O3213586   1.128   4.737   2.714  0.0256 -0.4253 -0.0153
   28MOL    C3313587   1.088   4.817   2.821  0.3473 -0.2248 -0.2801
   28MOL    C3413588   0.997   4.755   2.925 -0.2654 -0.3527 -0.3147
   28MOL    C3513589   0.999   4.615   2.933  0.3308 -0.6374 -0.1705
   28MOL    C3613590   0.913   4.551   3.025  0.0985 -0.4202  0.2120
   28MOL    C3713591   0.826   4.621   3.107 -0.8778 -0.0212 -0.5879
   28MOL    C3813592   0.824   4.761   3.102  0.3787 -0.6672  0.3294
   28MOL    C3913593   0.909   4.828   3.014  0.4992  0.1144 -0.1518
   28MOL    H4013594   0.919   4.615   2.402  0.6261  0.2040  1.5281
   28MOL    H4113595   1.050   4.540   2.316  0.7382  0.6533  0.1423
   28MOL    H4213596   1.258   4.497   2.464  0.5820 -0.2410 -0.2383
   28MOL    H4313597   1.193   4.455   2.615  1.7632  0.3780  0.6196
   28MOL    H4413598   1.294   4.587   2.607 -0.7103 -0.0765  0.9126
   28MOL    H4513599   1.176   4.864   2.865 -0.3066  1.8140 -1.0452
   28MOL    H4613600   1.020   4.893   2.780  0.2168 -1.0331 -1.5644
   28MOL    H4713601   1.056   4.551   2.867  1.7740 -1.1110  1.5167
   28MOL    H4813602   0.911   4.443   3.021 -2.7990 -0.4824  1.7707
   28MOL    H4913603   0.764   4.571   3.180 -1.9141  0.6916 -0.9640
   28MOL    H5013604   0.764   4.822   3.168 -0.4376 -0.2694 -0.7698
   28MOL    H5113605   0.900   4.936   3.021  1.3019  0.0989  1.2220
   28MOL    C5213606   1.174   4.743   2.411  0.3841  0.0971 -0.2210
   28MOL    C5313607   1.102   4.854   2.334  0.3275  0.1198  0.1667
   28MOL    C5413608   1.023   4.951   2.421  0.4220 -0.3871  0.2500
   28MOL    C5513609   1.010   4.793   2.221 -0.4080 -0.7257 -0.4521
   28MOL    O5613610   0.890   4.829   2.207 -0.0753  0.7668  0.7628
   28MOL    O5713611   1.073   4.710   2.132  0.0114  0.2662 -0.0041
   28MOL    C5813612   1.006   4.669   2.014 -0.4927  0.3101  0.4185
   28MOL    C5913613   1.103   4.595   1.918 -0.8629 -0.1994 -0.4640
   28MOL    C6013614   1.059   4.478   1.853  0.2035  0.0182  0.0674
   28MOL    C6113615   1.145   4.415   1.757  0.5406  0.1276  0.0594
   28MOL    C6213616   1.279   4.457   1.735 -0.2331  0.2243 -0.2581
   28MOL    C6313617   1.323   4.572   1.808  0.0824 -0.4607  0.1359
   28MOL    C6413618   1.239   4.638   1.901  0.4939  0.5427 -1.0036
   28MOL    H6513619   1.226   4.683   2.336 -0.3946 -0.2559 -0.4839
   28MOL    H6613620   1.256   4.787   2.468  0.1056 -0.5093  0.6686
   28MOL    H6713621   1.009   5.045   2.368 -0.5484  0.1021  1.3427
   28MOL    H6813622   1.073   4.971   2.516 -0.2575  0.4309  0.4413
   28MOL    H6913623   0.929   4.904   2.449  1.2701 -2.9741 -1.1237
   28MOL    H7013624   0.911   4.619   2.035 -0.8898  0.3006 -1.3014
   28MOL    H7113625   0.982   4.762   1.961 -0.6407 -0.2505 -0.5226
   28MOL    H7213626   0.960   4.436   1.864 -1.1506  1.9792 -3.6387
   28MOL    H7313627   1.113   4.330   1.700  0.7988 -0.2168  0.4247
   28MOL    H7413628   1.345   4.406   1.667  0.2628  0.6355 -0.0922
   28MOL    H7513629   1.418   4.622   1.796  0.2478 -0.6216  0.7815
   28MOL    H7613630   1.279   4.727   1.948  0.6757  1.6190 -3.1317
   28MOL    C7713631   1.213   4.930   2.248  0.0464  0.1096 -0.0900
   28MOL    C7813632   1.195   5.063   2.156  0.5059 -0.1768  0.1041
   28MOL    C7913633   1.213   5.190   2.243  0.2232  0.8574  0.1639
   28MOL    C8013634   1.058   5.075   2.080 -0.2054  0.7836 -0.0339
   28MOL    O8113635   1.040   5.025   1.973  0.7641  0.0353  0.9366
   28MOL    O8213636   0.960   5.132   2.150 -0.3508 -0.5449 -0.2454
   28MOL    C8313637   0.828   5.161   2.105 -0.3794 -0.6971  0.0434
   28MOL    C8413638   0.815   5.304   2.060 -0.1797 -0.2138 -0.0472
   28MOL    C8513639   0.733   5.331   1.949 -0.0876  0.6871  0.1747
   28MOL    C8613640   0.709   5.459   1.901  0.8182 -0.6219  0.6003
   28MOL    C8713641   0.765   5.567   1.974 -0.1637  0.3549 -0.4348
   28MOL    C8813642   0.849   5.540   2.085  0.3747 -0.1964  0.1052
   28MOL    C8913643   0.878   5.408   2.130  0.6353  0.2373 -0.7071
   28MOL    H9013644   1.253   4.849   2.188 -0.2936 -1.0218  1.2052
   28MOL    H9113645   1.287   4.956   2.324  0.8962 -2.5083  0.0072
   28MOL    H9213646   1.167   5.172   2.340 -2.4528  1.6544 -0.9110
   28MOL    H9313647   1.173   5.275   2.188  0.5055 -0.3311 -1.9754
   28MOL    H9413648   1.316   5.220   2.260  0.0246  0.2476  2.5985
   28MOL    H9513649   0.812   5.104   2.013  0.3600  1.3444 -1.3820
   28MOL    H9613650   0.774   5.120   2.190 -0.4998  0.7738  0.6934
   28MOL    H9713651   0.684   5.243   1.909 -0.6230 -0.3660  2.9971
   28MOL    H9813652   0.655   5.471   1.808  0.4651 -1.4647  0.6879
   28MOL    H9913653   0.747   5.671   1.950  1.4028  0.8651  0.5504
   28MOL   H10013654   0.897   5.620   2.140 -0.9823  3.3348 -3.6574
   28MOL   H10113655   0.941   5.389   2.215  0.6677  1.2025 -0.5117
   28MOL   C10213656   1.302   5.051   2.044  0.2255 -0.9122 -0.3752
   28MOL   C10313657   1.461   5.058   2.061  0.1129 -0.4383  0.2763
   28MOL   C10413658   1.516   4.979   2.186  0.0835 -0.7966 -0.4336
   28MOL   C10513659   1.509   5.204   2.079  0.1739  0.0165 -0.4431
   28MOL   O10613660   1.605   5.232   2.154 -0.3427  0.4666 -0.0571
   28MOL   O10713661   1.421   5.290   2.032 -0.1892 -0.4565  0.7221
   28MOL   C10813662   1.438   5.430   2.044 -0.0292 -0.5975 -0.4556
   28MOL   C10913663   1.320   5.523   1.998 -0.3764 -0.4923  0.0608
   28MOL   C11013664   1.231   5.481   1.898 -0.5605  0.1374 -0.0254
   28MOL   C11113665   1.127   5.559   1.855 -0.2014  0.1337 -0.0669
   28MOL   C11213666   1.105   5.682   1.925 -0.2839 -0.4772 -0.0430
   28MOL   C11313667   1.188   5.723   2.032  0.2036 -0.5618 -0.4557
   28MOL   C11413668   1.303   5.647   2.068  0.3393  0.6639  0.0582
   28MOL   H11513669   1.280   5.122   1.965 -0.7874 -0.5694  0.2096
   28MOL   H11613670   1.278   4.957   1.993 -0.5738 -0.5056 -0.7504
   28MOL   H11713671   1.497   5.036   2.277 -1.0905  0.2634 -1.3253
   28MOL   H11813672   1.624   4.968   2.186  0.0880 -0.7759  0.6285
   28MOL   H11913673   1.479   4.877   2.194  1.6978 -1.3425  0.0626
   28MOL   H12013674   1.468   5.453   2.146  0.6270 -0.3161 -0.7088
   28MOL   H12113675   1.521   5.467   1.984  1.0085  0.5177  1.5840
   28MOL   H12213676   1.254   5.393   1.840  0.5138  1.3809 -1.5309
   28MOL   H12313677   1.072   5.539   1.765  0.9192 -1.2370 -0.4630
   28MOL   H12413678   1.035   5.753   1.882 -2.1447 -0.8781  2.2023
   28MOL   H12513679   1.173   5.824   2.065 -2.9409 -0.1982 -2.8180
   28MOL   H12613680   1.375   5.687   2.138  0.9397  0.8946 -0.6846
   28MOL   C12713681   1.535   4.995   1.936 -0.0044  0.0599  0.6353
   28MOL   C12813682   1.511   5.029   1.780  0.0876  0.6970 -0.3758
   28MOL   C12913683   1.364   4.986   1.740  0.3809 -0.4400 -0.0453
   28MOL   C13013684   1.612   4.934   1.710 -0.2926 -0.6021  0.2757
   28MOL   O13113685   1.700   4.988   1.643  0.0170 -0.4648  0.3338
   28MOL   O13213686   1.581   4.800   1.709  0.4129  0.6070 -0.0431
   28MOL   C13313687   1.644   4.707   1.626 -0.1321  0.0109  0.2560
   28MOL   C13413688   1.592   4.722   1.491  0.2110  0.3473 -0.0534
   28MOL   C13513689   1.688   4.759   1.396 -0.6740  0.5617 -0.1572
   28MOL   C13613690   1.652   4.766   1.259  0.4095 -0.5742 -0.4558
   28MOL   C13713691   1.519   4.743   1.223 -0.2265  0.5492  0.1406
   28MOL   C13813692   1.422   4.705   1.320  0.4771  0.0454  0.1823
   28MOL   C13913693   1.457   4.688   1.457  0.1983 -0.3248 -0.5930
   28MOL   H14013694   1.521   4.888   1.954 -0.9922  0.3664  1.7079
   28MOL   H14113695   1.641   5.017   1.938 -0.0131  0.4143 -1.4119
   28MOL   H14213696   1.286   5.060   1.759  0.6098 -0.2557  0.1763
   28MOL   H14313697   1.333   4.893   1.786  0.8323  0.4500  2.0990
   28MOL   H14413698   1.359   4.967   1.633 -1.4011 -0.5504  0.0519
   28MOL   H14513699   1.751   4.730   1.623 -0.9236  4.2681  1.2919
   28MOL   H14613700   1.623   4.607   1.665 -0.5182  0.3098  0.8325
   28MOL   H14713701   1.790   4.792   1.410 -0.1506 -0.5035 -1.3692
   28MOL   H14813702   1.724   4.799   1.185  1.4916  1.1972  1.3362
   28MOL   H14913703   1.496   4.769   1.121 -2.0684 -0.5543  0.2454
   28MOL   H15013704   1.326   4.669   1.286  0.7187  1.3250 -1.9675
   28MOL   H15113705   1.379   4.660   1.527 -2.0716 -1.0842 -3.2988
   28MOL   C15213706   1.527   5.182   1.749  0.2380 -0.5434  0.6640
   28MOL   C15313707   1.538   5.261   1.604 -0.0534 -0.5178 -0.0092
   28MOL   C15413708   1.457   5.185   1.500 -0.0096 -0.1677 -0.3085
   28MOL   C15513709   1.692   5.271   1.562  0.0442 -0.8173  0.4885
   28MOL   O15613710   1.779   5.284   1.642  0.2528 -0.3268  0.9137
   28MOL   O15713711   1.712   5.280   1.429 -0.3188  0.0854 -0.5330
   28MOL   C15813712   1.841   5.294   1.384  0.2141 -1.5177 -0.5571
   28MOL   C15913713   1.913   5.161   1.379 -0.8173 -0.7050 -0.6099
   28MOL   C16013714   2.006   5.132   1.476  0.5185 -0.1411 -0.3440
   28MOL   C16113715   2.070   5.007   1.486 -0.1043  0.4071 -0.1834
   28MOL   C16213716   2.042   4.913   1.386  0.0265  0.6608 -0.5387
   28MOL   C16313717   1.950   4.945   1.280 -0.0530  0.1723  0.3647
   28MOL   C16413718   1.879   5.066   1.283 -0.1917  0.1748 -0.2271
   28MOL   H16513719   1.611   5.221   1.806 -0.5189  1.5243  0.4023
   28MOL   H16613720   1.443   5.227   1.802  0.2839  0.8472 -0.4192
   28MOL   H16713721   1.352   5.168   1.525  0.2197 -4.0072 -1.5495
   28MOL   H16813722   1.504   5.091   1.471 -2.4051 -1.0047 -1.5386
   28MOL   H16913723   1.456   5.242   1.407  1.2234  1.8003  0.8440
   28MOL   H17013724   1.828   5.330   1.282 -1.0890  2.7439  1.0064
   28MOL   H17113725   1.897   5.370   1.437 -3.5306  0.7049  0.3772
   28MOL   H17213726   2.034   5.207   1.548 -2.1066 -1.4445  2.1470
   28MOL   H17313727   2.137   4.979   1.565 -0.9540  1.7124  1.0259
   28MOL   H17413728   2.094   4.819   1.386 -0.0807  0.5400 -4.3203
   28MOL   H17513729   1.921   4.874   1.204 -0.7264  2.2984 -1.4530
   28MOL   H17613730   1.803   5.094   1.211  0.2194  2.1602  0.0781
   28MOL   C17713731   1.476   5.406   1.635  0.1553  0.1608  0.1841
   28MOL   C17813732   1.508   5.542   1.571 -0.3750  0.8730  0.2585
   28MOL   C17913733   1.497   5.519   1.419 -0.3528 -0.2303  0.2727
   28MOL   C18013734   1.650   5.581   1.603  0.0178 -0.5939 -0.3994
   28MOL   O18113735   1.737   5.588   1.511  0.2071 -0.3191 -0.3653
   28MOL   O18213736   1.681   5.599   1.728  0.5985  0.1333  0.1739
   28MOL   C18313737   1.805   5.663   1.763  0.1170  0.2199 -0.1492
   28MOL   C18413738   1.810   5.713   1.906 -0.9235 -0.4320 -0.3191
   28MOL   C18513739   1.936   5.727   1.974  0.5644  0.2690  0.3809
   28MOL   C18613740   1.953   5.772   2.108 -0.1977 -0.9449  0.0964
   28MOL   C18713741   1.831   5.810   2.172  0.1095 -0.0189 -0.3331
   28MOL   C18813742   1.702   5.804   2.105 -0.3675  0.2268  0.5643
   28MOL   C18913743   1.693   5.754   1.970 -0.4097  1.2416  0.2222
   28MOL   H19013744   1.485   5.429   1.741 -2.9723  1.9233  0.1239
   28MOL   H19113745   1.370   5.391   1.617  0.6498 -3.6550  0.0689
   28MOL   H19213746   1.562   5.449   1.366  1.3481  0.7906  0.9815
   28MOL   H19313747   1.512   5.613   1.365 -2.6681  0.6507  1.0899
   28MOL   H19413748   1.392   5.495   1.398 -0.3516 -0.7901  0.9169
   28MOL   H19513749   1.892   5.602   1.740 -0.2439  0.2158 -1.5764
   28MOL   H19613750   1.820   5.748   1.697 -0.4388 -1.4990 -2.5491
   28MOL   H19713751   2.021   5.690   1.919 -0.8521 -0.4274 -1.3914
   28MOL   H19813752   2.053   5.779   2.147  0.5118  3.7332 -2.1924
   28MOL   H19913753   1.825   5.839   2.276 -1.5117  0.0825 -0.4461
   28MOL   H20013754   1.620   5.825   2.171  1.2719 -0.5398  2.8884
   28MOL   H20113755   1.606   5.731   1.911 -0.8472  0.7942  1.0388
   28MOL   C20213756   1.398   5.644   1.623 -0.0624 -0.3883 -0.2226
   28MOL   C20313757   1.371   5.792   1.563 -0.2793 -0.4637 -0.1592
   28MOL   C20413758   1.311   5.786   1.419 -0.3674  0.5591 -0.0199
   28MOL   C20513759   1.511   5.854   1.571 -0.3277 -0.7846  0.3712
   28MOL   O20613760   1.559   5.887   1.678  0.4441  0.3188  0.3014
   28MOL   O20713761   1.573   5.876   1.450  0.3795 -0.4505  0.1481
   28MOL   C20813762   1.701   5.930   1.449  0.1903  0.3725 -0.3532
   28MOL   C20913763   1.733   5.946   1.306  0.0926 -0.0533 -0.3996
   28MOL   C21013764   1.688   6.054   1.229  0.6353  0.2726  1.5432
   28MOL   C21113765   1.709   6.056   1.086  0.2024 -0.3061  0.0177
   28MOL   C21213766   1.766   5.946   1.024  0.6797 -0.3305  0.3008
   28MOL   C21313767   1.813   5.838   1.103 -0.0636 -0.5369 -0.2904
   28MOL   C21413768   1.796   5.839   1.241 -0.1531 -0.5242 -0.8078
   28MOL   H21513769   1.415   5.663   1.729 -1.2409 -0.7521  0.0378
   28MOL   H21613770   1.299   5.598   1.631 -0.8851  1.3446 -0.2957
   28MOL   H21713771   1.295   5.888   1.384  0.0401  0.4746 -0.4661
   28MOL   H21813772   1.215   5.735   1.427  0.4042 -0.8138  0.7052
   28MOL   H21913773   1.371   5.741   1.339  0.5923  0.6403  0.6491
   28MOL   H22013774   1.697   6.032   1.487  0.2891  0.9168 -1.7776
   28MOL   H22113775   1.767   5.869   1.512  0.8170 -0.1121 -1.4759
   28MOL   H22213776   1.630   6.139   1.261 -0.7853 -0.7174  1.6052
   28MOL   H22313777   1.669   6.144   1.038  1.2603  0.4693  0.5470
   28MOL   H22413778   1.784   5.943   0.918  1.7504 -3.9024  0.5328
   28MOL   H22513779   1.852   5.749   1.056 -1.1041 -1.5050  0.6367
   28MOL   H22613780   1.822   5.753   1.301  0.0758  0.1642  0.0691
   28MOL   C22713781   1.278   5.861   1.675 -0.6224 -0.0690 -0.3227
   28MOL   C22813782   1.205   6.000   1.659 -0.0989 -0.2100 -0.3361
   28MOL   C22913783   1.154   6.043   1.800 -0.5756  0.3025  0.6129
   28MOL   C23013784   1.087   5.975   1.560  1.1441 -0.6591 -0.2899
   28MOL   O23113785   1.083   6.020   1.443  0.2590 -0.4373  0.0349
   28MOL   O23213786   0.998   5.887   1.612  0.3700  0.5679  0.0843
   28MOL   C23313787   0.870   5.865   1.551  0.2001 -0.2329 -0.1481
   28MOL   C23413788   0.855   5.724   1.512  0.2452  0.0014 -0.1113
   28MOL   C23513789   0.864   5.692   1.375  0.0012  0.1797 -0.4186
   28MOL   C23613790   0.838   5.566   1.333 -0.0389 -0.2874  0.4845
   28MOL   C23713791   0.791   5.470   1.419  0.7463 -0.4084  0.1722
   28MOL   C23813792   0.793   5.493   1.560  0.1414 -1.4273 -0.3321
   28MOL   C23913793   0.824   5.624   1.606 -0.4530 -0.2891  0.4433
   28MOL   H24013794   1.333   5.867   1.769 -0.1613 -1.6267 -0.4716
   28MOL   H24113795   1.200   5.789   1.697 -1.4233  0.2830 -1.9168
   28MOL   H24213796   1.120   5.958   1.860  1.8909 -0.1691  1.4100
   28MOL   H24313797   1.058   6.095   1.799 -2.7401 -3.5206  0.4530
   28MOL   H24413798   1.238   6.091   1.852  1.0652 -0.1274 -1.6027
   28MOL   H24513799   0.797   5.884   1.629  0.9114 -2.4871  1.1271
   28MOL   H24613800   0.843   5.934   1.471  3.2283  2.3603  0.9708
   28MOL   H24713801   0.887   5.773   1.308 -0.0333 -0.9728 -1.8369
   28MOL   H24813802   0.828   5.533   1.230 -0.6428  0.7217  0.2106
   28MOL   H24913803   0.768   5.369   1.389 -4.7072  0.8913 -0.5012
   28MOL   H25013804   0.759   5.414   1.624 -1.2014 -0.5372  0.0586
   28MOL   H25113805   0.837   5.647   1.710 -0.0315  1.0587  0.0968
   28MOL   C25213806   1.307   6.109   1.606  0.4908 -0.7578  0.3757
   28MOL   C25313807   1.289   6.268   1.601 -0.0621  0.3912 -0.3331
   28MOL   C25413808   1.292   6.327   1.741 -0.0002 -0.0730  0.2118
   28MOL   C25513809   1.151   6.312   1.540  0.7263 -0.1205 -0.2560
   28MOL   O25613810   1.049   6.341   1.609 -0.6725 -0.1720 -0.4126
   28MOL   O25713811   1.147   6.310   1.403  0.1471  0.3965 -0.0238
   28MOL   C25813812   1.036   6.367   1.326 -0.3059  0.2772  0.1523
   28MOL   C25913813   0.945   6.249   1.285  0.2761  0.5229 -0.5603
   28MOL   C26013814   0.985   6.172   1.176  0.8842  0.6074 -0.6623
   28MOL   C26113815   0.900   6.070   1.132 -0.3779  0.4200 -0.0533
   28MOL   C26213816   0.776   6.040   1.197  0.4990  0.4992 -1.0589
   28MOL   C26313817   0.745   6.115   1.314 -0.1793 -0.5754  0.3626
   28MOL   C26413818   0.831   6.216   1.355  0.2702 -0.0778  0.3119
   28MOL   H26513819   1.338   6.094   1.503  0.3904 -0.5287  0.3137
   28MOL   H26613820   1.397   6.098   1.667  0.0570  0.5895  1.2787
   28MOL   H26713821   1.380   6.311   1.803  1.2031 -0.5083 -1.5822
   28MOL   H26813822   1.210   6.299   1.807  0.8963  0.2251  1.4800
   28MOL   H26913823   1.275   6.433   1.725 -1.3765 -0.3276 -0.0945
   28MOL   H27013824   0.976   6.434   1.387  0.7781  0.1666  1.3683
   28MOL   H27113825   1.079   6.426   1.245 -0.6646  0.4878  0.1173
   28MOL   H27213826   1.078   6.187   1.124  0.8741  0.7176 -0.6493
   28MOL   H27313827   0.928   5.997   1.057 -3.1304 -1.9692  1.1416
   28MOL   H27413828   0.724   5.951   1.166  2.2223 -1.3392  1.1477
   28MOL   H27513829   0.668   6.089   1.385 -2.5208  3.1266 -0.7119
   28MOL   H27613830   0.803   6.271   1.443 -0.4183  2.5231 -1.4581
   28MOL   C27713831   1.410   6.326   1.511 -0.1580 -0.2980 -0.1510
   28MOL   C27813832   1.553   6.367   1.574 -0.6619  0.1462  0.0719
   28MOL   C27913833   1.607   6.255   1.660 -0.6065 -0.1619 -0.1352
   28MOL   C28013834   1.544   6.495   1.662 -0.0338 -0.2252  0.4227
   28MOL   O28113835   1.626   6.517   1.748  0.2522  0.1703 -0.3232
   28MOL   O28213836   1.439   6.577   1.641  0.4280 -0.2292  0.1483
   28MOL   C28313837   1.439   6.710   1.696 -0.3306  0.6867  0.1715
   28MOL   C28413838   1.399   6.712   1.845 -0.1705  0.5321 -0.3089
   28MOL   C28513839   1.499   6.718   1.944  0.7413  0.0704 -0.5790
   28MOL   C28613840   1.459   6.709   2.078 -0.2413 -1.2627 -0.0754
   28MOL   C28713841   1.321   6.725   2.112 -0.7850 -0.2660 -0.6199
   28MOL   C28813842   1.225   6.727   2.013  0.1288  0.1512  0.4098
   28MOL   C28913843   1.260   6.708   1.881  0.4253 -1.0136 -0.1987
   28MOL   H29013844   1.373   6.414   1.459 -0.3489  0.3798  1.1187
   28MOL   H29113845   1.414   6.264   1.422 -0.7520 -1.9490  0.9541
   28MOL   H29213846   1.588   6.161   1.608  0.9816 -0.5897  0.0340
   28MOL   H29313847   1.565   6.242   1.760 -1.8408  0.0840 -0.6027
   28MOL   H29413848   1.712   6.248   1.689 -0.2743 -1.7680 -1.6490
   28MOL   H29513849   1.535   6.763   1.696 -1.0851  2.1356  1.9068
   28MOL   H29613850   1.364   6.768   1.642  0.8731  0.7912 -1.4136
   28MOL   H29713851   1.605   6.716   1.924  1.0388  0.8823  0.8087
   28MOL   H29813852   1.534   6.712   2.155 -1.5601 -1.0565  1.2310
   28MOL   H29913853   1.278   6.727   2.211  0.7787 -1.8779  0.1248
   28MOL   H30013854   1.121   6.724   2.043  0.2243 -1.0804  0.6433
   28MOL   H30113855   1.177   6.702   1.813  0.5595 -0.5084 -0.4081
   28MOL   C30213856   1.665   6.384   1.459 -0.4171  0.0275  0.4123
   28MOL   C30313857   1.672   6.500   1.350 -0.4111 -0.4331 -0.2688
   28MOL   C30413858   1.693   6.634   1.423 -0.5261  0.7250  0.1682
   28MOL   C30513859   1.541   6.510   1.276  0.3738 -0.4989  0.3774
   28MOL   O30613860   1.470   6.614   1.274 -0.2137  0.3658 -0.4340
   28MOL   O30713861   1.513   6.392   1.204 -0.0751 -0.0627 -0.1214
   28MOL   C30813862   1.390   6.379   1.138 -0.6271 -0.1784  0.2583
   28MOL   C30913863   1.396   6.245   1.059 -0.3827 -0.4397 -0.1637
   28MOL   C31013864   1.368   6.124   1.126  0.3224 -0.1775  0.4391
   28MOL   C31113865   1.365   6.005   1.052 -0.1663  0.8104  0.1546
   28MOL   C31213866   1.405   6.000   0.919  0.4268  0.3372  0.1317
   28MOL   C31313867   1.439   6.126   0.854  0.5730  0.9021  0.0197
   28MOL   C31413868   1.447   6.245   0.925 -0.5553 -0.1136 -0.3841
   28MOL   H31513869   1.671   6.289   1.407  0.9068  0.2303  0.1683
   28MOL   H31613870   1.760   6.382   1.513  0.3860 -1.1796 -1.0014
   28MOL   H31713871   1.791   6.638   1.471 -1.4008  0.5416  2.0208
   28MOL   H31813872   1.623   6.672   1.498 -2.3022 -0.8334 -0.6726
   28MOL   H31913873   1.691   6.718   1.353  0.5254  0.8643  0.2982
   28MOL   H32013874   1.308   6.379   1.209  0.3004 -0.4477  1.3429
   28MOL   H32113875   1.383   6.461   1.067 -1.9154 -1.1176 -0.7416
   28MOL   H32213876   1.341   6.126   1.231 -0.2720 -0.3434  0.2893
   28MOL   H32313877   1.346   5.920   1.115  1.9984 -1.6851 -2.4291
   28MOL   H32413878   1.414   5.905   0.868 -1.1992  0.0850  0.2917
   28MOL   H32513879   1.457   6.129   0.748  1.3390 -0.1970  0.1124
   28MOL   H32613880   1.488   6.333   0.877  1.8629 -0.2840  1.2444
   28MOL   C32713881   1.798   6.449   1.258  0.5672 -0.1032  0.4612
   28MOL   C32813882   1.882   6.533   1.152  0.5925 -0.0320 -0.3772
   28MOL   C32913883   1.963   6.646   1.214  0.0623 -0.6779 -0.3618
   28MOL   C33013884   1.778   6.599   1.045  0.0263  0.3820 -0.4184
   28MOL   O33113885   1.768   6.563   0.934  0.3156 -0.2680  0.6015
   28MOL   O33213886   1.702   6.703   1.095 -0.0471 -0.6399 -0.2514
   28MOL   C33313887   1.602   6.759   1.006  0.1834  0.2132  0.3270
   28MOL   C33413888   1.661   6.875   0.932 -0.2469  0.4610  0.3063
   28MOL   C33513889   1.648   6.889   0.790  1.1089 -0.1600 -0.2135
   28MOL   C33613890   1.685   7.008   0.725  0.0298  0.9225  0.3313
   28MOL   C33713891   1.736   7.121   0.795  0.8751  0.6790  0.4551
   28MOL   C33813892   1.758   7.102   0.931  0.2754 -0.6858  0.0821
   28MOL   C33913893   1.725   6.980   1.000 -0.0446 -0.5418 -0.6633
   28MOL   H34013894   1.764   6.356   1.213  2.2544 -0.7128  0.3786
   28MOL   H34113895   1.869   6.410   1.330 -0.9456 -0.4070  1.8018
   28MOL   H34213896   2.041   6.680   1.147 -0.9110  1.4981 -0.4415
   28MOL   H34313897   2.000   6.623   1.314  2.0878  0.8801 -0.7150
   28MOL   H34413898   1.912   6.741   1.233  1.9341 -0.0643  1.7659
   28MOL   H34513899   1.559   6.688   0.935  2.5918  1.6262 -2.6725
   28MOL   H34613900   1.518   6.797   1.064  1.5327  0.3937  2.2136
   28MOL   H34713901   1.600   6.805   0.743  0.4653  0.1697 -0.1527
   28MOL   H34813902   1.649   7.014   0.623  0.7646  0.9139  0.0693
   28MOL   H34913903   1.738   7.222   0.755 -0.9723  0.7246  0.4467
   28MOL   H35013904   1.800   7.184   0.987  1.7657 -0.0672 -1.8914
   28MOL   H35113905   1.749   6.966   1.105 -2.1078 -0.8811 -0.2153
   28MOL   C35213906   1.978   6.435   1.072 -0.4864 -0.6925 -0.3662
   28MOL   C35313907   2.089   6.336   1.129 -0.3991 -0.6707 -1.0047
   28MOL   C35413908   2.024   6.193   1.140  0.1167 -0.6568 -0.3912
   28MOL   C35513909   2.138   6.383   1.267 -0.7602  0.5638  0.1749
   28MOL   O35613910   2.106   6.318   1.364 -0.4024  0.0549  0.5675
   28MOL   O35713911   2.215   6.496   1.264  0.0744 -0.4719  0.2796
   28MOL   C35813912   2.301   6.531   1.370 -0.0841  0.0887  0.1574
   28MOL   C35913913   2.382   6.654   1.346 -0.2898 -1.0569  0.2416
   28MOL   C36013914   2.313   6.769   1.311  0.7459 -1.1230 -1.3111
   28MOL   C36113915   2.389   6.874   1.260  0.3714 -0.5811  0.2821
   28MOL   C36213916   2.528   6.863   1.266  0.1653 -0.5214 -0.5127
   28MOL   C36313917   2.600   6.753   1.321  0.4724  0.0101 -1.1845
   28MOL   C36413918   2.519   6.647   1.358 -0.5409  0.5418  0.1021
   28MOL   H36513919   2.018   6.500   0.994  0.5470 -2.4382 -1.3191
   28MOL   H36613920   1.914   6.369   1.012  0.1347  0.5475 -2.4627
   28MOL   H36713921   2.078   6.120   1.201  0.7385  0.5839  0.5821
   28MOL   H36813922   1.993   6.154   1.043 -0.1060  0.0153 -0.5880
   28MOL   H36913923   1.934   6.211   1.199  0.8007 -2.1894  1.1699
   28MOL   H37013924   2.244   6.545   1.461  0.5295 -2.5155  0.9846
   28MOL   H37113925   2.369   6.445   1.372 -1.7916 -1.2730  0.4943
   28MOL   H37213926   2.206   6.780   1.317  0.9180 -0.7703  2.5317
   28MOL   H37313927   2.346   6.971   1.239 -0.8955 -0.9272  1.2176
   28MOL   H37413928   2.583   6.951   1.234 -1.2859  1.1530  1.4366
   28MOL   H37513929   2.705   6.763   1.343  0.2070  1.5518 -0.4974
   28MOL   H37613930   2.565   6.559   1.400 -1.1012  0.7881  1.2508
   28MOL   C37713931   2.209   6.341   1.023 -0.3171  0.0203  0.5437
   28MOL   C37813932   2.311   6.223   1.017 -0.5691 -0.6037  0.4853
   28MOL   C37913933   2.362   6.177   1.153 -1.1384 -0.2112 -0.8930
   28MOL   C38013934   2.428   6.274   0.934 -0.2565 -0.3342  0.3769
   28MOL   O38113935   2.406   6.358   0.846  0.1632  0.0882 -0.0648
   28MOL   O38213936   2.541   6.227   0.974 -0.0431 -0.6748  0.3589
   28MOL   C38313937   2.659   6.273   0.913  0.2898  0.0003 -0.0295
   28MOL   C38413938   2.770   6.297   1.014 -0.0574  0.2386 -0.3671
   28MOL   C38513939   2.746   6.343   1.145  0.3449  0.2611 -0.3929
   28MOL   C38613940   2.851   6.353   1.240 -0.1046  0.2374  0.1994
   28MOL   C38713941   2.976   6.302   1.209 -0.6270  0.1786  0.9440
   28MOL   C38813942   3.001   6.253   1.082 -0.1951  0.3894 -0.2138
   28MOL   C38913943   2.899   6.253   0.981 -0.5730 -0.6499  0.3814
   28MOL   H39013944   2.258   6.436   1.042  2.3930 -1.4405  1.0888
   28MOL   H39113945   2.164   6.357   0.925 -0.4725 -0.2556  0.5683
   28MOL   H39213946   2.433   6.095   1.143 -4.1357 -2.8891 -1.0422
   28MOL   H39313947   2.286   6.135   1.218 -0.5070  2.2845  1.5659
   28MOL   H39413948   2.411   6.258   1.208 -1.9300 -0.5888  0.3924
   28MOL   H39513949   2.690   6.200   0.839  3.9786  1.0540  0.3864
   28MOL   H39613950   2.646   6.371   0.866  1.6751  0.5102  0.6206
   28MOL   H39713951   2.644   6.375   1.164  0.3470 -0.0577  0.1871
   28MOL   H39813952   2.821   6.392   1.336 -3.2208 -1.2216 -0.1213
   28MOL   H39913953   3.059   6.303   1.279  0.3482 -1.0326 -0.1636
   28MOL   H40013954   3.101   6.216   1.062 -0.3013  0.4468 -0.8798
   28MOL   H40113955   2.919   6.221   0.880  0.6216 -0.5840  0.5871
   28MOL   C40213956   2.252   6.094   0.946  0.8061  0.0140  0.4369
   28MOL   C40313957   2.327   5.981   0.874  0.5053  0.7428  0.1630
   28MOL   C40413958   2.431   5.915   0.962  0.2088  0.2723 -0.3580
   28MOL   C40513959   2.383   6.028   0.738  0.8682 -0.0220 -0.1458
   28MOL   O40613960   2.501   6.003   0.711 -0.2135 -0.3458  0.2387
   28MOL   O40713961   2.302   6.096   0.658  0.1685 -0.2964  0.5989
   28MOL   C40813962   2.343   6.145   0.536 -0.0701  0.2173 -0.0569
   28MOL   C40913963   2.229   6.166   0.437 -0.4717  0.0526 -0.0578
   28MOL   C41013964   2.147   6.283   0.457 -0.2699  0.6693  0.3291
   28MOL   C41113965   2.038   6.294   0.371 -0.1307 -0.7502  0.6384
   28MOL   C41213966   2.009   6.197   0.272  0.5595 -0.6867 -0.2881
   28MOL   C41313967   2.080   6.075   0.270 -0.2041 -0.1124 -0.0990
   28MOL   C41413968   2.202   6.069   0.340  0.4434  0.5695 -0.0921
   28MOL   H41513969   2.181   6.137   0.875  0.8789 -2.2072 -1.0083
   28MOL   H41613970   2.181   6.050   1.017 -1.2307 -1.3943 -2.3692
   28MOL   H41713971   2.391   5.898   1.062  1.2404 -0.2788 -0.0395
   28MOL   H41813972   2.514   5.977   0.995  0.1541  0.3407 -0.3470
   28MOL   H41913973   2.481   5.825   0.927  0.5921 -1.0013  3.2649
   28MOL   H42013974   2.405   6.234   0.546 -0.5207  0.5033  0.2291
   28MOL   H42113975   2.407   6.082   0.475 -1.3607  0.4473 -1.6688
   28MOL   H42213976   2.166   6.357   0.534  1.0615  1.4195 -0.6903
   28MOL   H42313977   1.968   6.377   0.376 -0.1150 -0.6743 -0.3382
   28MOL   H42413978   1.915   6.200   0.219  0.5858 -0.4715 -0.3217
   28MOL   H42513979   2.047   5.996   0.204 -0.5566 -0.7635  0.8472
   28MOL   H42613980   2.257   5.976   0.345  0.8561  0.8730  1.1711
   28MOL   C42713981   2.209   5.876   0.848  0.2387 -0.6111 -0.6362
   28MOL   C42813982   2.225   5.733   0.789 -0.6148  0.1580  0.5638
   28MOL   C42913983   2.072   5.703   0.747  0.1766 -0.2181  0.2075
   28MOL   C43013984   2.267   5.638   0.904 -0.1146  0.3093  0.4441
   28MOL   O43113985   2.381   5.593   0.909 -0.3229 -0.5476  0.3232
   28MOL   O43213986   2.170   5.610   0.993  0.0340  0.3984 -0.0797
   28MOL   C43313987   2.206   5.537   1.112 -0.0351 -0.2446  0.5556
   28MOL   C43413988   2.222   5.391   1.072  0.3259 -0.0440  0.3237
   28MOL   C43513989   2.104   5.312   1.059  0.0670 -0.1005 -0.5971
   28MOL   C43613990   2.122   5.182   1.005  1.1468  0.5006 -0.0254
   28MOL   C43713991   2.247   5.121   1.007 -0.6467  0.0801  0.2123
   28MOL   C43813992   2.359   5.199   1.035 -0.0814  0.0647 -0.1875
   28MOL   C43913993   2.348   5.339   1.054  0.2168  0.1919  0.2632
   28MOL   H44013994   2.140   5.926   0.780 -0.2795  1.0578  1.0492
   28MOL   H44113995   2.160   5.867   0.945 -0.6089  2.1756 -0.7718
   28MOL   H44213996   2.045   5.758   0.656  1.4955  0.5577  0.2684
   28MOL   H44313997   1.996   5.732   0.819  0.7005 -0.8321  1.0127
   28MOL   H44413998   2.046   5.599   0.732  0.5162 -0.3830  0.7559
   28MOL   H44513999   2.294   5.566   1.169 -0.8429  0.1597  1.6392
   28MOL   H44614000   2.109   5.541   1.163 -0.2142  2.3283  0.0613
   28MOL   H44714001   2.004   5.354   1.058 -0.9901 -2.5453 -3.4976
   28MOL   H44814002   2.038   5.124   0.970  0.6463  1.4842 -0.4559
   28MOL   H44914003   2.264   5.019   0.976 -1.9764  0.0628 -0.4854
   28MOL   H45014004   2.455   5.154   1.014 -1.4125 -2.8371 -0.1828
   28MOL   H45114005   2.425   5.415   1.061  1.4647 -1.0429  0.0010
   28MOL   C45214006   2.307   5.732   0.655 -0.0707  0.4823  0.6946
   28MOL   C45314007   2.300   5.618   0.546  0.0244  0.3156 -0.0631
   28MOL   C45414008   2.304   5.479   0.615  0.6010 -0.6108 -0.6475
   28MOL   C45514009   2.428   5.625   0.465 -0.2430 -0.2539  0.2637
   28MOL   O45614010   2.518   5.539   0.474  0.6665  0.0121  0.3396
   28MOL   O45714011   2.445   5.736   0.398 -0.2318  0.0212 -0.0334
   28MOL   C45814012   2.550   5.755   0.303 -0.3429  0.4713 -0.5137
   28MOL   C45914013   2.665   5.828   0.357 -0.6041  0.3287  0.3425
   28MOL   C46014014   2.779   5.763   0.411 -0.7629 -0.0628 -0.3263
   28MOL   C46114015   2.873   5.847   0.478  0.4899 -0.2941  0.0378
   28MOL   C46214016   2.864   5.986   0.483 -0.1636 -0.6553 -0.4315
   28MOL   C46314017   2.763   6.048   0.408 -0.2159 -0.0662  0.3220
   28MOL   C46414018   2.661   5.967   0.352 -0.0310 -0.7281 -0.7015
   28MOL   H46514019   2.411   5.734   0.689 -0.5110  2.9694  2.0558
   28MOL   H46614020   2.283   5.827   0.608 -0.3984  1.1741  2.2270
   28MOL   H46714021   2.216   5.466   0.679  1.9653 -2.0447  0.9662
   28MOL   H46814022   2.385   5.471   0.687  0.9059 -1.0523 -1.0443
   28MOL   H46914023   2.314   5.395   0.546  0.6964 -0.2032 -1.1265
   28MOL   H47014024   2.585   5.655   0.276  0.5122  0.5061  0.4220
   28MOL   H47114025   2.512   5.805   0.214 -0.7409  4.0883  1.6010
   28MOL   H47214026   2.790   5.655   0.406 -1.6838 -0.1106 -1.4720
   28MOL   H47314027   2.943   5.788   0.535 -0.7292 -0.1031  1.7765
   28MOL   H47414028   2.934   6.050   0.534 -3.2545  0.5794  2.4626
   28MOL   H47514029   2.746   6.154   0.396  3.1527  0.4392 -0.7172
   28MOL   H47614030   2.584   6.008   0.288 -1.7275 -0.6428  1.3291
   28MOL   C47714031   2.172   5.628   0.450 -0.3997 -0.5124 -0.0911
   28MOL   C47814032   2.175   5.590   0.299 -0.6743 -0.4460 -0.4147
   28MOL   C47914033   2.078   5.674   0.220  0.1667  0.0857 -0.2272
   28MOL   C48014034   2.170   5.441   0.263 -0.5245  0.0462 -0.2092
   28MOL   O48114035   2.070   5.395   0.211  0.5004  0.1280  0.8048
   28MOL   O48214036   2.284   5.384   0.293 -0.6782  0.3379 -0.1691
   28MOL   C48314037   2.302   5.251   0.260 -0.1825  0.7081  0.5284
   28MOL   C48414038   2.418   5.180   0.340 -0.8840  0.0676 -0.5316
   28MOL   C48514039   2.395   5.052   0.390  0.0052  0.4821  0.7065
   28MOL   C48614040   2.495   4.987   0.468  0.4369 -0.4925  0.7769
   28MOL   C48714041   2.607   5.061   0.503 -0.2416  0.6669 -0.2263
   28MOL   C48814042   2.631   5.193   0.456  0.2777  0.0229  0.2955
   28MOL   C48914043   2.538   5.245   0.359  0.3883  0.1400 -0.0212
   28MOL   H49014044   2.135   5.731   0.451 -0.4009 -0.4948  3.2228
   28MOL   H49114045   2.091   5.574   0.499 -0.9404  0.1381 -0.2592
   28MOL   H49214046   2.052   5.624   0.128  1.7281 -0.1359 -0.5645
   28MOL   H49314047   2.116   5.775   0.204 -0.4929  0.2719 -0.6130
   28MOL   H49414048   1.987   5.691   0.277  2.0172 -0.4258  3.0328
   28MOL   H49514049   2.215   5.191   0.284 -0.2215  0.0358 -1.2240
   28MOL   H49614050   2.327   5.241   0.154 -0.8465  1.1447  0.3296
   28MOL   H49714051   2.309   4.995   0.359  1.5880 -0.5259 -2.0300
   28MOL   H49814052   2.472   4.889   0.507  0.1749 -1.0556 -0.7498
   28MOL   H49914053   2.669   5.023   0.583 -0.5706 -0.2021 -0.3836
   28MOL   H50014054   2.720   5.248   0.482  0.2243 -0.5593  1.7587
   28MOL   H50114055   2.567   5.341   0.321  0.1842  0.4297  0.5435
   28MOL   H50214056   2.272   5.612   0.256  0.9368 -2.3981  2.1117
   29MOL     C114057   7.234   6.893   7.704 -0.3752 -0.2269 -0.7062
   29MOL     C214058   7.150   6.773   7.649 -0.5504  0.2004  0.3689
   29MOL     C314059   7.208   6.735   7.509 -0.4897  0.2526  0.5621
   29MOL     C414060   7.006   6.810   7.631  0.5240  0.0576  0.2760
   29MOL     O514061   6.959   6.924   7.643 -0.1977 -0.1811  0.2730
   29MOL     O614062   6.930   6.706   7.587 -0.1766  0.6865  0.2552
   29MOL     C714063   6.800   6.732   7.534 -0.3020 -0.6520 -0.7878
   29MOL     C814064   6.794   6.811   7.402 -0.8261  0.1403  0.1462
   29MOL     C914065   6.859   6.760   7.287  0.1544 -0.0345 -0.6240
   29MOL    C1014066   6.840   6.822   7.159 -0.5191 -0.2046 -0.2132
   29MOL    C1114067   6.781   6.947   7.156  0.1166 -0.0770  0.4984
   29MOL    C1214068   6.712   7.000   7.268  0.0351  0.7611 -0.5263
   29MOL    C1314069   6.726   6.937   7.397 -0.7047  0.5263  0.5787
   29MOL    H1414070   7.200   6.917   7.805 -0.7289 -0.1977 -0.8322
   29MOL    H1514071   7.341   6.873   7.709 -0.1580  0.8978 -0.7716
   29MOL    H1614072   7.151   6.661   7.453 -1.2632  0.7936  0.6121
   29MOL    H1714073   7.311   6.702   7.513 -0.3108  0.5402 -1.3866
   29MOL    H1814074   7.216   6.825   7.448 -0.3551  1.4192  2.2610
   29MOL    H1914075   6.754   6.637   7.507 -0.5442 -0.2935 -1.6486
   29MOL    H2014076   6.739   6.786   7.606  2.1841  1.7907 -0.4390
   29MOL    H2114077   6.916   6.669   7.302  1.0273  0.3136 -1.7937
   29MOL    H2214078   6.899   6.784   7.077 -0.6307 -0.2869 -0.2548
   29MOL    H2314079   6.779   7.002   7.063 -0.6887 -3.0237 -1.2684
   29MOL    H2414080   6.652   7.089   7.257 -0.4487  0.6177  0.9120
   29MOL    H2514081   6.699   6.988   7.489 -0.3256  1.6242  0.0908
   29MOL    H2614082   7.209   6.973   7.634  0.7478 -1.0551 -2.0778
   29MOL    C2714083   7.173   6.648   7.738 -0.5202  0.1985  0.4342
   29MOL    C2814084   7.167   6.630   7.891 -0.1357 -0.2941 -0.3051
   29MOL    C2914085   7.031   6.685   7.938  0.6987 -0.2967 -0.2843
   29MOL    C3014086   7.283   6.712   7.940 -0.3097  0.2166 -0.1153
   29MOL    O3114087   7.263   6.801   0.018 -0.0609  0.5186  0.4666
   29MOL    O3214088   7.404   6.681   7.881 -0.8581 -0.1524 -0.0080
   29MOL    C3314089   7.514   6.769   7.909 -0.1525  0.4365 -0.2224
   29MOL    C3414090   7.649   6.699   7.875  0.0140 -0.3543 -0.5949
   29MOL    C3514091   7.776   6.755   7.910  0.8944  0.5472 -1.2881
   29MOL    C3614092   7.891   6.692   7.867 -1.3026 -0.5340  0.5586
   29MOL    C3714093   7.886   6.567   7.806 -0.1658  0.9652  0.0133
   29MOL    C3814094   7.761   6.504   7.773 -0.6491  0.8937 -0.1179
   29MOL    C3914095   7.645   6.571   7.806  0.1762 -0.2735 -0.2590
   29MOL    H4014096   7.270   6.611   7.702 -0.7887 -0.6673  0.5752
   29MOL    H4114097   7.109   6.568   7.701 -0.4217 -0.2635  1.2511
   29MOL    H4214098   7.015   6.681   0.039  1.7612 -0.8321 -0.1411
   29MOL    H4314099   6.944   6.637   7.893  0.1023  0.4001  0.0941
   29MOL    H4414100   7.029   6.793   7.924  1.0758 -0.4045 -1.2007
   29MOL    H4514101   7.500   6.867   7.863  1.8865  1.1573  0.6524
   29MOL    H4614102   7.511   6.795   0.007 -1.8977  0.2162 -0.2006
   29MOL    H4714103   7.784   6.844   7.970 -1.2262 -0.2558  0.2610
   29MOL    H4814104   7.988   6.727   7.899 -2.3561  0.9906  2.2169
   29MOL    H4914105   7.975   6.514   7.776 -1.3124  0.1994 -2.1679
   29MOL    H5014106   7.767   6.404   7.732  1.9419  2.1154 -2.9231
   29MOL    H5114107   7.546   6.534   7.783 -0.2228  0.4858  0.2010
   29MOL    C5214108   7.182   6.480   7.924  0.2707  0.0936  0.2305
   29MOL    C5314109   7.231   6.420   0.053  0.8829 -0.0481 -0.0655
   29MOL    C5414110   7.204   6.265   0.044 -0.2926  0.6693 -0.4555
   29MOL    C5514111   7.148   6.467   0.173 -0.3328  0.0269 -0.3671
   29MOL    O5614112   7.185   6.566   0.236  0.4321  0.0949  0.3023
   29MOL    O5714113   7.035   6.401   0.191  0.7234  0.1284  0.3424
   29MOL    C5814114   6.951   6.443   0.298  0.1303  0.1841 -0.4483
   29MOL    C5914115   6.984   6.368   0.427 -0.3559 -0.0032 -0.3841
   29MOL    C6014116   6.910   6.403   0.539 -0.4859  0.4360  0.3335
   29MOL    C6114117   6.932   6.345   0.663  0.2178 -0.2562 -0.6271
   29MOL    C6214118   7.028   6.241   0.679 -0.4244 -0.2120  0.3368
   29MOL    C6314119   7.103   6.204   0.560  0.2750 -0.1857  0.1020
   29MOL    C6414120   7.077   6.265   0.439 -0.3408  0.2368  0.1411
   29MOL    H6514121   7.243   6.432   7.847 -3.0550  0.1108 -2.5005
   29MOL    H6614122   7.081   6.445   7.906 -0.8103  3.1285  0.1639
   29MOL    H6714123   7.208   6.209   0.137 -0.2749 -0.3899 -1.0792
   29MOL    H6814124   7.280   6.216   7.990  0.3058  1.1021 -0.0653
   29MOL    H6914125   7.108   6.240   0.001 -0.9240  0.9986  0.7488
   29MOL    H7014126   6.969   6.550   0.312 -0.9199  0.4891 -1.3073
   29MOL    H7114127   6.845   6.423   0.281  0.3636 -1.3624 -0.1837
   29MOL    H7214128   6.836   6.481   0.529  0.6661  1.4937 -0.0657
   29MOL    H7314129   6.869   6.373   0.745  1.8988 -0.5599  0.8022
   29MOL    H7414130   7.038   6.185   0.771  0.3504 -0.2360  0.2402
   29MOL    H7514131   7.168   6.118   0.560 -0.9119 -1.0875 -0.7446
   29MOL    H7614132   7.134   6.233   0.354 -0.0354  0.3227  0.3132
   29MOL    C7714133   7.383   6.455   0.076  0.5681 -0.1992 -0.1492
   29MOL    C7814134   7.485   6.371   0.173  0.5576  0.0258  0.7808
   29MOL    C7914135   7.514   6.242   0.091 -0.2167  0.6131  0.6228
   29MOL    C8014136   7.432   6.345   0.316  0.4755  0.1718  0.0948
   29MOL    O8114137   7.398   6.232   0.362 -0.4591  0.2462  0.0811
   29MOL    O8214138   7.412   6.462   0.382  0.4794 -0.0788  0.1599
   29MOL    C8314139   7.364   6.472   0.514  1.0382 -0.0731  0.4139
   29MOL    C8414140   7.405   6.605   0.579 -0.0928 -0.4507 -0.3766
   29MOL    C8514141   7.476   6.611   0.696  0.0098 -0.6852  0.1916
   29MOL    C8614142   7.496   6.734   0.760 -0.2119 -0.2103 -0.4236
   29MOL    C8714143   7.455   6.852   0.692 -0.4509  0.4620 -0.1646
   29MOL    C8814144   7.387   6.845   0.567  0.1305  0.0043  0.5299
   29MOL    C8914145   7.365   6.722   0.513 -0.4842 -1.1754  0.1053
   29MOL    H9014146   7.382   6.559   0.108 -0.6011 -0.6212  1.2881
   29MOL    H9114147   7.434   6.468   7.988  0.9607  1.6506  0.3018
   29MOL    H9214148   7.619   6.210   0.094 -0.1884  0.6835  0.4357
   29MOL    H9314149   7.502   6.255   7.990 -2.2079 -4.1676  0.1354
   29MOL    H9414150   7.461   6.150   0.117  1.4146 -0.7957 -0.8347
   29MOL    H9514151   7.255   6.466   0.512  0.8711  1.5375  2.7130
   29MOL    H9614152   7.396   6.383   0.567  0.4957 -0.0130  0.8479
   29MOL    H9714153   7.496   6.518   0.747 -1.5586 -0.4970  1.1847
   29MOL    H9814154   7.526   6.726   0.864  0.1229 -2.0136 -0.6499
   29MOL    H9914155   7.465   6.952   0.733 -1.1655  0.9459 -1.1497
   29MOL   H10014156   7.349   6.932   0.515 -3.4857 -0.4251  2.2871
   29MOL   H10114157   7.306   6.712   0.423  1.0662 -1.4821 -0.8843
   29MOL   C10214158   7.619   6.458   0.182 -0.0117  0.3503 -0.1037
   29MOL   C10314159   7.752   6.448   0.263  0.1488  0.4466  0.1236
   29MOL   C10414160   7.853   6.535   0.183  0.5381  0.1536  0.1640
   29MOL   C10514161   7.806   6.305   0.263 -0.6617  0.4848 -0.3706
   29MOL   O10614162   7.898   6.261   0.203 -0.3614 -0.1529 -0.1671
   29MOL   O10714163   7.734   6.224   0.333  0.0874 -0.0892  0.5819
   29MOL   C10814164   7.765   6.086   0.344  0.0136  0.2258 -0.5388
   29MOL   C10914165   7.767   6.033   0.492  0.2064  0.3894 -0.3384
   29MOL   C11014166   7.840   5.919   0.523  0.9273 -0.0476  0.6807
   29MOL   C11114167   7.825   5.858   0.649 -0.3049 -0.6844  0.1031
   29MOL   C11214168   7.765   5.929   0.756  0.8004 -1.1475 -0.1722
   29MOL   C11314169   7.687   6.046   0.728  0.3556  0.1001 -0.1925
   29MOL   C11414170   7.681   6.089   0.593 -0.1103 -0.3289  0.3858
   29MOL   H11514171   7.588   6.560   0.207 -3.0054 -0.1998 -1.3652
   29MOL   H11614172   7.655   6.467   0.080  0.7338  1.3412  0.2448
   29MOL   H11714173   7.826   6.640   0.183  1.4190  0.4130 -2.0041
   29MOL   H11814174   7.855   6.502   0.079  0.3285 -2.3099  0.8872
   29MOL   H11914175   7.958   6.535   0.214  0.2416 -0.3387  1.1823
   29MOL   H12014176   7.679   6.037   0.299 -1.8965  0.7362  2.3979
   29MOL   H12114177   7.858   6.050   0.299 -0.1612  0.3802 -1.0278
   29MOL   H12214178   7.902   5.871   0.448 -0.5628 -1.5232  0.3773
   29MOL   H12314179   7.881   5.769   0.676 -0.1398 -0.9852 -1.2335
   29MOL   H12414180   7.767   5.891   0.857 -1.0331  0.6918  0.6013
   29MOL   H12514181   7.634   6.096   0.807  0.4080 -0.8687  0.4732
   29MOL   H12614182   7.598   6.154   0.569  0.1060 -0.2473 -0.1565
   29MOL   C12714183   7.747   6.512   0.408 -0.0054 -1.0702  0.1718
   29MOL   C12814184   7.868   6.560   0.509  0.8045  0.7439 -0.0575
   29MOL   C12914185   7.890   6.709   0.480 -0.4521 -0.2270  0.8434
   29MOL   C13014186   7.998   6.475   0.487  0.1689  0.1592 -0.3223
   29MOL   O13114187   0.089   6.520   0.432 -0.5633 -0.2661  0.2078
   29MOL   O13214188   7.972   6.347   0.520 -0.1176  0.6846 -0.5500
   29MOL   C13314189   0.072   6.252   0.511 -0.2054 -0.4606 -0.7811
   29MOL   C13414190   0.079   6.153   0.627 -0.9160 -0.5093  0.4898
   29MOL   C13514191   0.168   6.043   0.615  0.8127 -0.0752 -0.1123
   29MOL   C13614192   0.180   5.946   0.714 -0.2947  0.1851  0.1923
   29MOL   C13714193   0.116   5.963   0.837  0.4946 -0.3967  0.2955
   29MOL   C13814194   0.034   6.077   0.853 -0.1605  1.8633 -0.2249
   29MOL   C13914195   0.017   6.168   0.747 -0.3523 -0.1695 -0.3534
   29MOL   H14014196   7.684   6.437   0.456 -0.1575  0.2652  2.1305
   29MOL   H14114197   7.681   6.598   0.399  1.1542 -0.0761  0.9531
   29MOL   H14214198   7.971   6.758   0.535 -0.8076  1.7136 -0.3309
   29MOL   H14314199   7.802   6.773   0.487 -0.0994  0.2787  0.6927
   29MOL   H14414200   7.935   6.715   0.381 -0.5460 -1.1694  0.7466
   29MOL   H14514201   0.063   6.210   0.411 -2.8397 -0.2871 -0.6610
   29MOL   H14614202   0.167   6.306   0.507 -1.4138  1.9580  1.5629
   29MOL   H14714203   0.229   6.025   0.529  1.0714  0.1802  0.0198
   29MOL   H14814204   0.257   5.871   0.705  2.2279  2.7733 -0.6514
   29MOL   H14914205   0.123   5.893   0.919 -3.1974  0.3330  1.2753
   29MOL   H15014206   7.986   6.090   0.945  0.6980 -0.1948  0.6218
   29MOL   H15114207   7.960   6.252   0.769  1.0801  1.3739 -1.9515
   29MOL   C15214208   7.822   6.543   0.660  0.4103  0.1664  0.6331
   29MOL   C15314209   7.904   6.593   0.787 -0.9705 -0.0362  0.0783
   29MOL   C15414210   0.051   6.585   0.774  0.8375 -0.1471  0.4125
   29MOL   C15514211   7.863   6.503   0.909 -0.8477 -0.2491  0.6406
   29MOL   O15614212   7.938   6.426   0.969 -0.3961  0.0541  0.3194
   29MOL   O15714213   7.732   6.518   0.937 -0.2492  0.5243 -0.3924
   29MOL   C15814214   7.677   6.458   1.053  0.1856  0.0816 -0.1385
   29MOL   C15914215   7.600   6.562   1.138 -0.5263  0.0167  0.1570
   29MOL   C16014216   7.478   6.617   1.098 -1.1662 -1.0662  1.3379
   29MOL   C16114217   7.405   6.707   1.182  0.9857  0.2705  0.6083
   29MOL   C16214218   7.458   6.744   1.304  0.4358  0.8020 -0.4951
   29MOL   C16314219   7.585   6.698   1.343 -0.0603  0.2662 -0.3274
   29MOL   C16414220   7.652   6.604   1.263 -0.0344  0.2974 -0.3266
   29MOL   H16514221   7.812   6.435   0.673 -0.1157  0.1564  0.1392
   29MOL   H16614222   7.720   6.581   0.668  0.2303 -0.0781 -0.4250
   29MOL   H16714223   0.092   6.622   0.868 -0.5749  0.3504  0.8373
   29MOL   H16814224   0.100   6.638   0.692 -0.6786 -1.4347 -1.3589
   29MOL   H16914225   0.074   6.479   0.769 -1.6245 -0.6181 -2.1121
   29MOL   H17014226   7.614   6.371   1.032 -1.6882  0.8384  2.0989
   29MOL   H17114227   7.752   6.406   1.112 -3.7982 -3.4972  2.1393
   29MOL   H17214228   7.435   6.585   1.004  1.4130  2.7419 -1.3028
   29MOL   H17314229   7.308   6.746   1.157  0.1162 -3.0209 -1.4990
   29MOL   H17414230   7.409   6.807   1.376  0.3783  0.1868  0.0100
   29MOL   H17514231   7.617   6.726   1.442  1.1916  1.6151 -1.0974
   29MOL   H17614232   7.743   6.563   1.303 -0.2696  0.5576  0.4886
   29MOL   C17714233   7.859   6.739   0.825 -0.4947  0.7523  1.0043
   29MOL   C17814234   7.944   6.842   0.920 -0.4632 -0.3495 -0.3983
   29MOL   C17914235   8.006   6.772   1.048  0.3866 -0.4214  1.3236
   29MOL   C18014236   7.832   6.944   0.975 -0.8360  0.0988 -0.1660
   29MOL   O18114237   7.759   6.991   0.892  0.1887 -0.1283  0.0919
   29MOL   O18214238   7.822   6.956   1.110  0.5748  0.1222 -0.3245
   29MOL   C18314239   7.723   7.035   1.169  0.3044  0.0839  0.5899
   29MOL   C18414240   7.747   7.054   1.320 -0.2136  0.2668 -0.3860
   29MOL   C18514241   7.642   7.065   1.408  0.4389 -0.4929  0.0795
   29MOL   C18614242   7.668   7.077   1.542  0.5225 -0.0424  0.4762
   29MOL   C18714243   7.796   7.075   1.591 -0.4594 -0.0041  0.6172
   29MOL   C18814244   7.903   7.063   1.505  0.7413  0.2909  0.2049
   29MOL   C18914245   7.882   7.059   1.369 -0.4605 -0.2266  0.6159
   29MOL   H19014246   7.756   6.732   0.859 -1.2961 -0.0518 -1.4902
   29MOL   H19114247   7.845   6.801   0.736 -1.8390  1.3125  1.5909
   29MOL   H19214248   0.022   6.836   1.134 -2.4316  1.9819  0.3546
   29MOL   H19314249   0.097   6.725   1.039  0.8938  1.1161 -2.0572
   29MOL   H19414250   7.936   6.697   1.084 -1.6440 -0.0743 -1.7570
   29MOL   H19514251   7.701   7.125   1.111 -2.2563 -1.7601 -1.4490
   29MOL   H19614252   7.624   6.989   1.161  0.4465  0.0696 -1.1985
   29MOL   H19714253   7.540   7.066   1.373  0.5982  1.2850 -0.3555
   29MOL   H19814254   7.583   7.096   1.605 -0.1892  0.3335 -0.5994
   29MOL   H19914255   7.806   7.085   1.698  0.6298  1.6943  0.3652
   29MOL   H20014256   8.006   7.075   1.535  0.1959  2.4999  1.3130
   29MOL   H20114257   7.965   7.060   1.299 -0.6431 -0.7665  0.3822
   29MOL   C20214258   0.053   6.909   0.843  0.2155  0.2582  0.9201
   29MOL   C20314259   0.103   7.065   0.846  0.1950  0.2593  0.3125
   29MOL   C20414260   0.125   7.099   1.000  0.0689 -0.1646 -0.2930
   29MOL   C20514261   8.003   7.161   0.786 -0.5553 -0.3933 -0.1825
   29MOL   O20614262   7.974   7.265   0.838  0.4079 -0.2333 -0.0322
   29MOL   O20714263   7.957   7.109   0.668  0.5003 -0.6126 -0.3321
   29MOL   C20814264   7.849   7.174   0.606  0.3673  0.1349  0.3155
   29MOL   C20914265   7.797   7.093   0.483 -0.0557  0.2495 -0.0888
   29MOL   C21014266   7.662   7.055   0.467  0.1355  0.4810 -0.2694
   29MOL   C21114267   7.628   6.979   0.352 -0.0861  0.4806  0.0538
   29MOL   C21214268   7.725   6.943   0.254 -1.0506 -0.6827 -0.8897
   29MOL   C21314269   7.856   6.978   0.277 -0.2754  0.8049 -0.5626
   29MOL   C21414270   7.893   7.052   0.390  0.2431  0.6041  0.0324
   29MOL   H21514271   0.019   6.893   0.741  0.6018 -3.0548  1.2565
   29MOL   H21614272   0.139   6.845   0.859  0.1307 -0.3468 -0.9401
   29MOL   H21714273   0.187   7.024   1.049  0.0078  1.7114  2.8044
   29MOL   H21814274   0.030   7.096   1.053 -0.0963 -1.6332 -0.6417
   29MOL   H21914275   0.174   7.195   1.019 -1.7151  0.8333 -0.5925
   29MOL   H22014276   7.771   7.189   0.682 -1.0080  1.6264 -1.3491
   29MOL   H22114277   7.889   7.263   0.559  1.0212 -0.2671  0.1126
   29MOL   H22214278   7.595   7.092   0.544 -0.1668  0.7591 -0.6662
   29MOL   H22314279   7.524   6.956   0.333 -0.8723  3.8058 -0.0441
   29MOL   H22414280   7.698   6.880   0.170 -2.1825 -1.1751 -0.1795
   29MOL   H22514281   7.937   6.942   0.215  1.5369  0.7547  1.7330
   29MOL   H22614282   7.997   7.079   0.400  0.5160  0.1684 -1.4199
   29MOL   C22714283   0.237   7.094   0.766 -0.0034  0.3467 -0.0245
   29MOL   C22814284   0.358   6.995   0.748 -0.2332  0.2430  0.2116
   29MOL   C22914285   0.312   6.875   0.658 -0.0265 -0.4099  0.7612
   29MOL   C23014286   0.398   6.940   0.886 -0.1133 -0.5901  0.6268
   29MOL   O23114287   0.396   6.820   0.913 -0.1681 -0.1027 -0.0382
   29MOL   O23214288   0.428   7.039   0.980 -0.3865  0.2934  0.6562
   29MOL   C23314289   0.466   7.010   1.114  0.1971  0.0308 -0.5528
   29MOL   C23414290   0.463   7.132   1.202  0.4189  0.2568 -0.5529
   29MOL   C23514291   0.509   7.256   1.162 -0.1351  0.3349 -0.6140
   29MOL   C23614292   0.517   7.363   1.258 -0.0837  0.4389  0.2417
   29MOL   C23714293   0.486   7.338   1.389 -0.2732 -0.4047  0.2458
   29MOL   C23814294   0.427   7.215   1.424 -0.7339  0.1642  0.2191
   29MOL   C23914295   0.428   7.109   1.334 -0.0104 -0.6076 -0.3261
   29MOL   H24014296   0.281   7.184   0.809  1.2606 -0.4244  0.2949
   29MOL   H24114297   0.204   7.111   0.664  0.6158 -0.3815 -0.3453
   29MOL   H24214298   0.389   6.799   0.640 -0.7664 -1.2028  0.9268
   29MOL   H24314299   0.258   6.915   0.572  1.4176 -0.4256 -0.1879
   29MOL   H24414300   0.240   6.810   0.706 -0.8065 -1.0993 -1.2730
   29MOL   H24514301   0.413   6.922   1.151  4.4175 -1.9574  1.1292
   29MOL   H24614302   0.571   6.979   1.110 -0.6414 -3.3363  1.5415
   29MOL   H24714303   0.551   7.279   1.065  1.3460  1.4758  0.2793
   29MOL   H24814304   0.571   7.456   1.247 -0.2264  0.5809  0.7258
   29MOL   H24914305   0.504   7.418   1.460  0.0272 -0.2135 -0.0419
   29MOL   H25014306   0.404   7.198   1.528  1.3281  1.1312  0.8744
   29MOL   H25114307   0.397   7.010   1.364 -1.9562  0.1646  0.3236
   29MOL   C25214308   0.481   7.072   0.679 -0.9457  0.0616  0.0189
   29MOL   C25314309   0.631   7.028   0.659  0.2686  0.2049 -0.1194
   29MOL   C25414310   0.636   6.880   0.626 -0.6012  0.1167  0.1926
   29MOL   C25514311   0.716   7.056   0.794  0.0774 -0.2928  0.0238
   29MOL   O25614312   0.682   7.132   0.883  0.8680 -0.1567  0.0341
   29MOL   O25714313   0.832   6.987   0.799  0.2303  0.7127 -0.6093
   29MOL   C25814314   0.908   6.979   0.919 -0.5489 -0.0735  0.0568
   29MOL   C25914315   1.004   6.862   0.920 -0.2107  1.0765  0.4666
   29MOL   C26014316   1.100   6.843   0.820 -0.8880  0.3464 -0.0651
   29MOL   C26114317   1.200   6.745   0.836  0.3674 -0.0778  0.2574
   29MOL   C26214318   1.196   6.657   0.949 -0.4610 -0.2540  0.0939
   29MOL   C26314319   1.084   6.661   1.036 -0.0013 -0.3842 -0.5917
   29MOL   C26414320   0.986   6.763   1.021 -0.1235  0.2316  0.0227
   29MOL   H26514321   0.491   7.171   0.726 -0.6719 -0.1063  0.3176
   29MOL   H26614322   0.450   7.085   0.575 -3.7606 -0.4947  0.7343
   29MOL   H26714323   0.738   6.852   0.602 -0.9557 -0.6792 -0.4027
   29MOL   H26814324   0.578   6.837   0.544  1.0293  1.6202 -1.7902
   29MOL   H26914325   0.604   6.823   0.713  0.2859  1.4501  1.4157
   29MOL   H27014326   0.962   7.072   0.938  1.6338 -0.7455 -2.6249
   29MOL   H27114327   0.849   6.960   1.009 -0.2478 -0.7822  0.1035
   29MOL   H27214328   1.099   6.913   0.737 -0.9686 -1.1682 -1.3789
   29MOL   H27314329   1.278   6.741   0.762  1.0515 -1.1019  1.0115
   29MOL   H27414330   1.274   6.582   0.951 -1.1305 -0.9612 -0.0988
   29MOL   H27514331   1.074   6.586   1.113  1.4372 -1.1397 -1.1311
   29MOL   H27614332   0.901   6.767   1.088 -0.9777  1.6494 -1.1236
   29MOL   C27714333   0.704   7.105   0.540 -0.7517  0.8925  0.0399
   29MOL   C27814334   0.687   7.261   0.506 -0.3145  0.0428 -0.6827
   29MOL   C27914335   0.551   7.293   0.454  0.0359 -0.2475  0.2514
   29MOL   C28014336   0.789   7.284   0.393 -0.0892 -0.5083  0.5494
   29MOL   O28114337   0.766   7.348   0.290 -0.4044  0.5098 -0.2805
   29MOL   O28214338   0.917   7.246   0.429  0.6356  0.8101 -0.0295
   29MOL   C28314339   1.025   7.205   0.337  0.2376  0.5206 -0.2746
   29MOL   C28414340   1.073   7.066   0.387 -0.3301  0.7473  0.2634
   29MOL   C28514341   1.199   7.062   0.449  0.9164  0.3255  0.4335
   29MOL   C28614342   1.261   6.944   0.494  0.2363 -0.6996 -0.3173
   29MOL   C28714343   1.184   6.823   0.479  0.0660  0.7366 -0.9467
   29MOL   C28814344   1.055   6.820   0.419 -0.0865 -0.0308  0.2594
   29MOL   C28914345   1.007   6.942   0.372  0.3606 -0.1742  0.1962
   29MOL   H29014346   0.700   7.046   0.449  1.0513  0.7326  0.0438
   29MOL   H29114347   0.810   7.094   0.564 -0.7197 -1.1484 -0.9256
   29MOL   H29214348   0.490   7.207   0.424 -0.0607  0.0310 -0.3677
   29MOL   H29314349   0.547   7.376   0.383  1.7836 -1.1499 -0.9452
   29MOL   H29414350   0.490   7.325   0.538  0.5557 -0.3840  0.6822
   29MOL   H29514351   0.999   7.202   0.231 -0.7727  0.1130 -0.0267
   29MOL   H29614352   1.108   7.274   0.354 -1.3523  1.9235  2.1644
   29MOL   H29714353   1.263   7.150   0.449  4.2248 -1.9987 -0.6939
   29MOL   H29814354   1.356   6.945   0.545  2.7032 -0.2936 -4.7051
   29MOL   H29914355   1.224   6.732   0.522  0.1722  1.3912  0.3537
   29MOL   H30014356   1.001   6.728   0.405  2.9810 -1.9335  0.3594
   29MOL   H30114357   0.904   6.936   0.338  0.0273 -2.6969  1.5544
   29MOL   C30214358   0.729   7.348   0.639  0.7995 -0.3662  0.4683
   29MOL   C30314359   0.746   7.508   0.638 -0.1243 -0.5848 -0.4718
   29MOL   C30414360   0.613   7.581   0.596  0.1413  0.4211 -0.4080
   29MOL   C30514361   0.860   7.561   0.549 -0.2834 -0.6396  0.5155
   29MOL   O30614362   0.844   7.643   0.458 -0.3288 -0.5183  0.1857
   29MOL   O30714363   0.975   7.511   0.573  0.0278 -0.6841  0.0668
   29MOL   C30814364   1.084   7.543   0.487 -0.4717  0.1591  0.3386
   29MOL   C30914365   1.215   7.474   0.535 -0.0012 -0.3290  0.1854
   29MOL   C31014366   1.325   7.472   0.453  0.4097 -0.0503 -0.0192
   29MOL   C31114367   1.439   7.400   0.489  0.3193  0.2519 -0.0982
   29MOL   C31214368   1.448   7.320   0.607 -0.2927 -0.1910 -0.4995
   29MOL   C31314369   1.332   7.314   0.685  0.1406 -0.7571 -0.2637
   29MOL   C31414370   1.219   7.387   0.653  0.4286  0.3336 -0.3458
   29MOL   H31514371   0.820   7.298   0.672  2.0760  0.4140 -1.7417
   29MOL   H31614372   0.663   7.321   0.721  0.5315 -0.7808  0.1129
   29MOL   H31714373   0.603   7.562   0.489  0.0086  4.6009 -1.2316
   29MOL   H31814374   0.613   7.690   0.600  0.4809  0.3799  1.1123
   29MOL   H31914375   0.521   7.537   0.635 -0.1003  0.2500 -1.1502
   29MOL   H32014376   1.054   7.522   0.384 -1.9271  0.9845  0.5723
   29MOL   H32114377   1.109   7.649   0.484 -0.6311  0.2625  2.1635
   29MOL   H32214378   1.325   7.519   0.355 -1.2496 -1.5198 -0.7615
   29MOL   H32314379   1.523   7.412   0.424 -1.0260 -0.3471 -1.9938
   29MOL   H32414380   1.534   7.259   0.624  1.5315  2.1639 -0.9586
   29MOL   H32514381   1.337   7.246   0.769 -1.4673  0.0942  0.5533
   29MOL   H32614382   1.129   7.378   0.712  1.6323  1.7639  1.7549
   29MOL   C32714383   0.754   7.554   0.790 -0.3427 -0.1293  0.3277
   29MOL   C32814384   0.828   7.684   0.852 -0.0970 -0.5872  0.0061
   29MOL   C32914385   0.759   7.713   0.989  0.2861 -0.0699  0.1583
   29MOL   C33014386   0.799   7.804   0.757  0.6708 -0.2899  0.0044
   29MOL   O33114387   0.883   7.842   0.671  0.2622  0.0895  0.5989
   29MOL   O33214388   0.674   7.862   0.767  0.0774 -0.6177 -0.8221
   29MOL   C33314389   0.631   7.969   0.689  0.4427 -0.3038  0.3355
   29MOL   C33414390   0.669   0.098   0.758 -0.4299 -0.1641 -0.2183
   29MOL   C33514391   0.652   0.216   0.686  0.4753 -0.1476 -0.3229
   29MOL   C33614392   0.682   0.340   0.749 -0.2328 -0.4375  0.0281
   29MOL   C33714393   0.721   0.336   0.886 -0.5302 -0.3401 -0.0305
   29MOL   C33814394   0.721   0.219   0.962 -0.5807 -0.9624  0.1608
   29MOL   C33914395   0.694   0.096   0.898 -0.0887 -0.4332  0.3479
   29MOL   H34014396   0.794   7.469   0.845 -0.0795 -0.3104 -0.1384
   29MOL   H34114397   0.655   7.563   0.835  0.3707  0.2240  1.8487
   29MOL   H34214398   0.651   7.720   0.979  0.3424 -0.1875 -0.5268
   29MOL   H34314399   0.792   7.807   1.034 -2.0166 -0.1448  2.0660
   29MOL   H34414400   0.784   7.640   1.066 -1.9059 -0.2149  0.7660
   29MOL   H34514401   0.670   7.972   0.588 -1.0303  0.0958 -0.2323
   29MOL   H34614402   0.522   7.965   0.685  0.4564 -1.0963  0.6041
   29MOL   H34714403   0.623   0.219   0.582 -0.0435  0.9561 -0.1549
   29MOL   H34814404   0.667   0.433   0.696 -2.5857 -1.4562 -1.1656
   29MOL   H34914405   0.736   0.428   0.941 -0.2524  0.1354 -0.8872
   29MOL   H35014406   0.738   0.228   1.068  0.5578 -2.6974  0.1515
   29MOL   H35114407   0.680   0.009   0.961  0.4819 -0.3875  0.5357
   29MOL   C35214408   0.981   7.653   0.878 -0.2625  0.3387 -0.3181
   29MOL   C35314409   1.094   7.734   0.959 -0.2566  0.3591  0.0803
   29MOL   C35414410   1.070   7.714   1.110  0.3416  0.5307 -0.4079
   29MOL   C35514411   1.085   7.884   0.914 -0.4941 -0.8206  0.0830
   29MOL   O35614412   1.019   7.961   0.984  0.3280 -0.2260  0.3460
   29MOL   O35714413   1.151   7.913   0.800  0.8340  0.2255  0.7400
   29MOL   C35814414   1.139   0.031   0.741  0.0576 -0.3116  0.0577
   29MOL   C35914415   1.185   0.032   0.596  0.0584 -0.1491 -0.3988
   29MOL   C36014416   1.323   0.022   0.575 -0.1351 -0.7270  0.2799
   29MOL   C36114417   1.379   0.043   0.446  0.5166  0.6617  0.8767
   29MOL   C36214418   1.292   0.065   0.337 -0.0780  0.5787 -0.1532
   29MOL   C36314419   1.152   0.083   0.364  0.0424 -0.2885  0.8120
   29MOL   C36414420   1.093   0.067   0.493 -0.2258 -0.0154 -0.2534
   29MOL   H36514421   1.025   7.631   0.780 -0.4259  0.1239 -0.3436
   29MOL   H36614422   0.972   7.552   0.917 -0.5859 -0.3794 -2.1657
   29MOL   H36714423   0.978   7.760   1.145 -0.9152 -1.2110 -1.3108
   29MOL   H36814424   1.145   7.762   1.173 -0.6791  0.3471  0.9610
   29MOL   H36914425   1.063   7.611   1.145 -2.7248  1.1682  0.9891
   29MOL   H37014426   1.031   0.045   0.745 -0.3230 -2.8973 -0.3570
   29MOL   H37114427   1.192   0.104   0.802  1.9813 -2.2566  0.8183
   29MOL   H37214428   1.383   8.007   0.662  0.1038  0.1837  0.3481
   29MOL   H37314429   1.485   0.033   0.431  0.3313 -0.2556  0.1719
   29MOL   H37414430   1.334   0.077   0.238 -1.0521 -0.8298 -0.7556
   29MOL   H37514431   1.090   0.110   0.280  1.1956  1.4411  0.5004
   29MOL   H37614432   0.986   0.075   0.504  0.0867  0.3258  2.9072
   29MOL   C37714433   1.238   7.671   0.925  0.1306 -0.0977  0.3902
   29MOL   C37814434   1.383   7.718   0.976  0.0008 -0.2954  0.4147
   29MOL   C37914435   1.414   7.628   1.106  0.6932  0.1354  0.3747
   29MOL   C38014436   1.384   7.870   1.012 -0.7274 -0.0759  0.5459
   29MOL   O38114437   1.410   7.957   0.926  0.0561  0.0348  0.4299
   29MOL   O38214438   1.340   7.895   1.132  0.4537 -0.4546  0.6940
   29MOL   C38314439   1.327   0.021   1.169  0.8389 -0.4746  0.0020
   29MOL   C38414440   1.272   0.039   1.311 -0.4071  0.2582 -0.2765
   29MOL   C38514441   1.260   0.171   1.364 -0.0804 -0.3977  0.6206
   29MOL   C38614442   1.210   0.200   1.495 -0.4081 -0.0231 -0.2915
   29MOL   C38714443   1.187   0.090   1.578  0.7562  0.5679 -0.1212
   29MOL   C38814444   1.200   7.963   1.528  0.2229 -0.2368  0.4594
   29MOL   C38914445   1.238   7.935   1.394 -0.5022 -0.3519  0.1337
   29MOL   H39014446   1.244   7.661   0.816  1.4102  0.7809  0.3640
   29MOL   H39114447   1.225   7.567   0.953 -1.3122  0.1022  0.4683
   29MOL   H39214448   1.326   7.631   1.171  0.4033 -0.2155 -0.0035
   29MOL   H39314449   1.494   7.666   1.170  1.6058  0.7018 -1.0852
   29MOL   H39414450   1.439   7.527   1.076  2.8831  1.5209 -2.6301
   29MOL   H39514451   1.422   0.073   1.168  0.9211 -0.6240 -0.1107
   29MOL   H39614452   1.269   0.070   1.090  2.1013  1.5775  0.3144
   29MOL   H39714453   1.301   0.257   1.313  0.6528 -0.7314  0.6489
   29MOL   H39814454   1.191   0.301   1.530  1.0125  0.4838 -0.9901
   29MOL   H39914455   1.163   0.104   1.682 -3.0849 -1.2713 -0.6537
   29MOL   H40014456   1.179   7.887   1.601 -1.1449 -0.7392 -0.4399
   29MOL   H40114457   1.259   7.834   1.362 -0.7030 -0.4754  0.3880
   29MOL   C40214458   1.477   7.682   0.851 -0.5253  0.2949  0.1295
   29MOL   C40314459   1.628   7.706   0.835  0.2765  0.0583  0.3534
   29MOL   C40414460   1.677   7.597   0.741 -0.1836  0.1578  0.0428
   29MOL   C40514461   1.702   7.690   0.972 -0.1904 -0.3752  0.0883
   29MOL   O40614462   1.763   7.587   1.007 -0.0990  0.2802  0.1617
   29MOL   O40714463   1.683   7.795   1.056  0.1603 -0.2798 -0.5547
   29MOL   C40814464   1.748   7.787   1.182  0.2109  0.1682  0.6764
   29MOL   C40914465   1.727   7.917   1.263 -0.0471 -0.5749  0.6104
   29MOL   C41014466   1.617   7.934   1.352 -0.4153 -0.0131 -0.1676
   29MOL   C41114467   1.616   0.038   1.430 -0.3263 -0.2241 -0.1181
   29MOL   C41214468   1.723   0.131   1.427 -0.9291 -0.6904 -0.0642
   29MOL   C41314469   1.832   0.115   1.334 -0.1597 -0.4805  0.0115
   29MOL   C41414470   1.825   0.008   1.249  0.1474  0.2242 -0.1477
   29MOL   H41514471   1.441   7.714   0.753  1.5573 -0.3583 -0.8970
   29MOL   H41614472   1.454   7.576   0.844  2.3412 -0.3498 -0.5200
   29MOL   H41714473   1.653   7.501   0.786 -1.5931 -1.0783 -3.1982
   29MOL   H41814474   1.785   7.602   0.734 -0.1187 -0.5546  0.4838
   29MOL   H41914475   1.637   7.584   0.641 -1.3228  0.1836  0.4857
   29MOL   H42014476   1.702   7.708   1.241  0.7025 -1.3516 -0.9127
   29MOL   H42114477   1.850   7.750   1.171  0.3025  0.7254 -0.4676
   29MOL   H42214478   1.538   7.861   1.365  1.1008 -2.2817 -3.0945
   29MOL   H42314479   1.534   0.054   1.499 -0.9215  0.4156 -0.9617
   29MOL   H42414480   1.729   0.214   1.496 -1.0595 -0.8360  0.1251
   29MOL   H42514481   1.905   0.194   1.335 -0.8214  0.1591 -1.0473
   29MOL   H42614482   1.897   8.002   1.170 -0.7989  0.2581 -1.0308
   29MOL   C42714483   1.657   7.839   0.741  0.4483 -0.3720  0.4497
   29MOL   C42814484   1.792   7.917   0.737 -0.3021 -0.1913  0.1034
   29MOL   C42914485   1.913   7.819   0.738  0.3078  0.2016  0.5617
   29MOL   C43014486   1.798   0.007   0.852  0.1985 -0.0153 -0.2265
   29MOL   O43114487   1.888   0.002   0.934  0.2510  0.4281  0.6332
   29MOL   O43214488   1.697   0.094   0.854  0.1292  0.0641 -0.2453
   29MOL   C43314489   1.696   0.193   0.963 -0.1802  0.5653  0.2336
   29MOL   C43414490   1.570   0.280   0.981  0.2722 -0.0025 -1.4057
   29MOL   C43514491   1.546   0.355   1.106 -0.7104 -0.0346  0.2708
   29MOL   C43614492   1.428   0.421   1.124  0.0811 -0.5241  0.0798
   29MOL   C43714493   1.321   0.407   1.031 -0.4445 -0.2896 -0.5957
   29MOL   C43814494   1.340   0.324   0.918  0.1246  0.1518 -0.4541
   29MOL   C43914495   1.468   0.273   0.887 -0.3442  0.4077  0.1831
   29MOL   H44014496   1.581   7.915   0.756  1.6588  0.7963  0.7398
   29MOL   H44114497   1.630   7.806   0.641  2.0154  1.1135 -0.4957
   29MOL   H44214498   2.007   7.872   0.755  1.5535 -1.5064 -0.7563
   29MOL   H44314499   1.908   7.751   0.653  0.5645 -0.8974  1.4170
   29MOL   H44414500   1.914   7.745   0.818  0.6136 -1.5774 -1.0401
   29MOL   H44514501   1.685   0.132   1.053  1.5068  2.0790  1.5033
   29MOL   H44614502   1.784   0.257   0.971  0.4568 -0.4259  1.3727
   29MOL   H44714503   1.619   0.340   1.184 -1.3661 -0.8149  0.7499
   29MOL   H44814504   1.405   0.480   1.212  1.7237  1.9594 -1.1054
   29MOL   H44914505   1.233   0.468   1.040 -0.7479 -0.9090  0.7893
   29MOL   H45014506   1.263   0.310   0.844  2.1055 -2.0389 -2.1820
   29MOL   H45114507   1.469   0.205   0.803 -2.5514  0.4789  0.0639
   29MOL   C45214508   1.798   8.006   0.601  0.0870  0.5709  0.2576
   29MOL   C45314509   1.900   0.112   0.568 -0.0177  0.0069  0.1246
   29MOL   C45414510   2.038   0.107   0.652  0.3806 -1.2108  1.0007
   29MOL   C45514511   1.833   0.246   0.603 -0.1829 -0.2036 -0.1731
   29MOL   O45614512   1.864   0.315   0.694  0.4153  0.4466 -0.5297
   29MOL   O45714513   1.734   0.270   0.515  0.1218 -0.0675  0.1051
   29MOL   C45814514   1.637   0.369   0.534 -0.4840  0.0048 -0.1812
   29MOL   C45914515   1.555   0.395   0.413 -0.0755  0.1664 -0.0680
   29MOL   C46014516   1.415   0.410   0.420  0.2766 -0.1431 -0.2034
   29MOL   C46114517   1.337   0.425   0.304 -0.0703 -0.0666  0.0304
   29MOL   C46214518   1.405   0.423   0.182 -0.2573  0.2824  0.1823
   29MOL   C46314519   1.546   0.419   0.171  0.4472  0.0710 -0.3802
   29MOL   C46414520   1.626   0.406   0.289  0.2126  0.5257  0.4386
   29MOL   H46514521   1.702   0.049   0.615  1.3571  2.9082  0.9224
   29MOL   H46614522   1.785   7.942   0.514 -2.0535  0.4588  0.6445
   29MOL   H46714523   2.090   0.016   0.622  0.4381 -0.7682 -0.2716
   29MOL   H46814524   2.030   0.115   0.760  0.4932  1.8704  0.8105
   29MOL   H46914525   2.097   0.194   0.626 -1.6372  0.3753  1.5967
   29MOL   H47014526   1.578   0.347   0.623  1.4082 -0.3072  1.0391
   29MOL   H47114527   1.687   0.466   0.539  0.7255 -0.4262 -2.8861
   29MOL   H47214528   1.354   0.391   0.507  2.1173 -0.0561  1.1464
   29MOL   H47314529   1.229   0.420   0.308 -0.0439 -0.5379  0.2092
   29MOL   H47414530   1.349   0.426   0.089  3.4957  0.2415 -2.1700
   29MOL   H47514531   1.595   0.429   0.075  1.2526 -2.3697 -0.2589
   29MOL   H47614532   1.734   0.406   0.286  0.2492 -0.0368  1.4974
   29MOL   C47714533   1.933   0.105   0.414  0.3441 -0.1121  0.2403
   29MOL   C47814534   2.010   0.214   0.340  0.1083 -0.4010  0.0780
   29MOL   C47914535   1.986   0.222   0.189  0.7129  0.5481 -0.7932
   29MOL   C48014536   2.162   0.216   0.363 -0.0272 -0.0221 -0.1040
   29MOL   O48114537   2.219   0.318   0.406  0.2814  0.1486  0.3751
   29MOL   O48214538   2.218   0.094   0.344  0.2825  0.0523  0.4883
   29MOL   C48314539   2.358   0.081   0.366 -0.0745 -0.7381  0.1714
   29MOL   C48414540   2.404   7.951   0.346  0.0386  0.1788 -0.6333
   29MOL   C48514541   2.511   7.902   0.426 -0.9668  0.7184 -0.1381
   29MOL   C48614542   2.552   7.767   0.424  0.0937  0.1361  0.4087
   29MOL   C48714543   2.495   7.687   0.328  0.0066  0.3183  0.2267
   29MOL   C48814544   2.389   7.733   0.247 -0.3315  0.7258 -0.1540
   29MOL   C48914545   2.337   7.864   0.254  0.8046  0.2297  0.2102
   29MOL   H49014546   1.837   0.104   0.363 -0.3940  1.1707  1.5485
   29MOL   H49114547   1.988   0.017   0.384  1.4858  1.3161 -2.0168
   29MOL   H49214548   1.965   0.118   0.166  2.8851 -0.4256  1.4790
   29MOL   H49314549   2.077   0.258   0.141  0.1077  2.7831 -0.3352
   29MOL   H49414550   1.894   0.278   0.170 -0.0361 -0.1673  0.6234
   29MOL   H49514551   2.411   0.152   0.302 -0.5826 -0.7730 -0.2952
   29MOL   H49614552   2.392   0.114   0.464  2.2639 -0.7847 -0.5809
   29MOL   H49714553   2.564   7.966   0.495  0.1491 -1.5261  1.1524
   29MOL   H49814554   2.639   7.728   0.476  0.0109 -2.9137 -1.6556
   29MOL   H49914555   2.537   7.589   0.314 -2.2592 -0.6499 -0.0981
   29MOL   H50014556   2.336   7.670   0.177 -1.5092  1.0407  0.4529
   29MOL   H50114557   2.265   7.901   0.183 -0.5658  1.0821  1.9980
   29MOL   H50214558   1.976   0.304   0.389  0.7417  1.5919 -3.0036
   30MOL     C114559   4.753   7.956   3.240  0.0907 -0.4656 -0.0731
   30MOL     C214560   4.625   7.867   3.241  0.2146  0.2908  0.7133
   30MOL     C314561   4.613   7.823   3.388  0.1937 -0.1798 -0.1224
   30MOL     C414562   4.655   7.735   3.155 -0.1900  0.3587 -0.5849
   30MOL     O514563   4.562   7.671   3.099 -0.2421 -0.5698  0.2553
   30MOL     O614564   4.778   7.700   3.169 -0.3331 -0.0162  0.5532
   30MOL     C714565   4.820   7.598   3.083  0.1672 -0.2903 -0.7950
   30MOL     C814566   4.971   7.578   3.083  0.4919  0.3529 -0.5527
   30MOL     C914567   5.044   7.687   3.060 -0.6676  0.1100  0.2045
   30MOL    C1014568   5.178   7.682   3.030 -0.7876 -0.1484  0.3048
   30MOL    C1114569   5.248   7.559   3.029  0.8793 -0.3688 -0.0882
   30MOL    C1214570   5.176   7.443   3.071 -0.5713 -0.0442 -0.5891
   30MOL    C1314571   5.038   7.455   3.102 -0.1097 -0.1231  0.0475
   30MOL    H1414572   4.728   0.038   3.297  1.3684 -0.1957  0.0970
   30MOL    H1514573   4.843   7.914   3.285 -1.4624 -3.6448  0.2234
   30MOL    H1614574   4.524   7.765   3.410  0.6434 -0.9604 -0.3283
   30MOL    H1714575   4.629   7.904   3.459 -1.9606  1.0583 -1.0001
   30MOL    H1814576   4.703   7.766   3.412 -0.2664 -0.8592 -0.0256
   30MOL    H1914577   4.771   7.504   3.110  0.1601  0.0837  0.5320
   30MOL    H2014578   4.787   7.629   2.984 -1.0193 -0.8988 -0.6001
   30MOL    H2114579   5.005   7.787   3.049  0.2542  0.1896 -2.5459
   30MOL    H2214580   5.237   7.768   3.004  1.0244 -1.4681 -0.0713
   30MOL    H2314581   5.353   7.556   3.006  1.0767  0.9616  0.6294
   30MOL    H2414582   5.223   7.347   3.087 -0.8677 -0.1897 -0.5955
   30MOL    H2514583   4.989   7.365   3.137  1.1213 -0.0968  1.9283
   30MOL    H2614584   4.775   7.994   3.140  0.7477  1.7635  0.8945
   30MOL    C2714585   4.493   7.937   3.203  0.4182  0.5727  0.8342
   30MOL    C2814586   4.484   0.003   3.065 -0.2531  0.0839  0.4505
   30MOL    C2914587   4.541   7.923   2.947  0.7418 -0.1574  0.0304
   30MOL    C3014588   4.564   0.137   3.069 -0.5605  0.3495  0.6173
   30MOL    O3114589   4.611   0.184   2.966 -0.3374  0.2120 -0.0005
   30MOL    O3214590   4.562   0.201   3.184 -0.6567 -0.4207  0.3576
   30MOL    C3314591   4.605   0.338   3.185 -0.7942 -0.1356 -0.8769
   30MOL    C3414592   4.655   0.373   3.324 -0.3786  0.1154  0.5909
   30MOL    C3514593   4.740   0.485   3.339  0.1794 -0.0075 -0.6384
   30MOL    C3614594   4.798   0.510   3.466  0.3638 -0.1047  0.4859
   30MOL    C3714595   4.762   0.427   3.573  0.2655 -0.8252  0.1657
   30MOL    C3814596   4.664   0.322   3.562 -0.5938 -0.2110  0.2683
   30MOL    C3914597   4.621   0.290   3.437 -0.2421 -0.2551  0.0762
   30MOL    H4014598   4.480   0.001   3.284 -1.3086  0.3287  0.7823
   30MOL    H4114599   4.408   7.869   3.214  0.5817 -0.0834 -1.5568
   30MOL    H4214600   4.470   7.841   2.938  1.1617 -0.2603 -2.7854
   30MOL    H4314601   4.645   7.892   2.957  0.5799 -1.1389 -1.2397
   30MOL    H4414602   4.541   7.976   2.851 -0.8924 -1.4568 -0.7085
   30MOL    H4514603   4.684   0.366   3.114  0.1134  0.2883  0.2828
   30MOL    H4614604   4.519   0.403   3.167  0.6416  1.3623 -2.5644
   30MOL    H4714605   4.771   0.547   3.257 -0.2656  1.1665  0.0771
   30MOL    H4814606   4.861   0.596   3.478  2.3648 -1.4793  0.1190
   30MOL    H4914607   4.797   0.443   3.674 -2.0110  1.9654  0.5714
   30MOL    H5014608   4.626   0.280   3.655  0.6756 -0.5477  0.6538
   30MOL    H5114609   4.547   0.211   3.430  1.8614 -2.3485  0.6724
   30MOL    C5214610   4.325   0.024   3.046 -0.5071  0.1018 -0.4846
   30MOL    C5314611   4.259   0.121   2.949 -0.4551  0.3721 -0.1972
   30MOL    C5414612   4.315   0.094   2.812  0.5066  0.3569  0.6406
   30MOL    C5514613   4.283   0.276   2.991  0.4144 -0.9560 -0.6475
   30MOL    O5614614   4.290   0.309   3.113 -0.0981 -0.3061 -0.3166
   30MOL    O5714615   4.296   0.359   2.889  0.6261 -0.1824  0.0383
   30MOL    C5814616   4.310   0.496   2.911 -0.1750  0.4936  0.5470
   30MOL    C5914617   4.442   0.556   2.946 -0.1131  0.0770  0.6739
   30MOL    C6014618   4.556   0.517   2.874  0.3964  0.1970 -0.6075
   30MOL    C6114619   4.681   0.570   2.905  0.0263  0.4218 -0.0687
   30MOL    C6214620   4.695   0.659   3.013  0.1787 -0.1758  0.2831
   30MOL    C6314621   4.581   0.691   3.088  0.6491 -0.1433 -0.0618
   30MOL    C6414622   4.451   0.646   3.050  0.0189  0.2649  0.2135
   30MOL    H6514623   4.275   0.047   3.140 -0.6557 -0.3439 -0.4521
   30MOL    H6614624   4.281   7.932   3.028 -0.0086  0.2420 -2.6216
   30MOL    H6714625   4.252   0.129   2.731 -0.6642 -1.9252  0.5222
   30MOL    H6814626   4.329   7.995   2.792  0.1879  0.0889  1.7766
   30MOL    H6914627   4.413   0.135   2.788 -0.6609  2.3690 -0.8329
   30MOL    H7014628   4.291   0.548   2.817  2.8234  2.3382  0.8931
   30MOL    H7114629   4.227   0.529   2.974 -1.6987 -0.6688 -0.8190
   30MOL    H7214630   4.556   0.446   2.793  0.7471 -0.8854  0.3394
   30MOL    H7314631   4.770   0.543   2.850 -0.3160  0.1428 -0.4963
   30MOL    H7414632   4.785   0.696   3.061  1.1382 -0.0912 -1.5738
   30MOL    H7514633   4.584   0.745   3.181 -1.0312 -1.1723  0.6191
   30MOL    H7614634   4.363   0.687   3.097  0.0100  0.4150  0.0616
   30MOL    C7714635   4.104   0.116   2.939  0.0195 -1.0860 -0.0734
   30MOL    C7814636   3.995   0.082   3.046  0.8727  0.7177 -0.3880
   30MOL    C7914637   4.017   0.172   3.168  0.0458 -0.1277 -0.0055
   30MOL    C8014638   4.009   7.940   3.110  0.7538  0.0960 -0.1028
   30MOL    O8114639   4.004   7.915   3.230 -0.5890 -0.4172 -0.2520
   30MOL    O8214640   4.037   7.856   3.016 -0.0897 -0.4006  0.0113
   30MOL    C8314641   4.057   7.721   3.037 -0.3377  0.0848  0.7903
   30MOL    C8414642   4.050   7.635   2.910 -0.6370  0.0486  0.0974
   30MOL    C8514643   3.974   7.515   2.899 -0.5291  0.1700  0.4479
   30MOL    C8614644   3.985   7.438   2.781 -0.6042  0.3012  0.5207
   30MOL    C8714645   4.066   7.486   2.678 -0.2781 -0.0825  0.1121
   30MOL    C8814646   4.124   7.604   2.676  0.4304  0.0646 -0.9516
   30MOL    C8914647   4.125   7.682   2.797 -0.1155 -0.1702 -0.7960
   30MOL    H9014648   4.089   0.047   2.856  1.0022 -0.2528 -0.9468
   30MOL    H9114649   4.069   0.208   2.892 -1.8119 -1.9286 -0.4327
   30MOL    H9214650   3.936   0.164   3.241 -0.5144  1.3712 -0.4569
   30MOL    H9314651   4.031   0.279   3.152  0.7728 -0.2457 -0.1753
   30MOL    H9414652   4.111   0.155   3.221  0.7571  0.5929 -1.0301
   30MOL    H9514653   4.153   7.700   3.084 -1.3938 -4.7428  1.0927
   30MOL    H9614654   3.978   7.682   3.101  0.6311 -2.3722  0.5326
   30MOL    H9714655   3.911   7.482   2.980  0.2981 -0.7220  0.7475
   30MOL    H9814656   3.939   7.341   2.776  1.3087 -0.6660  1.0199
   30MOL    H9914657   4.086   7.421   2.594 -2.5225 -1.5343  0.6667
   30MOL   H10014658   4.192   7.626   2.595  0.5240 -0.4813 -1.0235
   30MOL   H10114659   4.183   7.772   2.812 -1.9830  0.6921  1.6325
   30MOL   C10214660   3.848   0.110   2.998 -0.0049  0.0229 -0.2639
   30MOL   C10314661   3.760   0.018   2.904  0.6490 -0.3126  0.8168
   30MOL   C10414662   3.701   7.910   2.988  0.1435  0.7300 -0.1206
   30MOL   C10514663   3.825   7.982   2.768  0.3398 -0.2810 -0.4589
   30MOL   O10614664   3.883   0.057   2.699 -0.8153 -0.4535  0.3764
   30MOL   O10714665   3.811   7.853   2.742 -0.7096 -0.1898  0.0821
   30MOL   C10814666   3.831   7.812   2.605  0.4639  0.9980 -0.0882
   30MOL   C10914667   3.715   7.738   2.548  0.2740 -0.1916  0.6925
   30MOL   C11014668   3.657   7.633   2.621 -0.4674 -0.1411  0.5336
   30MOL   C11114669   3.535   7.575   2.577 -0.2576 -0.1081  0.5877
   30MOL   C11214670   3.471   7.620   2.453 -0.3344 -0.7659 -0.2465
   30MOL   C11314671   3.535   7.722   2.380 -0.3714 -0.0941  0.5369
   30MOL   C11414672   3.651   7.782   2.432 -0.4486 -0.0724 -0.0297
   30MOL   H11514673   3.844   0.210   2.956  1.5164  0.2112  0.0343
   30MOL   H11614674   3.788   0.110   3.089  0.3604 -0.7434 -0.0190
   30MOL   H11714675   3.774   7.842   3.032 -0.3505  0.5169  0.3815
   30MOL   H11814676   3.637   7.846   2.928 -0.8824  2.3736 -0.8266
   30MOL   H11914677   3.637   7.949   3.068  1.2979 -0.0416  1.2005
   30MOL   H12014678   3.841   7.900   2.542 -0.5904  0.1597 -1.4761
   30MOL   H12114679   3.918   7.748   2.593  0.8427  1.4350  0.3314
   30MOL   H12214680   3.709   7.591   2.706  0.9568 -1.0606 -0.7500
   30MOL   H12314681   3.499   7.497   2.642  0.6473  0.9157  2.3450
   30MOL   H12414682   3.377   7.574   2.428 -0.3366  0.0046 -1.6860
   30MOL   H12514683   3.501   7.760   2.285 -0.0609 -0.0700  0.4368
   30MOL   H12614684   3.695   7.866   2.381 -0.7134  0.2268  0.2409
   30MOL   C12714685   3.640   0.111   2.866  0.9414  0.2415  0.1556
   30MOL   C12814686   3.517   0.082   2.767 -0.3130  0.0831  0.6359
   30MOL   C12914687   3.458   7.943   2.769  0.3103  0.4890 -0.3615
   30MOL   C13014688   3.556   0.106   2.614  0.2912  0.2162 -0.3376
   30MOL   O13114689   3.506   0.041   2.523  0.6481 -0.0302 -0.5511
   30MOL   O13214690   3.638   0.210   2.594  0.3501 -0.4821 -0.0662
   30MOL   C13314691   3.716   0.220   2.476  0.0709 -0.3578  0.4036
   30MOL   C13414692   3.842   0.305   2.502  0.9020  0.7503 -0.5434
   30MOL   C13514693   3.826   0.433   2.563  0.0510  0.0253  0.3484
   30MOL   C13614694   3.935   0.514   2.587  0.4061  0.1459 -0.0017
   30MOL   C13714695   4.063   0.462   2.567 -0.1446  1.1555 -0.3109
   30MOL   C13814696   4.080   0.328   2.515  0.1585  0.6158  0.1933
   30MOL   C13914697   3.965   0.254   2.477 -0.4519 -0.2114  0.2116
   30MOL   H14014698   3.681   0.203   2.824 -1.5360  0.2055 -2.5174
   30MOL   H14114699   3.605   0.148   2.963 -0.4017 -2.2267  0.6540
   30MOL   H14214700   3.418   7.913   2.866 -1.0509  1.1468 -0.7101
   30MOL   H14314701   3.531   7.864   2.750 -3.1832 -2.6527 -1.3068
   30MOL   H14414702   3.371   7.935   2.704  0.2222  0.1961 -0.2103
   30MOL   H14514703   3.736   0.121   2.435  0.1846 -2.2720  4.8445
   30MOL   H14614704   3.645   0.268   2.409 -2.6167 -0.7664  2.8517
   30MOL   H14714705   3.725   0.463   2.588  0.4135  0.0831  1.7782
   30MOL   H14814706   3.930   0.611   2.635 -0.3211 -0.4205  1.0906
   30MOL   H14914707   4.138   0.538   2.584  0.3415  0.8274 -0.9539
   30MOL   H15014708   4.176   0.287   2.486 -1.3996 -2.1872 -1.2849
   30MOL   H15114709   3.981   0.148   2.460  0.4349  0.1730 -1.4486
   30MOL   C15214710   3.407   0.186   2.794 -0.5496  0.3380 -0.0246
   30MOL   C15314711   3.291   0.179   2.910  0.5747  0.5274 -0.2579
   30MOL   C15414712   3.362   0.140   3.046 -0.1474 -1.0837  0.0626
   30MOL   C15514713   3.189   0.061   2.867  0.5383  0.8656 -0.2976
   30MOL   O15614714   3.165   7.976   2.946 -0.2987  0.3631  0.3153
   30MOL   O15714715   3.135   0.076   2.750  0.1109 -0.8757  0.3400
   30MOL   C15814716   3.050   7.978   2.706 -0.1266 -0.1415  0.4488
   30MOL   C15914717   3.100   7.915   2.579 -0.0667  0.2462  0.0653
   30MOL   C16014718   3.031   7.799   2.537  0.4093 -0.7840 -0.3054
   30MOL   C16114719   3.080   7.728   2.426  0.6688 -0.3655 -0.1761
   30MOL   C16214720   3.185   7.780   2.347 -0.4678 -0.5470  0.1361
   30MOL   C16314721   3.250   7.905   2.387 -0.5530  0.7212  0.2363
   30MOL   C16414722   3.210   7.966   2.509 -0.5764 -0.6192  0.0876
   30MOL   H16514723   3.363   0.212   2.698 -1.9945  1.3462  0.8930
   30MOL   H16614724   3.466   0.277   2.809 -0.2448  0.1604 -0.1540
   30MOL   H16714725   3.290   0.133   3.128 -1.5782 -0.6323 -1.1375
   30MOL   H16814726   3.443   0.209   3.068 -0.1147 -0.9978 -0.3304
   30MOL   H16914727   3.414   0.045   3.051  3.6726  0.9513  1.1815
   30MOL   H17014728   3.040   7.896   2.778 -0.4877 -2.1353 -1.7973
   30MOL   H17114729   2.949   0.009   2.693  0.3035  1.0657  0.6162
   30MOL   H17214730   2.951   7.755   2.594 -0.8810  0.6222 -1.0310
   30MOL   H17314731   3.022   7.640   2.403 -3.7957  2.1926  0.6892
   30MOL   H17414732   3.225   7.722   2.264  0.0683 -0.6444  0.4568
   30MOL   H17514733   3.338   7.936   2.333  0.3217  1.4374  2.0445
   30MOL   H17614734   3.270   0.043   2.539  0.8197 -1.7447  0.5414
   30MOL   C17714735   3.224   0.318   2.906  0.0102  0.1445  0.0063
   30MOL   C17814736   3.118   0.375   3.011 -0.1372 -0.0704  0.0582
   30MOL   C17914737   3.015   0.260   3.050  0.3787  0.9520  0.0557
   30MOL   C18014738   3.044   0.494   2.937  0.3012  0.2412  0.0927
   30MOL   O18114739   3.081   0.547   2.836  0.2562  0.7796 -0.2479
   30MOL   O18214740   2.932   0.528   3.005 -0.1203 -0.3218 -0.0426
   30MOL   C18314741   2.858   0.652   2.980  0.1193 -0.3575 -0.3643
   30MOL   C18414742   2.714   0.645   3.023  0.3488  0.7047 -0.4889
   30MOL   C18514743   2.664   0.529   3.088 -0.9070  0.5214 -0.2797
   30MOL   C18614744   2.532   0.509   3.118  0.1788  0.1482 -0.2277
   30MOL   C18714745   2.440   0.607   3.090  0.2120 -0.4139  0.4239
   30MOL   C18814746   2.483   0.725   3.028  1.1680  0.1611  0.0141
   30MOL   C18914747   2.620   0.747   2.993  0.3523 -0.5683 -0.5535
   30MOL   H19014748   3.183   0.331   2.806 -0.1373 -0.3217  0.0057
   30MOL   H19114749   3.303   0.392   2.906  1.1904 -1.0886 -0.1032
   30MOL   H19214750   3.063   0.181   3.106 -0.5819  0.7944  0.6777
   30MOL   H19314751   2.975   0.229   2.953 -0.5449 -0.3370  0.8439
   30MOL   H19414752   2.928   0.286   3.111  0.4166  0.4825  0.3101
   30MOL   H19514753   2.910   0.731   3.034 -1.9774  0.2401  0.8595
   30MOL   H19614754   2.873   0.681   2.876  0.3813  0.6433 -0.0549
   30MOL   H19714755   2.733   0.447   3.104  2.5592  3.7372  1.9331
   30MOL   H19814756   2.500   0.414   3.157  0.9051  0.6943  1.7494
   30MOL   H19914757   2.334   0.592   3.104 -0.2695  1.1776 -1.3823
   30MOL   H20014758   2.419   0.804   2.991  1.3377 -1.7329 -4.6124
   30MOL   H20114759   2.662   0.835   2.947  1.8558 -1.2458 -0.5161
   30MOL   C20214760   3.193   0.436   3.142  0.6524 -0.7425  0.3280
   30MOL   C20314761   3.131   0.521   3.266 -0.4136 -0.1352  0.9279
   30MOL   C20414762   2.989   0.470   3.314 -0.3063  0.1893 -0.6399
   30MOL   C20514763   3.110   0.673   3.225  0.0151 -0.2180 -0.1054
   30MOL   O20614764   3.142   0.720   3.116  0.0344  0.4179 -0.4843
   30MOL   O20714765   3.061   0.747   3.321 -0.4981 -0.1093  0.2291
   30MOL   C20814766   3.031   0.879   3.298  0.3022  0.1601  0.0053
   30MOL   C20914767   3.145   0.963   3.359 -0.0719  0.0839 -0.8613
   30MOL   C21014768   3.192   0.926   3.485  0.2595  0.1933 -0.0751
   30MOL   C21114769   3.304   0.997   3.525  0.5599 -0.3226 -0.1946
   30MOL   C21214770   3.362   1.097   3.446  0.0936  0.3878  0.3100
   30MOL   C21314771   3.315   1.140   3.322  0.4517 -0.3865  0.3038
   30MOL   C21414772   3.203   1.065   3.278  0.6295  0.4788  0.4535
   30MOL   H21514773   3.278   0.491   3.102 -0.7636  0.7020 -0.7662
   30MOL   H21614774   3.244   0.348   3.181  1.1956 -1.0277 -1.0040
   30MOL   H21714775   2.964   0.364   3.313  0.0416  0.1095 -0.5659
   30MOL   H21814776   2.903   0.522   3.271 -1.2402  0.5685  1.6063
   30MOL   H21914777   2.975   0.490   3.420 -0.5744 -0.7674 -0.4886
   30MOL   H22014778   3.025   0.899   3.191 -2.3063 -1.4813 -0.1900
   30MOL   H22114779   2.936   0.911   3.341  1.2195 -0.7397  2.8004
   30MOL   H22214780   3.145   0.847   3.542  0.1361 -0.6394 -1.3087
   30MOL   H22314781   3.341   0.985   3.626 -0.3710  0.0926  0.1990
   30MOL   H22414782   3.445   1.153   3.485  0.0451  1.2187 -0.7776
   30MOL   H22514783   3.343   1.228   3.267 -0.7681 -0.1272  0.0860
   30MOL   H22614784   3.168   1.075   3.177  2.8745  0.3109 -0.3609
   30MOL   C22714785   3.224   0.513   3.396  0.4965  0.1857 -0.1166
   30MOL   C22814786   3.377   0.542   3.411 -0.0217  0.0440 -0.5914
   30MOL   C22914787   3.415   0.658   3.325  0.0284 -0.0639 -0.3409
   30MOL   C23014788   3.462   0.421   3.370  0.1984  0.8154  0.0563
   30MOL   O23114789   3.410   0.308   3.358 -0.3431 -0.5336 -0.2694
   30MOL   O23214790   3.592   0.448   3.362  0.5719  0.0835 -0.2723
   30MOL   C23314791   3.676   0.354   3.297 -0.1211  0.7521 -0.3010
   30MOL   C23414792   3.726   0.409   3.166  0.1632  0.7207  0.1927
   30MOL   C23514793   3.650   0.413   3.047  0.6023 -0.2142  0.2629
   30MOL   C23614794   3.708   0.471   2.929 -0.2337 -0.0627  0.1077
   30MOL   C23714795   3.839   0.531   2.937 -0.3377  0.4211 -0.3614
   30MOL   C23814796   3.910   0.534   3.057  0.3305  0.4779  0.3348
   30MOL   C23914797   3.854   0.473   3.169  0.5663 -0.6306 -0.1491
   30MOL   H24014798   3.193   0.429   3.459 -0.6707  1.2895  0.7934
   30MOL   H24114799   3.178   0.591   3.457 -0.9385  0.2095 -1.2124
   30MOL   H24214800   3.516   0.694   3.345 -0.4210  0.4841  1.0019
   30MOL   H24314801   3.360   0.750   3.346 -0.5933 -0.2761 -1.0352
   30MOL   H24414802   3.417   0.645   3.217  3.2325 -0.3960 -0.2926
   30MOL   H24514803   3.758   0.340   3.367 -0.8592 -0.0028  0.4153
   30MOL   H24614804   3.638   0.253   3.286  0.0851  0.5443  0.8375
   30MOL   H24714805   3.549   0.373   3.049  1.0415 -1.4399 -1.0688
   30MOL   H24814806   3.641   0.493   2.847  0.1420  0.0382 -0.1682
   30MOL   H24914807   3.887   0.580   2.854 -0.3781  1.0402 -0.0270
   30MOL   H25014808   4.007   0.580   3.062  0.3024  0.7533 -1.4572
   30MOL   H25114809   3.905   0.481   3.264 -0.8583 -0.2757  0.6080
   30MOL   C25214810   3.408   0.585   3.561 -0.6204 -0.1369  0.7973
   30MOL   C25314811   3.368   0.518   3.691 -0.0440  0.6741 -0.3283
   30MOL   C25414812   3.370   0.361   3.682 -0.6474 -0.1879  1.1484
   30MOL   C25514813   3.227   0.560   3.736 -0.3343  0.2344 -1.1944
   30MOL   O25614814   3.165   0.656   3.694 -0.7122 -0.0043 -0.0620
   30MOL   O25714815   3.177   0.473   3.833 -0.0074 -0.2357  0.3932
   30MOL   C25814816   3.047   0.480   3.881  0.3166  0.1205  0.0714
   30MOL   C25914817   3.031   0.574   3.997 -0.1116  0.7049  0.3899
   30MOL   C26014818   3.067   0.542   4.129  0.1408 -0.5449  0.0246
   30MOL   C26114819   3.047   0.633   4.232 -0.2903 -0.3102  0.9933
   30MOL   C26214820   3.001   0.765   4.205 -1.3571  0.4167  0.2790
   30MOL   C26314821   2.975   0.800   4.069 -0.6113  0.1247 -0.1944
   30MOL   C26414822   2.992   0.703   3.967 -0.4682 -0.3667 -0.0414
   30MOL   H26514823   3.394   0.693   3.570 -1.6822 -0.3746  2.1011
   30MOL   H26614824   3.516   0.570   3.563 -0.6981 -0.5761  2.4530
   30MOL   H26714825   3.362   0.310   3.778 -0.7335  0.6210  1.5748
   30MOL   H26814826   3.456   0.326   3.626 -1.4932  1.2267 -1.1168
   30MOL   H26914827   3.288   0.315   3.625  0.1221  3.0644 -2.8252
   30MOL   H27014828   2.964   0.486   3.810  1.9593 -1.3191 -2.0118
   30MOL   H27114829   3.015   0.385   3.923  0.3533 -1.2422 -2.8755
   30MOL   H27214830   3.111   0.445   4.145  0.7597  0.0025  1.8453
   30MOL   H27314831   3.054   0.605   4.336  3.4629 -1.8435  0.3735
   30MOL   H27414832   2.993   0.831   4.291 -0.9456  3.4698 -1.9491
   30MOL   H27514833   2.954   0.900   4.035 -0.3497  1.2144  2.6912
   30MOL   H27614834   2.967   0.746   3.871  2.0240  0.2992 -0.4317
   30MOL   C27714835   3.479   0.546   3.801  0.0651  0.5334 -0.1558
   30MOL   C27814836   3.521   0.688   3.858  0.8500  0.1421  0.4896
   30MOL   C27914837   3.392   0.765   3.907 -0.7657  0.1398  0.5822
   30MOL   C28014838   3.590   0.763   3.743  0.0375 -0.0358 -0.3759
   30MOL   O28114839   3.550   0.868   3.691 -0.4367  0.0653 -0.1603
   30MOL   O28214840   3.701   0.707   3.703  0.0879  0.1374  0.4858
   30MOL   C28314841   3.764   0.759   3.588 -0.4085  0.0731 -0.0649
   30MOL   C28414842   3.883   0.678   3.538  0.7457  0.8462 -0.7483
   30MOL   C28514843   3.971   0.729   3.444 -0.2045  0.6176 -0.8648
   30MOL   C28614844   4.086   0.653   3.410 -0.5383  0.4556  0.2894
   30MOL   C28714845   4.109   0.526   3.464  0.4674 -0.2674 -0.7288
   30MOL   C28814846   4.028   0.482   3.571  0.6345 -0.0066  0.6442
   30MOL   C28914847   3.912   0.554   3.601  1.0592 -0.3162  0.3833
   30MOL   H29014848   3.578   0.511   3.770 -0.1053  0.9654 -1.2338
   30MOL   H29114849   3.446   0.497   3.892 -0.6685 -1.9699 -1.7215
   30MOL   H29214850   3.420   0.859   3.954  0.4773  1.4701 -2.6303
   30MOL   H29314851   3.332   0.711   3.980  0.4707 -0.4220  1.1999
   30MOL   H29414852   3.321   0.788   3.828  0.6206  0.9147 -0.4666
   30MOL   H29514853   3.684   0.780   3.516  0.8115 -1.4219 -1.8811
   30MOL   H29614854   3.814   0.851   3.616 -1.5907  0.7151 -0.0417
   30MOL   H29714855   3.944   0.818   3.389  1.4058  1.4603 -0.3337
   30MOL   H29814856   4.159   0.683   3.337  0.0352 -0.3449  0.5281
   30MOL   H29914857   4.191   0.466   3.426 -1.1365 -2.1155 -1.3329
   30MOL   H30014858   4.046   0.387   3.617 -1.2154 -1.1619 -0.9527
   30MOL   H30114859   3.842   0.507   3.669  1.2148  0.2433  0.9339
   30MOL   C30214860   3.617   0.662   3.985  0.1261  1.3237  0.3874
   30MOL   C30314861   3.713   0.757   4.055 -0.2930  0.5214 -0.5687
   30MOL   C30414862   3.649   0.889   4.085 -0.0667 -0.6122 -0.7439
   30MOL   C30514863   3.832   0.767   3.957 -0.6981  0.3371 -0.2035
   30MOL   O30614864   3.904   0.672   3.937 -0.4838  0.2196  0.3034
   30MOL   O30714865   3.863   0.887   3.918  0.0077  0.0365  0.5381
   30MOL   C30814866   3.990   0.916   3.867  0.2044  0.0997  0.6770
   30MOL   C30914867   3.980   1.038   3.778  0.5503 -0.4891  0.5275
   30MOL   C31014868   4.091   1.118   3.751  0.2965 -0.4983 -0.7414
   30MOL   C31114869   4.085   1.219   3.661  0.1276  0.5015  0.1579
   30MOL   C31214870   3.958   1.255   3.604  0.2149 -0.4256  0.0582
   30MOL   C31314871   3.843   1.183   3.646 -0.8558 -0.3282  0.0308
   30MOL   C31414872   3.851   1.077   3.731  0.0174 -0.8037 -0.1649
   30MOL   H31514873   3.665   0.564   3.980  0.2168  1.3228  1.1242
   30MOL   H31614874   3.545   0.629   4.060 -0.5289 -0.0542 -0.8108
   30MOL   H31714875   3.724   0.961   4.120 -3.5350  3.0883 -0.6429
   30MOL   H31814876   3.580   0.881   4.169  1.5535  0.0234  0.7033
   30MOL   H31914877   3.607   0.931   3.994 -0.2963  1.9656  0.5247
   30MOL   H32014878   4.059   0.932   3.950  1.0236 -2.6969  0.5827
   30MOL   H32114879   4.019   0.835   3.801 -2.0422  1.7831 -2.5180
   30MOL   H32214880   4.174   1.116   3.819  2.5549 -1.9184 -3.4626
   30MOL   H32314881   4.169   1.283   3.636  0.8768 -0.3646  0.4472
   30MOL   H32414882   3.950   1.340   3.539  0.3169  0.5769  1.3255
   30MOL   H32514883   3.745   1.213   3.612 -0.1011  2.3652  0.1294
   30MOL   H32614884   3.759   1.028   3.760 -0.0299 -1.1737 -0.9440
   30MOL   C32714885   3.750   0.693   4.190 -0.3611 -0.2888 -0.3308
   30MOL   C32814886   3.841   0.759   4.309 -0.5519 -0.2441 -0.7248
   30MOL   C32914887   3.967   0.824   4.245  0.0299  0.3529 -0.3897
   30MOL   C33014888   3.890   0.644   4.395 -0.8977 -1.0676 -0.9523
   30MOL   O33114889   3.839   0.534   4.402 -0.7246  0.0575 -0.2181
   30MOL   O33214890   4.004   0.677   4.459  0.2625 -0.0665 -0.2894
   30MOL   C33314891   4.062   0.594   4.556  0.1516  0.8932  0.4275
   30MOL   C33414892   4.200   0.645   4.597  0.0466 -0.8198 -0.0250
   30MOL   C33514893   4.209   0.710   4.722  0.1377  0.0385  0.0360
   30MOL   C33614894   4.324   0.777   4.762 -0.2543 -0.1386  0.4792
   30MOL   C33714895   4.436   0.769   4.675 -0.3708  0.6402 -0.2416
   30MOL   C33814896   4.434   0.694   4.553 -0.1758  0.6356  0.5089
   30MOL   C33914897   4.312   0.635   4.512 -0.3676  0.0385 -0.5959
   30MOL   H34014898   3.782   0.591   4.166  0.2275 -0.4514  1.0680
   30MOL   H34114899   3.658   0.676   4.246 -2.4062  1.3270 -3.0717
   30MOL   H34214900   3.949   0.920   4.197  2.4442  0.5469 -0.9927
   30MOL   H34314901   4.018   0.769   4.167  1.3582  3.4610 -1.7976
   30MOL   H34414902   4.040   0.858   4.320 -0.6172 -0.7316  0.7519
   30MOL   H34514903   3.988   0.601   4.635 -0.5657  3.0296 -0.3928
   30MOL   H34614904   4.075   0.495   4.511  0.6595  1.7787 -1.4325
   30MOL   H34714905   4.121   0.708   4.785  0.2012 -0.0500  0.1228
   30MOL   H34814906   4.323   0.837   4.851 -0.0649  1.4495 -0.5641
   30MOL   H34914907   4.529   0.817   4.699  1.2018 -2.4847  0.1192
   30MOL   H35014908   4.524   0.686   4.494  1.0748 -0.9351  2.5608
   30MOL   H35114909   4.312   0.589   4.415 -2.2603 -0.3592 -0.4233
   30MOL   C35214910   3.756   0.862   4.400  0.3048  0.4636 -0.4757
   30MOL   C35314911   3.795   0.914   4.544 -0.1508  0.3358  0.7933
   30MOL   C35414912   3.936   0.975   4.558 -0.3812 -0.7515  0.0223
   30MOL   C35514913   3.772   0.810   4.655 -0.6498  0.5347 -0.6037
   30MOL   O35614914   3.706   0.710   4.631  0.2057 -0.4497  0.0809
   30MOL   O35714915   3.828   0.843   4.767  0.6774 -0.1663  0.0958
   30MOL   C35814916   3.822   0.745   4.864  0.1823 -0.0201 -0.3091
   30MOL   C35914917   3.864   0.793   4.996  0.1782 -0.7774  0.7105
   30MOL   C36014918   3.996   0.840   5.022 -0.1879  0.2255 -0.2437
   30MOL   C36114919   4.042   0.883   5.150  0.3391 -0.0937 -0.5693
   30MOL   C36214920   3.950   0.876   5.259 -0.4357  0.3791  0.2761
   30MOL   C36314921   3.814   0.837   5.242  0.3642 -0.1708 -0.0615
   30MOL   C36414922   3.776   0.804   5.109 -0.0500 -0.4689 -0.2951
   30MOL   H36514923   3.658   0.813   4.400  1.4187 -1.8515  0.8480
   30MOL   H36614924   3.749   0.951   4.337  0.6866  0.9136  0.1161
   30MOL   H36714925   3.944   1.069   4.613 -0.5734 -1.0646  0.5946
   30MOL   H36814926   3.976   1.004   4.461 -0.5547  1.6048  0.6325
   30MOL   H36914927   4.008   0.903   4.598 -0.5270 -1.0210 -0.1983
   30MOL   H37014928   3.717   0.715   4.871  0.2486 -0.3799 -0.8221
   30MOL   H37114929   3.878   0.658   4.827 -0.4705 -0.1108 -1.0874
   30MOL   H37214930   4.069   0.845   4.942  0.1298 -0.0031  0.0331
   30MOL   H37314931   4.145   0.914   5.160  0.1440  0.6881 -0.9145
   30MOL   H37414932   3.983   0.905   5.358 -0.0720  0.8651  0.0149
   30MOL   H37514933   3.746   0.830   5.325  0.0789  1.6115 -0.1355
   30MOL   H37614934   3.675   0.769   5.094 -0.6826  1.0387  0.3811
   30MOL   C37714935   3.698   1.038   4.588 -0.6702 -0.1654 -0.1025
   30MOL   C37814936   3.543   1.048   4.558  0.1897  0.3585  0.2945
   30MOL   C37914937   3.465   0.920   4.601  0.1963  0.1183 -0.0275
   30MOL   C38014938   3.519   1.077   4.405  0.2170 -0.8102  0.3185
   30MOL   O38114939   3.600   1.142   4.336 -0.0164 -0.2680  0.1889
   30MOL   O38214940   3.406   1.034   4.360  0.5631  0.3276 -0.2854
   30MOL   C38314941   3.361   1.052   4.224  0.3179  0.2230  0.3223
   30MOL   C38414942   3.216   1.107   4.222 -0.2349 -0.1678 -0.0788
   30MOL   C38514943   3.168   1.145   4.098  0.5538  0.2114 -0.1607
   30MOL   C38614944   3.031   1.186   4.082 -0.2244 -0.2690 -0.3388
   30MOL   C38714945   2.947   1.177   4.195  0.7226 -0.8764 -0.0829
   30MOL   C38814946   2.992   1.139   4.321  0.0485  0.5543 -0.4670
   30MOL   C38914947   3.128   1.108   4.328  0.2505  0.2446 -0.7293
   30MOL   H39014948   3.748   1.122   4.540 -0.2291 -0.9405 -1.0295
   30MOL   H39114949   3.716   1.064   4.692 -1.3389  2.6515 -0.6450
   30MOL   H39214950   3.517   0.832   4.562  2.5223 -0.2945  3.6986
   30MOL   H39314951   3.364   0.910   4.561  0.1933  1.8402 -0.4802
   30MOL   H39414952   3.463   0.908   4.709 -0.3089  5.3603  0.6313
   30MOL   H39514953   3.427   1.125   4.176  2.9522 -1.5827  1.1145
   30MOL   H39614954   3.345   0.958   4.172 -1.0248  0.2323  0.6923
   30MOL   H39714955   3.240   1.133   4.019 -0.0691 -0.7541 -0.5911
   30MOL   H39814956   2.983   1.217   3.990  0.4332 -0.9337 -0.9132
   30MOL   H39914957   2.847   1.198   4.162  1.5247  1.6379 -1.0727
   30MOL   H40014958   2.927   1.125   4.405  1.1210 -1.0229  0.1304
   30MOL   H40114959   3.173   1.075   4.420  0.0848 -1.0296 -1.1051
   30MOL   C40214960   3.477   1.162   4.639  0.1627  0.3614 -0.3400
   30MOL   C40314961   3.485   1.317   4.608  0.2505  0.1182 -0.0139
   30MOL   C40414962   3.423   1.356   4.468 -0.4800  0.6779 -0.5870
   30MOL   C40514963   3.641   1.359   4.610 -0.1239 -0.1742 -0.6280
   30MOL   O40614964   3.703   1.415   4.517  0.1339  0.7854 -0.4371
   30MOL   O40714965   3.700   1.325   4.721 -0.2433 -0.2764 -0.4007
   30MOL   C40814966   3.839   1.347   4.743  0.1696 -0.1558  0.6161
   30MOL   C40914967   3.884   1.308   4.881  1.0600  0.0393  0.3554
   30MOL   C41014968   3.802   1.234   4.971 -0.0662  0.3099  0.0418
   30MOL   C41114969   3.854   1.190   5.096 -0.7947  0.0923  0.3281
   30MOL   C41214970   3.987   1.226   5.126  0.3083  0.0576 -0.0598
   30MOL   C41314971   4.058   1.311   5.042  0.9110  0.0717  0.4862
   30MOL   C41414972   4.008   1.343   4.917  0.7487  0.0361 -0.5057
   30MOL   H41514973   3.520   1.147   4.739 -0.3037  0.8189 -0.0681
   30MOL   H41614974   3.377   1.118   4.640  0.2527  0.1561 -0.4507
   30MOL   H41714975   3.489   1.363   4.382 -0.0401 -0.4608 -0.3496
   30MOL   H41814976   3.380   1.456   4.469  3.1632  2.3142 -0.4776
   30MOL   H41914977   3.336   1.292   4.450 -0.4089  1.0187 -2.2403
   30MOL   H42014978   3.902   1.295   4.671 -0.3851 -1.4529  1.0387
   30MOL   H42114979   3.864   1.453   4.734  1.5101 -0.5320 -0.2410
   30MOL   H42214980   3.707   1.195   4.938  0.9325 -1.7634 -0.5061
   30MOL   H42314981   3.798   1.128   5.164 -1.1786  2.1829  1.9908
   30MOL   H42414982   4.031   1.187   5.217  0.5116  1.3120  0.3836
   30MOL   H42514983   4.161   1.340   5.059 -0.0455  3.1788  1.4147
   30MOL   H42614984   4.065   1.414   4.858 -0.5337  1.2202 -0.3448
   30MOL   C42714985   3.415   1.399   4.725 -0.2305  0.0117  0.1538
   30MOL   C42814986   3.271   1.372   4.794 -0.6012  0.2983 -0.6380
   30MOL   C42914987   3.292   1.255   4.899  0.3254  0.4426 -0.0668
   30MOL   C43014988   3.174   1.340   4.675 -0.6268 -0.2197  0.2006
   30MOL   O43114989   3.134   1.226   4.674  0.5569  0.0672 -0.1258
   30MOL   O43214990   3.151   1.440   4.588  0.2100  0.1859 -0.0474
   30MOL   C43314991   3.059   1.419   4.484  0.5431  0.6820 -0.5669
   30MOL   C43414992   3.030   1.542   4.401  0.3441  0.4730  0.3263
   30MOL   C43514993   3.079   1.553   4.269 -0.1612 -0.5912  0.1401
   30MOL   C43614994   3.052   1.672   4.200  0.3457 -0.9157 -0.6762
   30MOL   C43714995   2.977   1.777   4.253  1.0071  0.5832  0.0906
   30MOL   C43814996   2.910   1.753   4.378  0.6695  0.7768  0.1534
   30MOL   C43914997   2.939   1.638   4.456 -0.6222  0.2249  0.1527
   30MOL   H44014998   3.413   1.503   4.692  1.0913  1.0050  3.0902
   30MOL   H44114999   3.488   1.402   4.805  1.1240  1.9152 -1.1006
   30MOL   H44215000   3.366   1.298   4.967 -1.8068 -0.0598  2.6661
   30MOL   H44315001   3.327   1.165   4.849 -1.4471 -1.2995  1.7648
   30MOL   H44415002   3.210   1.234   4.967  1.4901  1.0180  1.5640
   30MOL   H44515003   3.103   1.346   4.415  1.0228  0.6698 -0.2594
   30MOL   H44615004   2.970   1.375   4.528 -0.0221  0.9706 -1.4221
   30MOL   H44715005   3.145   1.481   4.224  1.6817  0.0978  1.7165
   30MOL   H44815006   3.103   1.696   4.107 -0.2851  0.5152 -0.6598
   30MOL   H44915007   2.956   1.864   4.193 -3.8889 -0.1903  0.4835
   30MOL   H45015008   2.846   1.829   4.419 -0.5668 -0.8241  1.2666
   30MOL   H45115009   2.899   1.621   4.555 -0.6150  1.1335  0.3095
   30MOL   C45215010   3.239   1.501   4.873 -0.6189 -0.4534 -0.3391
   30MOL   C45315011   3.099   1.526   4.949  0.0726  0.3442  0.2741
   30MOL   C45415012   3.099   1.672   5.004  0.5250 -0.9635  0.4804
   30MOL   C45515013   3.087   1.441   5.079  0.0960  0.0379  0.0938
   30MOL   O45615014   2.990   1.369   5.106  0.0792 -0.1429  0.0077
   30MOL   O45715015   3.197   1.450   5.159  0.0619 -0.0940 -0.1477
   30MOL   C45815016   3.213   1.363   5.269  0.1576  0.2838  0.1842
   30MOL   C45915017   3.160   1.408   5.409  0.0739  0.3514 -0.5189
   30MOL   C46015018   3.240   1.402   5.521 -0.0432 -0.1407 -0.5549
   30MOL   C46115019   3.186   1.425   5.650  0.0846 -0.3919 -0.5718
   30MOL   C46215020   3.048   1.463   5.664  0.6284 -0.2068 -0.9062
   30MOL   C46315021   2.966   1.467   5.546 -0.0368  0.5228  1.1150
   30MOL   C46415022   3.024   1.440   5.420 -0.3127 -0.5758  0.2801
   30MOL   H46515023   3.260   1.586   4.808  1.5278  2.2714  3.7763
   30MOL   H46615024   3.311   1.506   4.955 -1.9734 -0.1440  0.8372
   30MOL   H46715025   3.196   1.696   5.048  0.0919  0.1933  0.8265
   30MOL   H46815026   3.017   1.694   5.073 -0.6061 -0.0268 -1.1255
   30MOL   H46915027   3.097   1.732   4.913  1.0435 -2.9102 -0.8363
   30MOL   H47015028   3.181   1.259   5.256  1.9594 -0.1223 -1.2361
   30MOL   H47115029   3.319   1.340   5.276  0.7943  1.8036 -3.4069
   30MOL   H47215030   3.345   1.380   5.512 -0.7662 -3.4190 -1.7691
   30MOL   H47315031   3.243   1.408   5.740 -4.1340 -2.3748  1.8828
   30MOL   H47415032   2.999   1.467   5.760 -2.2302 -1.7581 -2.2274
   30MOL   H47515033   2.859   1.466   5.558  0.0308 -0.3189  1.7599
   30MOL   H47615034   2.952   1.449   5.340 -0.3981  1.0837  0.5170
   30MOL   C47715035   2.975   1.507   4.854 -0.5179  0.0069  0.4384
   30MOL   C47815036   2.844   1.551   4.914  0.1550  0.1599  0.0079
   30MOL   C47915037   2.739   1.439   4.892 -0.7579  0.1823  0.8445
   30MOL   C48015038   2.788   1.687   4.857  0.1978  0.5815 -0.0792
   30MOL   O48115039   2.832   1.797   4.896 -0.2574  0.2545  0.0003
   30MOL   O48215040   2.701   1.672   4.760  0.2918 -0.0157 -0.0057
   30MOL   C48315041   2.638   1.786   4.705 -0.1802  0.2038 -0.3919
   30MOL   C48415042   2.495   1.801   4.760  0.3998 -1.0500  0.6418
   30MOL   C48515043   2.390   1.783   4.662  0.2852 -0.0568  0.1744
   30MOL   C48615044   2.256   1.788   4.704  0.5123  0.0285 -0.4340
   30MOL   C48715045   2.232   1.819   4.838  0.7954  0.1342  0.1773
   30MOL   C48815046   2.331   1.854   4.928  0.2124 -0.8134 -0.0844
   30MOL   C48915047   2.467   1.848   4.889  0.1688  0.9531 -0.1703
   30MOL   H49015048   2.969   1.402   4.828 -0.1200  0.1544 -0.2517
   30MOL   H49115049   2.995   1.567   4.765 -1.2278 -1.1259 -0.4927
   30MOL   H49215050   2.738   1.431   4.783  0.7680 -2.7788  0.9908
   30MOL   H49315051   2.639   1.466   4.926 -0.1962  0.2587  2.4329
   30MOL   H49415052   2.763   1.343   4.938  0.6302 -0.4796 -1.1722
   30MOL   H49515053   2.686   1.882   4.722 -0.9422  0.7310 -1.1760
   30MOL   H49615054   2.643   1.774   4.597  1.2905  2.7771 -0.6559
   30MOL   H49715055   2.411   1.743   4.564  0.9155 -0.3405  0.4281
   30MOL   H49815056   2.183   1.765   4.627  0.6053 -0.7482 -0.2953
   30MOL   H49915057   2.128   1.836   4.863  1.2585  1.8246  1.0345
   30MOL   H50015058   2.304   1.872   5.031 -1.5424 -2.2811 -0.2678
   30MOL   H50115059   2.545   1.853   4.963  0.9018 -1.9801 -0.6530
   30MOL   H50215060   2.848   1.574   5.020 -1.0612  0.8254 -0.0728
   31MOL     C115061   1.810   0.617   1.168 -0.4183 -0.1570  0.0841
   31MOL     C215062   1.959   0.600   1.137 -0.5118 -0.0360  0.2018
   31MOL     C315063   2.001   0.457   1.188 -0.2510  0.1001 -0.6386
   31MOL     C415064   2.047   0.698   1.205 -1.1600 -0.3444  0.2100
   31MOL     O515065   2.001   0.779   1.290  0.1915 -0.4822 -0.1843
   31MOL     O615066   2.177   0.679   1.171  0.3310  0.0670 -0.1877
   31MOL     C715067   2.273   0.768   1.218  0.0498  0.2634 -0.0526
   31MOL     C815068   2.377   0.804   1.120 -0.8479 -0.2650 -0.3231
   31MOL     C915069   2.461   0.703   1.064  0.3036 -0.2925 -0.1198
   31MOL    C1015070   2.560   0.730   0.965 -0.1257 -0.6868  0.1091
   31MOL    C1115071   2.570   0.864   0.911 -1.1305  0.5227 -0.0483
   31MOL    C1215072   2.491   0.969   0.969 -0.2377 -0.6075 -0.2853
   31MOL    C1315073   2.401   0.938   1.075 -0.0643 -0.5126  0.2776
   31MOL    H1415074   1.773   0.719   1.184 -0.4953 -0.2898  0.7615
   31MOL    H1515075   1.744   0.555   1.107 -2.9757  0.4991  2.1063
   31MOL    H1615076   1.985   0.444   1.295 -1.7382 -2.2314 -1.1042
   31MOL    H1715077   2.103   0.432   1.160  0.5613  2.1888  0.3392
   31MOL    H1815078   1.928   0.392   1.139  0.4674 -2.7220  1.8834
   31MOL    H1915079   2.237   0.863   1.257  1.1500  1.1288 -1.1041
   31MOL    H2015080   2.321   0.729   1.308 -1.9027 -2.5175 -0.1313
   31MOL    H2115081   2.449   0.599   1.092  1.7157 -0.6253 -0.6939
   31MOL    H2215082   2.615   0.652   0.915  0.2502  1.0685 -2.3138
   31MOL    H2315083   2.649   0.876   0.839 -1.0122 -1.6559 -0.3029
   31MOL    H2415084   2.502   1.066   0.921  0.5013 -0.7734 -0.4684
   31MOL    H2515085   2.339   1.015   1.119  0.9673  0.6603 -0.2771
   31MOL    H2615086   1.799   0.563   1.262 -2.1245 -0.6095 -0.3585
   31MOL    C2715087   1.995   0.594   0.982 -0.2610 -0.0033 -0.5370
   31MOL    C2815088   1.962   0.707   0.875  0.1387 -0.4976  0.0832
   31MOL    C2915089   2.066   0.820   0.903  0.5950 -0.1324  0.3257
   31MOL    C3015090   1.818   0.748   0.889  0.0393 -0.3430  0.0224
   31MOL    O3115091   1.787   0.858   0.934  0.0976  0.2584  0.0079
   31MOL    O3215092   1.729   0.655   0.859 -0.3114 -0.0389 -0.1043
   31MOL    C3315093   1.588   0.680   0.887 -0.0197 -0.0579  0.2819
   31MOL    C3415094   1.508   0.741   0.776  0.6210  0.1321 -0.5694
   31MOL    C3515095   1.493   0.882   0.771 -0.1178 -0.1261 -0.0321
   31MOL    C3615096   1.417   0.945   0.674  0.0375  0.2039 -0.2028
   31MOL    C3715097   1.362   0.869   0.572 -0.3710  0.5876  1.1228
   31MOL    C3815098   1.384   0.728   0.566  0.0711  0.5789 -0.2445
   31MOL    C3915099   1.442   0.659   0.675 -0.5793  0.6303 -0.0725
   31MOL    H4015100   1.939   0.504   0.954 -1.8464  0.8792 -0.2814
   31MOL    H4115101   2.100   0.567   0.973 -0.1650  0.3741 -0.5644
   31MOL    H4215102   2.046   0.878   0.992  2.3420  1.3333 -0.2144
   31MOL    H4315103   2.084   0.900   0.831 -5.2344  2.0817  1.0888
   31MOL    H4415104   2.166   0.776   0.903 -1.3589 -5.0722 -2.8257
   31MOL    H4515105   1.539   0.585   0.908  0.8952 -0.7800 -0.7673
   31MOL    H4615106   1.569   0.732   0.981  0.3214 -2.1302  1.5249
   31MOL    H4715107   1.539   0.942   0.848 -0.9007 -1.1686  1.2830
   31MOL    H4815108   1.404   1.052   0.669 -0.0066  0.2078  0.0163
   31MOL    H4915109   1.300   0.919   0.499 -0.0644 -0.5097  0.1016
   31MOL    H5015110   1.332   0.670   0.491  0.2291 -1.3880  1.1317
   31MOL    H5115111   1.444   0.552   0.691 -1.6910  0.8355  1.4995
   31MOL    C5215112   1.987   0.639   0.739 -0.6458  0.1413  0.3023
   31MOL    C5315113   2.010   0.711   0.603 -0.1207  0.2358  0.4242
   31MOL    C5415114   1.990   0.603   0.488 -0.4081 -0.5055 -0.1363
   31MOL    C5515115   2.163   0.761   0.597 -0.3866  0.3430 -0.5871
   31MOL    O5615116   2.208   0.871   0.632 -0.1443 -0.1210  0.0953
   31MOL    O5715117   2.251   0.659   0.561  0.5393 -0.0794  0.0922
   31MOL    C5815118   2.389   0.672   0.576 -0.6797  0.0388  0.3870
   31MOL    C5915119   2.448   0.542   0.629  0.4335  0.0459  0.1948
   31MOL    C6015120   2.555   0.480   0.561 -0.3488  0.3637  0.5090
   31MOL    C6115121   2.603   0.352   0.598  0.3027  0.3892 -0.4312
   31MOL    C6215122   2.552   0.293   0.720 -0.4557  0.0264  0.3556
   31MOL    C6315123   2.448   0.357   0.794  0.8382 -0.5094  0.6893
   31MOL    C6415124   2.391   0.475   0.740 -0.0992 -0.2459 -0.2534
   31MOL    H6515125   1.912   0.564   0.712 -0.2080  0.8843 -3.2646
   31MOL    H6615126   2.077   0.579   0.752 -0.8243 -0.7773 -2.3017
   31MOL    H6715127   2.017   0.506   0.530 -1.2672 -1.8156 -2.5325
   31MOL    H6815128   2.055   0.619   0.403  0.3255  0.9671  0.6953
   31MOL    H6915129   1.887   0.582   0.458 -1.0381  2.0493  0.1128
   31MOL    H7015130   2.441   0.722   0.494 -3.3653  1.4149 -0.5434
   31MOL    H7115131   2.406   0.738   0.661  0.5796  1.5269 -1.0080
   31MOL    H7215132   2.602   0.533   0.479 -0.9631  0.7466  0.4035
   31MOL    H7315133   2.675   0.298   0.538  0.7799  1.3080 -0.6848
   31MOL    H7415134   2.590   0.198   0.754  3.0827  0.6854 -1.5933
   31MOL    H7515135   2.411   0.311   0.884  1.7207 -1.2709  0.6738
   31MOL    H7615136   2.313   0.514   0.804 -0.1798  1.3872 -1.3031
   31MOL    C7715137   1.908   0.825   0.577  0.8248 -0.1895 -1.0971
   31MOL    C7815138   1.903   0.919   0.440 -0.2499 -0.1670  0.4098
   31MOL    C7915139   1.964   0.846   0.320  0.1171  1.0361 -0.2703
   31MOL    C8015140   1.970   1.055   0.474  0.3139  0.3919  0.0814
   31MOL    O8115141   2.074   1.093   0.421  0.1090 -0.2019  0.5987
   31MOL    O8215142   1.907   1.118   0.578 -0.3490  0.6688 -0.2394
   31MOL    C8315143   1.948   1.240   0.635 -0.1240  1.1284  0.3352
   31MOL    C8415144   1.859   1.294   0.743  0.6299  0.1839 -0.2041
   31MOL    C8515145   1.856   1.431   0.756 -0.2816  0.1892 -0.2651
   31MOL    C8615146   1.769   1.493   0.849 -0.4813  0.6156 -0.3353
   31MOL    C8715147   1.690   1.413   0.931 -0.2146  0.4550 -0.4381
   31MOL    C8815148   1.695   1.275   0.921  0.4415  0.0107  0.0851
   31MOL    C8915149   1.787   1.214   0.837 -0.4000 -0.0300 -0.5675
   31MOL    H9015150   1.923   0.885   0.667 -1.1144  0.9429 -1.4985
   31MOL    H9115151   1.809   0.783   0.589  0.9329 -1.1275 -3.3040
   31MOL    H9215152   2.068   0.824   0.342 -0.4972 -0.6642  1.0984
   31MOL    H9315153   1.965   0.910   0.232 -1.7549 -0.4694 -1.4372
   31MOL    H9415154   1.909   0.755   0.291  0.1359  1.1508 -0.6749
   31MOL    H9515155   2.043   1.230   0.688 -0.2182 -1.3189  0.0933
   31MOL    H9615156   1.971   1.318   0.561 -1.6423  3.3148  2.1081
   31MOL    H9715157   1.915   1.491   0.688  1.3304 -0.4370  0.5486
   31MOL    H9815158   1.758   1.600   0.843  0.2938  0.7481  0.5633
   31MOL    H9915159   1.622   1.462   0.999 -1.5031  2.0834 -2.8318
   31MOL   H10015160   1.644   1.205   0.986  0.2018 -1.2115 -1.3905
   31MOL   H10115161   1.806   1.108   0.843 -1.8360 -0.1908  2.0073
   31MOL   C10215162   1.753   0.958   0.407 -0.1315 -0.0207  0.0893
   31MOL   C10315163   1.711   1.078   0.314 -0.8119 -0.1386  0.0431
   31MOL   C10415164   1.810   1.089   0.190 -0.4408  0.3671 -0.8704
   31MOL   C10515165   1.694   1.218   0.392  0.2711  0.7646 -0.0570
   31MOL   O10615166   1.749   1.325   0.362  0.4423 -0.4342 -0.2413
   31MOL   O10715167   1.609   1.210   0.498 -0.1857  0.0741  0.6337
   31MOL   C10815168   1.587   1.329   0.568  0.1952  0.3926  0.0040
   31MOL   C10915169   1.470   1.411   0.514  0.9119  0.1908  0.8995
   31MOL   C11015170   1.488   1.543   0.458 -0.9441 -0.5818  0.0703
   31MOL   C11115171   1.376   1.615   0.408  0.8677 -0.5534 -0.1120
   31MOL   C11215172   1.247   1.560   0.430 -0.2022 -0.4163  0.9750
   31MOL   C11315173   1.228   1.430   0.484 -0.5744 -0.4974  0.0658
   31MOL   C11415174   1.340   1.365   0.532 -0.3499  1.1737  0.1329
   31MOL   H11515175   1.700   0.963   0.502  2.8893  1.3124  1.7719
   31MOL   H11615176   1.716   0.861   0.375 -0.9454  0.4396 -0.3859
   31MOL   H11715177   1.810   0.996   0.133  2.3752 -0.6454  0.6933
   31MOL   H11815178   1.907   1.115   0.232 -1.5252 -0.6545  2.4519
   31MOL   H11915179   1.783   1.177   0.131  1.8375  2.8133  1.5962
   31MOL   H12015180   1.569   1.300   0.672 -0.2208  0.9795  0.0973
   31MOL   H12115181   1.675   1.392   0.558  1.9821 -2.1742 -0.8081
   31MOL   H12215182   1.585   1.590   0.447 -0.4351 -1.3963  0.9629
   31MOL   H12315183   1.394   1.717   0.376  1.5979 -1.0080 -1.1855
   31MOL   H12415184   1.162   1.624   0.412  0.8292  1.1969  1.7304
   31MOL   H12515185   1.127   1.395   0.503 -0.9329  0.7484  0.5113
   31MOL   H12615186   1.324   1.268   0.577 -0.6272  1.9512  1.7606
   31MOL   C12715187   1.560   1.057   0.260  0.2001  0.0346 -0.8993
   31MOL   C12815188   1.512   0.965   0.142  0.6482  0.0399  0.2013
   31MOL   C12915189   1.533   0.814   0.165  0.4344  0.2270 -0.0769
   31MOL   C13015190   1.571   1.016   0.010 -0.8695  0.0632  0.3868
   31MOL   O13115191   1.607   0.943   7.924 -0.6982  0.0465  0.1687
   31MOL   O13215192   1.575   1.146   0.008 -0.4367 -0.2569  0.0966
   31MOL   C13315193   1.640   1.218   7.905 -0.4906  0.4526 -0.2802
   31MOL   C13415194   1.634   1.365   7.922  0.4035 -0.3367 -0.5836
   31MOL   C13515195   1.613   1.429   0.038  0.1193  0.1065 -0.8037
   31MOL   C13615196   1.617   1.568   0.056 -0.4272 -0.8094 -0.2017
   31MOL   C13715197   1.661   1.649   7.956  0.2153 -0.1577  0.1025
   31MOL   C13815198   1.688   1.585   7.835  0.4023 -0.0034 -0.0116
   31MOL   C13915199   1.670   1.447   7.811  0.3862  0.5325 -0.6618
   31MOL   H14015200   1.522   1.157   0.238  1.1106  0.4310 -0.6975
   31MOL   H14115201   1.501   1.028   0.347 -0.9147 -1.1215 -2.0243
   31MOL   H14215202   1.504   0.781   0.264  2.1028 -0.1633  0.2889
   31MOL   H14315203   1.637   0.782   0.155  0.7892  0.4050  2.8043
   31MOL   H14415204   1.485   0.756   0.086  2.0232  1.0985 -1.7090
   31MOL   H14515205   1.744   1.186   7.901 -0.2046  1.5211 -1.9392
   31MOL   H14615206   1.596   1.199   7.807 -1.3687 -1.2654  0.4112
   31MOL   H14715207   1.578   1.362   0.115 -2.6314  1.3337 -0.9199
   31MOL   H14815208   1.625   1.606   0.157 -1.6640  2.3553 -1.2447
   31MOL   H14915209   1.678   1.755   7.971 -0.7158 -0.1562  1.1612
   31MOL   H15015210   1.722   1.660   7.766  0.7644  1.1849  1.4308
   31MOL   H15115211   1.692   1.414   7.711 -0.1140  1.1108 -0.9697
   31MOL   C15215212   1.354   0.986   0.148 -0.1271  0.1180  0.2769
   31MOL   C15315213   1.253   0.959   0.034  0.8466  0.5914  0.4348
   31MOL   C15415214   1.277   0.816   7.979 -0.7023 -0.0285 -0.2777
   31MOL   C15515215   1.263   1.066   7.925 -0.6483  0.0450  0.1647
   31MOL   O15615216   1.308   1.178   7.936  0.4395 -0.3127  0.3120
   31MOL   O15715217   1.226   1.018   7.808  0.2242 -0.1060 -0.3275
   31MOL   C15815218   1.213   1.096   7.690 -0.2173  0.1711 -0.1612
   31MOL   C15915219   1.319   1.052   7.588  0.4097 -0.1512 -0.3380
   31MOL   C16015220   1.455   1.023   7.622 -0.2289 -0.4121  0.3224
   31MOL   C16115221   1.552   1.007   7.519  0.4430  0.9860  0.1219
   31MOL   C16215222   1.506   1.015   7.385 -0.3731  0.0049  0.4955
   31MOL   C16315223   1.377   1.044   7.349  0.7176  0.2756  0.0282
   31MOL   C16415224   1.282   1.064   7.448 -0.1276  0.0922  0.5758
   31MOL   H16515225   1.341   1.094   0.151 -0.3498  0.1849 -1.8969
   31MOL   H16615226   1.318   0.942   0.241 -0.0336  0.3124  0.4047
   31MOL   H16715227   1.277   0.740   0.051 -0.9778  0.4096  0.1433
   31MOL   H16815228   1.363   0.809   7.912  1.2218 -0.8619  2.2020
   31MOL   H16915229   1.191   0.783   7.919 -1.8564  3.9584 -0.9136
   31MOL   H17015230   1.118   1.082   7.638  0.3815 -2.9656 -0.5384
   31MOL   H17115231   1.211   1.204   7.703 -2.1055  0.3346 -1.4574
   31MOL   H17215232   1.480   1.017   7.727  0.3150  1.6933  0.3351
   31MOL   H17315233   1.653   0.989   7.551  0.0465  0.4328  1.1078
   31MOL   H17415234   1.576   1.004   7.303  2.6121  2.9035  2.5066
   31MOL   H17515235   1.353   1.047   7.244  0.7203  0.9133  0.0498
   31MOL   H17615236   1.181   1.097   7.432  0.5611  1.2176 -1.7710
   31MOL   C17715237   1.105   0.960   0.095  0.4219  0.4934 -0.7223
   31MOL   C17815238   1.040   1.080   0.157 -0.0242 -0.3118 -0.3414
   31MOL   C17915239   1.120   1.156   0.264 -0.8224  0.0305  0.2711
   31MOL   C18015240   0.916   1.019   0.231 -0.9728 -0.4326 -0.4531
   31MOL   O18115241   0.917   1.015   0.351 -0.0063  0.3553  0.0972
   31MOL   O18215242   0.819   0.974   0.148  0.1445 -0.5410 -0.0293
   31MOL   C18315243   0.701   0.921   0.195  0.2861 -0.5612  0.0756
   31MOL   C18415244   0.709   0.782   0.258 -0.3404  0.1706  0.0279
   31MOL   C18515245   0.634   0.746   0.371  0.1405 -0.0012 -0.5137
   31MOL   C18615246   0.640   0.610   0.415  0.1290 -0.3844 -0.1239
   31MOL   C18715247   0.728   0.520   0.352  0.1980  0.5356  0.0523
   31MOL   C18815248   0.818   0.562   0.260  0.1969  0.9451  0.0666
   31MOL   C18915249   0.802   0.694   0.202 -0.1548 -0.0888 -0.0465
   31MOL   H19015250   1.105   0.879   0.168 -2.5667  2.4664  1.5924
   31MOL   H19115251   1.027   0.917   0.033  0.2771  1.4145 -1.1849
   31MOL   H19215252   1.055   1.215   0.329 -1.9119 -0.0275 -0.7603
   31MOL   H19315253   1.191   1.226   0.219  1.5087 -1.2006  1.9646
   31MOL   H19415254   1.179   1.090   0.327 -0.3420 -2.3335 -2.5458
   31MOL   H19515255   0.655   0.996   0.260  0.2705  0.4818 -1.1208
   31MOL   H19615256   0.639   0.922   0.105  0.5222 -0.1943 -0.0844
   31MOL   H19715257   0.563   0.814   0.416  0.1353 -0.3927  0.0803
   31MOL   H19815258   0.573   0.577   0.493  1.4287 -1.1384  0.7112
   31MOL   H19915259   0.730   0.421   0.396 -0.2947  0.6774  0.3909
   31MOL   H20015260   0.885   0.492   0.212 -2.6004 -2.4755  1.0111
   31MOL   H20115261   0.874   0.728   0.129  1.5111 -1.9800  0.6785
   31MOL   C20215262   1.005   1.193   0.046  0.1253 -0.1785 -0.8694
   31MOL   C20315263   0.885   1.298   0.053  0.1379 -0.5876  0.7986
   31MOL   C20415264   0.841   1.331   0.193  0.0999  0.7721 -0.4724
   31MOL   C20515265   0.768   1.237   7.979  0.5617  0.3502 -0.0259
   31MOL   O20615266   0.658   1.211   0.022 -0.0093  0.2460 -0.2625
   31MOL   O20715267   0.805   1.208   7.858  0.1052 -0.3239  0.0827
   31MOL   C20815268   0.724   1.139   7.769  0.0198 -0.0368  0.0346
   31MOL   C20915269   0.818   1.040   7.698  0.4138  0.8184  0.2926
   31MOL   C21015270   0.830   1.033   7.565 -0.2973 -0.1672  0.2500
   31MOL   C21115271   0.906   0.939   7.498 -0.3172 -0.2470 -0.8617
   31MOL   C21215272   0.981   0.843   7.568  0.3674  0.2681 -0.6279
   31MOL   C21315273   0.966   0.849   7.709 -0.0544  0.2016  0.0355
   31MOL   C21415274   0.891   0.944   7.773 -0.7352 -0.7195  0.2368
   31MOL   H21515275   1.013   1.153   7.952  0.5055 -0.6958 -0.6339
   31MOL   H21615276   1.090   1.261   0.046 -0.7204  0.9068 -0.1883
   31MOL   H21715277   0.912   1.384   0.257 -0.5579  2.4450 -1.0833
   31MOL   H21815278   0.805   1.249   0.255 -2.3023  1.7345 -0.5084
   31MOL   H21915279   0.764   1.407   0.175  0.8554  1.5259 -0.5656
   31MOL   H22015280   0.645   1.082   7.819 -0.8843  0.0095 -1.3197
   31MOL   H22115281   0.690   1.210   7.693  2.4028 -0.1614 -1.2012
   31MOL   H22215282   0.782   1.107   7.503  0.2712  0.1964  0.2410
   31MOL   H22315283   0.916   0.937   7.391  2.6014  0.9002 -0.6734
   31MOL   H22415284   1.035   0.761   7.525  1.6079  1.3537 -1.1796
   31MOL   H22515285   1.024   0.780   7.768 -0.3707  0.6451  0.8621
   31MOL   H22615286   0.890   0.943   7.881 -1.6867 -0.8591  0.2285
   31MOL   C22715287   0.928   1.426   7.987  0.1784 -0.3672  0.5657
   31MOL   C22815288   1.025   1.538   0.039  0.4769 -0.3038  0.1228
   31MOL   C22915289   1.148   1.485   0.124 -0.0284 -0.2562  0.3406
   31MOL   C23015290   0.928   1.631   0.123  0.3129 -0.8975  0.6614
   31MOL   O23115291   0.951   1.648   0.238  0.6264 -0.0341 -0.5928
   31MOL   O23215292   0.831   1.698   0.040  0.2176  0.0323  0.5728
   31MOL   C23315293   0.730   1.765   0.103  0.3054 -0.2670  0.2228
   31MOL   C23415294   0.615   1.806   0.011 -0.3830 -0.8283 -0.3171
   31MOL   C23515295   0.616   1.938   7.957 -0.0727 -0.3693 -0.0972
   31MOL   C23615296   0.519   1.988   7.877 -0.0103  0.0205  0.1524
   31MOL   C23715297   0.413   1.896   7.845  0.3126 -0.6043 -0.8319
   31MOL   C23815298   0.409   1.764   7.908  0.5047  0.8420 -0.1557
   31MOL   C23915299   0.510   1.726   7.991  1.1882 -0.4421  0.6786
   31MOL   H24015300   0.834   1.475   7.962 -0.4991 -1.1448  1.5608
   31MOL   H24115301   0.970   1.382   7.896 -3.6355 -3.5824  0.2234
   31MOL   H24215302   1.228   1.427   0.079  0.9601  1.4718 -0.2126
   31MOL   H24315303   1.108   1.440   0.214  0.1840 -2.8531 -0.8268
   31MOL   H24415304   1.193   1.578   0.159 -0.2618 -0.6815  1.7848
   31MOL   H24515305   0.691   1.700   0.182 -1.1327  1.3249  0.8575
   31MOL   H24615306   0.762   1.842   0.173 -0.7722 -1.6647  2.3382
   31MOL   H24715307   0.694   2.007   7.987 -0.0759 -0.8014  0.9282
   31MOL   H24815308   0.523   2.087   7.834  0.1489 -0.6933 -1.4997
   31MOL   H24915309   0.338   1.932   7.776 -0.1343 -0.6590 -0.3686
   31MOL   H25015310   0.322   1.704   7.886  2.0058 -2.0967  1.6604
   31MOL   H25115311   0.504   1.629   0.029 -0.4433 -0.4911  0.4081
   31MOL   C25215312   1.080   1.620   7.925 -0.2322 -0.1020 -0.2655
   31MOL   C25315313   1.175   1.745   7.931  0.2011 -0.1929  0.6454
   31MOL   C25415314   1.323   1.694   7.945 -0.2874 -0.0917 -0.0975
   31MOL   C25515315   1.131   1.851   0.028 -0.2323 -0.0188 -0.2383
   31MOL   O25615316   1.043   1.930   0.004  0.2537 -0.3739  0.2308
   31MOL   O25715317   1.207   1.846   0.140 -0.8518  0.3081 -0.4709
   31MOL   C25815318   1.175   1.928   0.247 -0.2290  0.1096 -0.6890
   31MOL   C25915319   1.296   1.952   0.338 -0.0502 -0.7093 -0.3198
   31MOL   C26015320   1.271   1.975   0.480 -0.7481  0.1402 -0.0220
   31MOL   C26115321   1.381   2.006   0.563  1.0295 -0.3713  0.2583
   31MOL   C26215322   1.508   2.012   0.509  0.1196  0.4848 -0.2830
   31MOL   C26315323   1.532   1.976   0.375 -0.4430  0.1035 -0.3267
   31MOL   C26415324   1.425   1.964   0.285  0.2653 -0.0437 -0.8648
   31MOL   H26515325   0.999   1.659   7.863  0.8588 -0.8808 -2.2353
   31MOL   H26615326   1.125   1.543   7.862  0.4609 -0.7169  0.9566
   31MOL   H26715327   1.346   1.638   0.028  1.9609  2.8371  1.2382
   31MOL   H26815328   1.395   1.775   7.958 -0.7973 -0.2659  4.6354
   31MOL   H26915329   1.348   1.629   7.861 -1.6065 -2.0709  1.0123
   31MOL   H27015330   1.143   2.028   0.218  0.9370  1.2266  1.8188
   31MOL   H27115331   1.092   1.878   0.297 -0.3876  1.7263  0.7234
   31MOL   H27215332   1.169   1.966   0.515 -0.9269  0.5880 -0.4245
   31MOL   H27315333   1.368   2.034   0.666 -1.4278 -0.5659  0.0106
   31MOL   H27415334   1.590   2.037   0.576 -1.3722  2.2107  0.9318
   31MOL   H27515335   1.636   1.968   0.347 -0.2630  0.3483  0.2664
   31MOL   H27615336   1.443   1.954   0.179  1.2944 -1.3983 -0.5705
   31MOL   C27715337   1.166   1.802   7.788 -0.2226 -0.0993  0.1271
   31MOL   C27815338   1.270   1.912   7.737 -0.5887 -0.4211  0.6838
   31MOL   C27915339   1.208   1.976   7.617  0.1216 -0.4308  0.6492
   31MOL   C28015340   1.402   1.839   7.691  0.6120 -0.3008 -0.0124
   31MOL   O28115341   1.507   1.845   7.754 -0.1300 -0.4645 -0.3428
   31MOL   O28215342   1.375   1.752   7.594 -0.3207  0.3404  0.5322
   31MOL   C28315343   1.465   1.639   7.575 -1.0894  0.4562 -0.0181
   31MOL   C28415344   1.433   1.569   7.441 -0.0765 -0.4460  0.2905
   31MOL   C28515345   1.365   1.636   7.337 -0.2039 -0.0241 -0.5063
   31MOL   C28615346   1.359   1.576   7.213 -0.4528 -0.7627 -0.1059
   31MOL   C28715347   1.426   1.453   7.189  0.2132  0.4115  0.3898
   31MOL   C28815348   1.495   1.385   7.291 -0.1920  0.4521  0.5166
   31MOL   C28915349   1.491   1.441   7.417 -1.1193  0.4073 -0.5007
   31MOL   H29015350   1.067   1.848   7.783 -2.0158 -3.8354  0.1552
   31MOL   H29115351   1.153   1.724   7.713 -0.2305  0.3875 -0.3857
   31MOL   H29215352   1.282   2.028   7.555  0.1204  0.1598  1.1409
   31MOL   H29315353   1.132   2.051   7.640 -0.8707 -0.8331 -1.1661
   31MOL   H29415354   1.169   1.909   7.540 -3.1553  0.4997  1.4268
   31MOL   H29515355   1.564   1.684   7.577 -0.5529 -0.7574  0.9612
   31MOL   H29615356   1.455   1.567   7.657 -0.0375  1.4365  0.9825
   31MOL   H29715357   1.334   1.739   7.338  3.3062  1.0961  0.5058
   31MOL   H29815358   1.313   1.618   7.125  2.1646 -0.3503 -1.3303
   31MOL   H29915359   1.428   1.408   7.090 -1.1461  0.7118  0.2090
   31MOL   H30015360   1.543   1.289   7.275 -2.7974 -0.8501  0.1654
   31MOL   H30115361   1.548   1.395   7.496 -1.8051 -0.2415 -0.3757
   31MOL   C30215362   1.299   2.032   7.841 -0.2930  0.3576  0.4720
   31MOL   C30315363   1.374   2.169   7.828 -0.2267 -0.2274  0.2278
   31MOL   C30415364   1.518   2.140   7.783 -0.0295  0.2436 -0.1890
   31MOL   C30515365   1.383   2.228   7.972 -0.6816  0.1165 -1.0273
   31MOL   O30615366   1.483   2.247   0.032  0.2228  0.5978  0.4179
   31MOL   O30715367   1.258   2.253   0.013 -0.1432  0.1130  0.2129
   31MOL   C30815368   1.238   2.307   0.147 -0.5825 -0.1484 -0.4916
   31MOL   C30915369   1.091   2.335   0.169 -0.4786  0.0508  0.2003
   31MOL   C31015370   0.989   2.255   0.111 -0.3619  0.3135 -0.8217
   31MOL   C31115371   0.854   2.285   0.118  0.2662  0.1532 -0.1537
   31MOL   C31215372   0.817   2.395   0.197 -0.6075 -0.4149 -0.4171
   31MOL   C31315373   0.914   2.473   0.257 -0.1651  0.9225 -0.0182
   31MOL   C31415374   1.053   2.447   0.243 -0.5615  0.1897  0.5156
   31MOL   H31515375   1.346   1.978   7.923  1.1608  0.9360  0.0278
   31MOL   H31615376   1.201   2.066   7.872 -1.2126 -0.4183 -1.4554
   31MOL   H31715377   1.520   2.094   7.685 -0.1753  1.3222 -0.7074
   31MOL   H31815378   1.562   2.068   7.852 -0.3989 -0.0342 -0.2416
   31MOL   H31915379   1.582   2.228   7.784  1.1741 -0.6259  0.5540
   31MOL   H32015380   1.274   2.237   0.222  0.4559  0.8147 -0.0724
   31MOL   H32115381   1.304   2.394   0.153 -1.0769  0.1323  1.2107
   31MOL   H32215382   1.020   2.167   0.057  2.7177  0.7652  0.1058
   31MOL   H32315383   0.778   2.225   0.070 -0.0400  1.3049 -1.1077
   31MOL   H32415384   0.713   2.422   0.202 -0.2730  0.9616 -0.7115
   31MOL   H32515385   0.879   2.557   0.316 -0.2092  0.6954  0.2761
   31MOL   H32615386   1.121   2.513   0.295 -0.5922  0.3459  0.3602
   31MOL   C32715387   1.307   2.272   7.734  0.1395 -0.2118  0.0892
   31MOL   C32815388   1.346   2.426   7.727 -0.4026 -0.6285 -0.7271
   31MOL   C32915389   1.301   2.480   7.585 -0.6743  0.5354  0.6302
   31MOL   C33015390   1.499   2.454   7.739  0.3241  0.1544 -0.0495
   31MOL   O33115391   1.555   2.507   7.836 -0.2957  0.5733 -0.0958
   31MOL   O33215392   1.563   2.410   7.629  0.4161  0.2245  0.6416
   31MOL   C33315393   1.704   2.427   7.619  0.6964  0.3003 -0.0908
   31MOL   C33415394   1.748   2.408   7.471  0.2287  0.3907 -0.0765
   31MOL   C33515395   1.649   2.398   7.364 -1.0924  0.5438 -0.4339
   31MOL   C33615396   1.690   2.383   7.233 -0.2437  0.4480 -0.4235
   31MOL   C33715397   1.824   2.385   7.201 -0.2666  0.0274  0.7865
   31MOL   C33815398   1.921   2.393   7.303 -0.6418 -0.2193 -0.5830
   31MOL   C33915399   1.883   2.403   7.436 -0.1970  0.3828  0.6325
   31MOL   H34015400   1.198   2.278   7.747  0.2704  0.3298  1.0000
   31MOL   H34115401   1.320   2.237   7.632 -3.3415 -2.8745  0.4552
   31MOL   H34215402   1.311   2.402   7.510 -0.5542  0.4589  0.7252
   31MOL   H34315403   1.361   2.559   7.542  0.9533 -1.0329 -0.0614
   31MOL   H34415404   1.196   2.508   7.581 -0.4658  0.9342 -3.6424
   31MOL   H34515405   1.732   2.526   7.657 -0.5495  1.5387 -2.3238
   31MOL   H34615406   1.748   2.352   7.684  0.5970  0.1046 -0.2505
   31MOL   H34715407   1.543   2.408   7.384 -0.6779 -0.5486  2.6057
   31MOL   H34815408   1.622   2.374   7.149 -0.8623 -0.9014  0.2061
   31MOL   H34915409   1.854   2.374   7.098  1.3577 -1.5266  1.3901
   31MOL   H35015410   2.027   2.380   7.290 -0.0094  2.7004  1.1816
   31MOL   H35115411   1.963   2.411   7.509  1.6904  2.2163 -1.5746
   31MOL   C35215412   1.273   2.510   7.844  0.3680  0.2400  0.5463
   31MOL   C35315413   1.240   2.663   7.844  0.6882  0.2122  0.4768
   31MOL   C35415414   1.095   2.694   7.789 -0.2787 -0.6713 -0.1780
   31MOL   C35515415   1.339   2.745   7.756  0.4317  0.2214 -0.0659
   31MOL   O35615416   1.310   2.773   7.640  0.2938 -0.3540 -0.4251
   31MOL   O35715417   1.452   2.784   7.814  0.2301  0.6642  0.1814
   31MOL   C35815418   1.559   2.831   7.736 -0.4054 -0.3742  1.0287
   31MOL   C35915419   1.673   2.886   7.811 -0.7114  0.5747  0.4944
   31MOL   C36015420   1.791   2.931   7.741 -0.9433  0.3544 -0.1948
   31MOL   C36115421   1.907   2.966   7.812 -0.0283 -0.6139  0.7242
   31MOL   C36215422   1.907   2.966   7.953  0.8233  0.2302  0.0461
   31MOL   C36315423   1.793   2.915   0.010 -0.5271 -0.5733 -1.0804
   31MOL   C36415424   1.674   2.877   7.951 -0.4272  0.2574 -0.1768
   31MOL   H36515425   1.326   2.473   7.932  1.5384  0.6282  0.0210
   31MOL   H36615426   1.178   2.460   7.859  0.1566  0.4209 -0.1602
   31MOL   H36715427   1.021   2.658   7.861  0.0227 -3.3110 -1.1516
   31MOL   H36815428   1.084   2.648   7.691 -0.5785  1.3795 -1.1368
   31MOL   H36915429   1.069   2.798   7.769 -0.6204 -0.4242  1.4670
   31MOL   H37015430   1.602   2.746   7.682  1.5327  0.7154  0.8263
   31MOL   H37115431   1.524   2.908   7.666 -0.3433  0.9619  2.4507
   31MOL   H37215432   1.801   2.936   7.633 -0.5931 -0.4209 -0.2051
   31MOL   H37315433   2.001   2.988   7.765  0.1762  2.0221  2.2937
   31MOL   H37415434   1.991   2.996   0.007 -0.3217  2.3185  0.6190
   31MOL   H37515435   1.795   2.894   0.116  1.3514 -0.2526 -1.0315
   31MOL   H37615436   1.590   2.845   0.003 -0.6573 -0.7330 -1.0185
   31MOL   C37715437   1.244   2.703   8.002  0.2371 -0.2317 -0.0501
   31MOL   C37815438   1.206   2.843   0.052 -0.5268  1.2701 -0.5145
   31MOL   C37915439   1.265   2.956   7.974  0.3151 -0.5034  0.4690
   31MOL   C38015440   1.274   2.843   0.197 -0.0159 -0.1268  0.4018
   31MOL   O38115441   1.328   2.948   0.237  0.1315  0.3600  0.4574
   31MOL   O38215442   1.262   2.731   0.261 -0.2103 -0.5590 -0.2534
   31MOL   C38315443   1.346   2.708   0.368 -0.2033  0.4477  0.0228
   31MOL   C38415444   1.461   2.613   0.333  0.1495  0.0939  0.0281
   31MOL   C38515445   1.438   2.474   0.370  0.1775 -0.0750  0.3201
   31MOL   C38615446   1.526   2.381   0.310 -0.7013  0.3143  0.1981
   31MOL   C38715447   1.645   2.430   0.241 -0.5463 -0.1102  0.1070
   31MOL   C38815448   1.676   2.567   0.231  0.5339 -0.0235 -0.1749
   31MOL   C38915449   1.585   2.663   0.278 -0.2522 -0.0370  0.3085
   31MOL   H39015450   1.347   2.680   0.023  0.6311 -1.0370 -2.0664
   31MOL   H39115451   1.189   2.631   0.055 -1.4804  0.3651 -0.8680
   31MOL   H39215452   1.372   2.939   7.960 -0.2901 -2.2073 -2.3939
   31MOL   H39315453   1.264   3.056   0.011 -0.4167 -0.4268  0.2818
   31MOL   H39415454   1.207   2.948   7.882 -0.6250 -2.0147  1.1742
   31MOL   H39515455   1.389   2.797   0.413 -0.4445 -0.0885  1.3441
   31MOL   H39615456   1.284   2.661   0.444 -1.4258 -1.0180 -1.8319
   31MOL   H39715457   1.352   2.434   0.421  0.1920 -0.3828  0.1076
   31MOL   H39815458   1.513   2.275   0.323 -0.3137  0.2126 -0.2028
   31MOL   H39915459   1.711   2.355   0.200 -1.0366 -1.8587  2.3694
   31MOL   H40015460   1.764   2.593   0.173  1.6454 -0.6650  1.2035
   31MOL   H40115461   1.605   2.769   0.283 -3.5185  0.6392 -0.2948
   31MOL   C40215462   1.041   2.869   0.062 -1.3221  0.7017 -0.3564
   31MOL   C40315463   0.974   2.966   0.168  0.1765  0.5271 -0.3939
   31MOL   C40415464   1.052   3.106   0.162 -0.3674 -0.3938 -0.0921
   31MOL   C40515465   0.976   2.917   0.314  0.1860 -0.0907  0.5975
   31MOL   O40615466   0.994   2.798   0.345 -0.1947  0.2813  0.0850
   31MOL   O40715467   0.938   3.013   0.403 -0.3035  0.2337 -0.2823
   31MOL   C40815468   0.941   2.984   0.544 -0.3906 -0.0463  0.3267
   31MOL   C40915469   1.012   3.088   0.623  0.0117  0.1939  0.1701
   31MOL   C41015470   0.981   3.100   0.762  0.3504 -0.3793  0.3306
   31MOL   C41115471   1.030   3.207   0.844 -0.5123  0.6129  0.0880
   31MOL   C41215472   1.127   3.294   0.790 -0.5878 -0.5497 -0.2816
   31MOL   C41315473   1.178   3.269   0.659  0.0426 -0.5995 -0.9282
   31MOL   C41415474   1.124   3.171   0.573 -0.3063 -0.5580  0.6802
   31MOL   H41515475   0.987   2.774   0.062 -2.5150  1.3770 -0.7093
   31MOL   H41615476   1.011   2.910   7.973 -1.1702 -0.1991 -0.7922
   31MOL   H41715477   1.019   3.178   0.237  1.2628  0.5274 -0.2155
   31MOL   H41815478   1.043   3.156   0.065  1.6989  1.5672  0.6925
   31MOL   H41915479   1.161   3.106   0.173 -0.2542  1.7406 -0.8783
   31MOL   H42015480   0.838   2.974   0.577 -1.0897  1.2747 -1.3533
   31MOL   H42115481   1.002   2.895   0.560  0.6740  0.5626 -0.2638
   31MOL   H42215482   0.905   3.037   0.805  1.6752  0.0915  3.4822
   31MOL   H42315483   0.986   3.224   0.941 -2.2248  4.1101 -1.2064
   31MOL   H42415484   1.156   3.380   0.848  0.0147 -1.1313  0.2981
   31MOL   H42515485   1.252   3.338   0.622  1.5898 -1.9494 -0.4101
   31MOL   H42615486   1.154   3.175   0.470 -1.9922 -0.9652  0.1538
   31MOL   C42715487   0.827   3.011   0.132  0.5616  0.3916 -0.6065
   31MOL   C42815488   0.704   2.917   0.098  0.1759 -0.3313  0.9723
   31MOL   C42915489   0.697   2.793   0.191  0.1771  0.3552  0.0023
   31MOL   C43015490   0.718   2.879   7.951 -0.1883  0.2623  0.5279
   31MOL   O43115491   0.744   2.765   7.925 -0.8271 -0.0231 -0.0851
   31MOL   O43215492   0.707   2.979   7.864 -0.8784 -0.6963 -0.1077
   31MOL   C43315493   0.728   2.940   7.726  0.0602 -0.5195 -0.1706
   31MOL   C43415494   0.761   3.065   7.646 -0.1687 -0.4419 -0.3244
   31MOL   C43515495   0.868   3.151   7.693 -0.1338  1.3809 -0.8482
   31MOL   C43615496   0.903   3.266   7.618  0.0783 -0.0923  0.3832
   31MOL   C43715497   0.830   3.299   7.503  0.9494  0.3741 -0.2595
   31MOL   C43815498   0.730   3.214   7.459  0.5591 -1.0972  0.4387
   31MOL   C43915499   0.686   3.101   7.535 -0.1739 -0.2822 -0.4558
   31MOL   H44015500   0.822   3.082   0.049 -2.8610  1.9358  0.8310
   31MOL   H44115501   0.792   3.065   0.220 -0.6855 -0.7126 -0.4102
   31MOL   H44215502   0.616   2.724   0.169 -0.4077  1.9512 -3.1800
   31MOL   H44315503   0.686   2.838   0.290  1.4231  0.2066  0.2170
   31MOL   H44415504   0.792   2.740   0.199 -0.9682 -1.7896 -0.1314
   31MOL   H44515505   0.812   2.872   7.718  2.2978  1.7185  2.9247
   31MOL   H44615506   0.646   2.900   7.667  0.7148 -0.9108 -0.8204
   31MOL   H44715507   0.914   3.136   7.790  0.0568  1.7088 -0.8834
   31MOL   H44815508   0.990   3.324   7.646  0.4217 -1.2236  1.6851
   31MOL   H44915509   0.854   3.385   7.443 -0.0765  0.1028 -1.0872
   31MOL   H45015510   0.671   3.252   7.376  1.0462 -0.3462  0.4245
   31MOL   H45115511   0.603   3.047   7.491  2.1738 -4.8260  0.3664
   31MOL   C45215512   0.579   3.008   0.118 -0.4300 -0.0913  0.2153
   31MOL   C45315513   0.431   2.952   0.102  0.4913 -0.7494 -0.3121
   31MOL   C45415514   0.337   3.081   0.111  0.9180  0.4284 -0.7395
   31MOL   C45515515   0.393   2.865   0.221  0.6741  0.1915 -0.4343
   31MOL   O45615516   0.380   2.918   0.334  0.6703  0.4060  0.4013
   31MOL   O45715517   0.378   2.733   0.190 -0.3203  0.6067  0.1858
   31MOL   C45815518   0.352   2.645   0.296 -0.3914 -0.4688  0.3582
   31MOL   C45915519   0.394   2.505   0.256  0.1971 -0.0869 -0.0048
   31MOL   C46015520   0.421   2.410   0.359 -0.5028 -0.0467  1.2837
   31MOL   C46115521   0.469   2.281   0.319 -0.8434  0.6183 -0.0989
   31MOL   C46215522   0.493   2.250   0.185 -0.3223 -0.9107 -0.5170
   31MOL   C46315523   0.455   2.346   0.078  0.2461 -0.0868 -0.4269
   31MOL   C46415524   0.416   2.473   0.119 -0.3074 -0.5272  0.4763
   31MOL   H46515525   0.581   3.101   0.061  0.0268  0.6554  1.4522
   31MOL   H46615526   0.577   3.037   0.223 -0.8559  0.2894  0.1014
   31MOL   H46715527   0.356   3.152   0.191  0.4494 -0.9642  0.6385
   31MOL   H46815528   0.232   3.057   0.133  0.4939  0.7137 -2.4066
   31MOL   H46915529   0.330   3.128   0.013 -4.2568  1.6910  0.0831
   31MOL   H47015530   0.419   2.675   0.376 -1.2661  0.8633  0.6083
   31MOL   H47115531   0.243   2.643   0.310 -0.1956  2.2906  2.6439
   31MOL   H47215532   0.399   2.443   0.459  1.4795  0.4114  1.5792
   31MOL   H47315533   0.479   2.198   0.387 -0.1132 -0.0365 -0.9897
   31MOL   H47415534   0.536   2.153   0.166 -1.0300 -1.4912  0.7978
   31MOL   H47515535   0.479   2.326   7.982  1.5511  0.1336 -0.1771
   31MOL   H47615536   0.393   2.541   0.038  2.4233  0.4685  0.4789
   31MOL   C47715537   0.401   2.884   7.975 -0.1201  0.5676 -0.0818
   31MOL   C47815538   0.250   2.861   7.936 -0.5747 -0.5007 -0.4764
   31MOL   C47915539   0.230   2.731   7.856 -0.1491 -0.1328  0.4602
   31MOL   C48015540   0.185   2.984   7.860 -0.0843 -0.9524  0.7413
   31MOL   O48115541   0.239   3.033   7.757  0.0040 -0.3250 -0.5936
   31MOL   O48215542   0.070   3.031   7.922 -0.0124  0.4927  0.4221
   31MOL   C48315543   8.006   3.152   7.883  0.2888 -0.3646  0.5002
   31MOL   C48415544   7.998   3.257   7.991  0.1139  0.4890 -0.4232
   31MOL   C48515545   7.975   3.231   0.121  0.5686  0.3174 -0.2486
   31MOL   C48615546   7.949   3.337   0.205 -0.2224 -0.0107  0.2336
   31MOL   C48715547   7.948   3.469   0.158  0.0187  0.2553 -0.0728
   31MOL   C48815548   7.983   3.493   0.025  0.5065  0.0899  0.4560
   31MOL   C48915549   7.998   3.386   7.939  0.3266  0.8898  0.0915
   31MOL   H49015550   0.448   2.785   7.977 -0.1007  0.5868  0.4694
   31MOL   H49115551   0.437   2.943   7.891  0.8421  2.1081  1.3741
   31MOL   H49215552   0.130   2.727   7.812  0.3062  1.2504 -0.7893
   31MOL   H49315553   0.259   2.637   7.902  1.6787 -0.5594 -1.4652
   31MOL   H49415554   0.291   2.745   7.766 -2.5313  0.6883 -1.0596
   31MOL   H49515555   0.054   3.203   7.803 -0.1779 -1.0338 -0.2561
   31MOL   H49615556   7.906   3.127   7.847  0.3781 -0.3351  0.2256
   31MOL   H49715557   7.977   3.132   0.166  2.4860 -1.3734 -3.8126
   31MOL   H49815558   7.929   3.313   0.308  0.2487 -2.4331 -0.2020
   31MOL   H49915559   7.946   3.553   0.225  3.8530  0.9893 -0.7634
   31MOL   H50015560   7.993   3.597   8.007  0.3135 -0.1149 -0.4940
   31MOL   H50115561   0.007   3.404   7.833  1.1184  0.6151  0.1642
   31MOL   H50215562   0.187   2.844   0.015  2.0864 -1.5942  1.3232
   32MOL     C115563   2.707   2.616   3.009  0.0065 -0.3340 -0.2082
   32MOL     C215564   2.634   2.492   2.962 -0.0875  0.1084 -0.6756
   32MOL     C315565   2.630   2.492   2.806 -0.1907  0.0856 -0.1742
   32MOL     C415566   2.495   2.493   3.021 -0.0402 -0.6968 -0.7069
   32MOL     O515567   2.482   2.499   3.140 -0.1640  0.1919 -0.0675
   32MOL     O615568   2.389   2.493   2.934 -0.5313  0.1642 -0.1431
   32MOL     C715569   2.262   2.463   2.986  0.3973  0.5821 -0.2499
   32MOL     C815570   2.155   2.443   2.882 -0.1189  1.3171  0.1658
   32MOL     C915571   2.166   2.506   2.756  0.9097  0.2568 -0.4631
   32MOL    C1015572   2.062   2.497   2.667  1.4750 -0.0753  0.1339
   32MOL    C1115573   1.954   2.405   2.696  0.1795 -0.5610 -0.3992
   32MOL    C1215574   1.946   2.337   2.819  0.7280 -0.3962  0.4881
   32MOL    C1315575   2.048   2.363   2.914  0.0396 -0.0784 -0.6794
   32MOL    H1415576   2.665   2.697   2.949  1.8038  0.3573 -0.5871
   32MOL    H1515577   2.685   2.627   3.115  1.3652 -0.4311  0.0943
   32MOL    H1615578   2.720   2.471   2.749 -0.2427 -1.2802  0.2254
   32MOL    H1715579   2.586   2.579   2.758 -2.9337 -0.6679  0.8634
   32MOL    H1815580   2.554   2.425   2.764 -1.4689  0.6448  1.2174
   32MOL    H1915581   2.260   2.371   3.044 -0.7355 -0.2527 -1.5700
   32MOL    H2015582   2.212   2.539   3.045 -1.5181 -0.7870 -0.0486
   32MOL    H2115583   2.243   2.579   2.736  0.1032  0.8128 -1.5957
   32MOL    H2215584   2.050   2.550   2.574 -1.4374  0.6425  0.8538
   32MOL    H2315585   1.880   2.394   2.618  0.7882 -0.4819 -0.9937
   32MOL    H2415586   1.867   2.270   2.848 -1.1438  0.9090 -1.4554
   32MOL    H2515587   2.045   2.305   3.005  0.8164  0.0280 -0.5870
   32MOL    H2615588   2.815   2.611   2.995 -0.0251  1.0436 -1.1129
   32MOL    C2715589   2.718   2.378   3.013  0.5659  0.7477 -0.3827
   32MOL    C2815590   2.683   2.223   3.014  0.2759 -0.5128 -0.3045
   32MOL    C2915591   2.544   2.188   3.075 -0.3063  0.2527 -0.1327
   32MOL    C3015592   2.790   2.160   3.104 -0.3236  0.2238 -0.2207
   32MOL    O3115593   2.760   2.124   3.219  0.2214 -0.6737  0.3953
   32MOL    O3215594   2.916   2.172   3.055 -0.2780  0.1909 -0.6977
   32MOL    C3315595   3.026   2.180   3.140 -1.5012  0.7274 -0.6803
   32MOL    C3415596   3.148   2.236   3.066 -0.1682  0.9276 -0.3618
   32MOL    C3515597   3.240   2.324   3.130 -0.6851  0.6574 -0.7630
   32MOL    C3615598   3.359   2.360   3.062  0.3958 -0.0722  0.1799
   32MOL    C3715599   3.383   2.318   2.929  0.3361  0.4049 -0.2395
   32MOL    C3815600   3.284   2.239   2.864  0.0370  0.1557  0.3383
   32MOL    C3915601   3.176   2.189   2.935 -0.4544  0.2090 -0.5279
   32MOL    H4015602   2.746   2.400   3.116  0.7341  1.9628 -0.6747
   32MOL    H4115603   2.817   2.380   2.968  0.7537  0.7811  0.0324
   32MOL    H4215604   2.469   2.217   3.001  0.1817 -0.7206 -1.0218
   32MOL    H4315605   2.532   2.247   3.166 -0.4806 -1.1975  0.7991
   32MOL    H4415606   2.527   2.087   3.113  5.1053  0.3526  3.0850
   32MOL    H4515607   2.995   2.243   3.223  1.1354  0.1847  0.7926
   32MOL    H4615608   3.052   2.087   3.191  0.4538  1.9769  0.6603
   32MOL    H4715609   3.221   2.375   3.223 -1.9754 -2.9511  1.0438
   32MOL    H4815610   3.414   2.437   3.114 -1.3271 -0.0593  2.0603
   32MOL    H4915611   3.479   2.349   2.888  1.1717  1.3907  2.3817
   32MOL    H5015612   3.297   2.207   2.762  1.9135 -0.1183  0.6460
   32MOL    H5115613   3.111   2.113   2.895  2.1072 -0.1479 -4.2954
   32MOL    C5215614   2.690   2.156   2.870 -0.8060 -1.1901 -0.7650
   32MOL    C5315615   2.651   2.014   2.820  0.1091  0.8173  0.2156
   32MOL    C5415616   2.501   1.998   2.830  0.7377 -0.4695 -0.4380
   32MOL    C5515617   2.719   1.899   2.902  0.7416  0.3450 -0.3289
   32MOL    O5615618   2.661   1.829   2.983 -0.0037 -0.0300  0.5304
   32MOL    O5715619   2.846   1.896   2.886  0.3077 -0.0294 -0.0594
   32MOL    C5815620   2.929   1.806   2.951 -0.0161  0.5243 -0.3680
   32MOL    C5915621   2.972   1.707   2.851  0.7590  0.6868 -0.5384
   32MOL    C6015622   3.093   1.717   2.779  0.3560 -0.1678  0.3239
   32MOL    C6115623   3.130   1.619   2.682  0.0498 -0.0369  0.2266
   32MOL    C6215624   3.048   1.499   2.668  0.1886 -0.0389 -0.0444
   32MOL    C6315625   2.928   1.489   2.748  0.1293 -0.5091 -0.1104
   32MOL    C6415626   2.896   1.591   2.839 -0.4760  1.0343 -0.2404
   32MOL    H6515627   2.791   2.158   2.828 -0.2594 -1.5862  0.4927
   32MOL    H6615628   2.630   2.221   2.807  1.1159  2.4258  0.9649
   32MOL    H6715629   2.455   2.067   2.760 -2.1002 -1.4148  0.4194
   32MOL    H6815630   2.442   2.029   2.917  0.4433 -3.0544  0.3366
   32MOL    H6915631   2.449   1.908   2.798  1.4152 -0.5972 -1.1862
   32MOL    H7015632   3.008   1.863   3.001 -1.0130  0.2567  1.5686
   32MOL    H7115633   2.885   1.760   3.039 -1.3898  0.3486 -1.1344
   32MOL    H7215634   3.158   1.800   2.803 -0.6705  0.9726 -0.7806
   32MOL    H7315635   3.223   1.629   2.628  1.2893 -0.7352  2.1942
   32MOL    H7415636   3.072   1.426   2.593 -0.6731 -0.7454  0.3553
   32MOL    H7515637   2.875   1.397   2.735  1.7672 -1.3414 -1.0310
   32MOL    H7615638   2.805   1.574   2.895 -1.2457  0.1299 -1.7268
   32MOL    C7715639   2.699   2.004   2.660  0.2351 -0.6225 -0.0710
   32MOL    C7815640   2.665   1.895   2.548  0.2220 -0.0071 -0.0790
   32MOL    C7915641   2.519   1.898   2.498  0.2979  0.2619  0.4635
   32MOL    C8015642   2.683   1.750   2.598 -0.0368  0.1907  0.0719
   32MOL    O8115643   2.754   1.663   2.544  0.2075  0.1018 -0.1044
   32MOL    O8215644   2.604   1.727   2.692  0.2847 -0.2721 -0.1656
   32MOL    C8315645   2.576   1.595   2.734  0.3408 -0.1581 -0.1122
   32MOL    C8415646   2.464   1.535   2.655 -0.2647  0.0179 -0.5315
   32MOL    C8515647   2.491   1.432   2.566  0.8502  0.5756 -0.1516
   32MOL    C8615648   2.389   1.364   2.501  0.8276 -0.5095  0.2193
   32MOL    C8715649   2.254   1.399   2.524 -0.8542  0.9141  0.0756
   32MOL    C8815650   2.218   1.506   2.615 -0.0789  0.0984 -0.0850
   32MOL    C8915651   2.328   1.568   2.682  0.1412 -0.2310  0.0918
   32MOL    H9015652   2.807   2.016   2.671  0.1023  0.2872  0.2557
   32MOL    H9115653   2.669   2.095   2.608  1.8984 -0.2406 -0.4057
   32MOL    H9215654   2.488   1.989   2.446  1.4575  0.4258  0.0348
   32MOL    H9315655   2.439   1.876   2.568  1.2167  0.7835  1.6966
   32MOL    H9415656   2.511   1.830   2.414  0.1930 -0.4950  1.0817
   32MOL    H9515657   2.667   1.537   2.724  0.3842 -0.0471 -0.3717
   32MOL    H9615658   2.542   1.604   2.837 -1.9446 -0.0642 -0.8366
   32MOL    H9715659   2.592   1.395   2.554  1.0393  1.0200  0.0789
   32MOL    H9815660   2.416   1.277   2.442  0.0371 -1.8933  1.8574
   32MOL    H9915661   2.172   1.357   2.468 -0.1294  1.2804 -1.2931
   32MOL   H10015662   2.116   1.541   2.629 -0.5025 -0.6268 -1.2887
   32MOL   H10115663   2.309   1.653   2.747 -0.2785 -0.1761 -0.1005
   32MOL   C10215664   2.755   1.932   2.425  0.3857  0.3679  0.2991
   32MOL   C10315665   2.909   1.974   2.418  0.2713 -0.0593 -0.7775
   32MOL   C10415666   2.985   1.875   2.507 -0.2199  0.1120  0.1144
   32MOL   C10515667   2.943   2.117   2.462  0.8056  0.2722 -0.6554
   32MOL   O10615668   3.048   2.148   2.521  0.2269 -0.0644 -0.0840
   32MOL   O10715669   2.846   2.201   2.434 -0.5610 -0.2026  0.4365
   32MOL   C10815670   2.853   2.337   2.465 -0.6004 -0.0029 -0.0576
   32MOL   C10915671   2.723   2.417   2.443  0.2817  0.6161 -0.5421
   32MOL   C11015672   2.601   2.358   2.490  0.3523 -0.5778 -0.1570
   32MOL   C11115673   2.484   2.438   2.502 -0.2787  0.9888 -0.2407
   32MOL   C11215674   2.488   2.576   2.473  0.1628  0.0330 -1.1638
   32MOL   C11315675   2.611   2.634   2.432  0.2614 -0.0819 -0.7101
   32MOL   C11415676   2.727   2.554   2.419 -0.1760  0.3684  0.3806
   32MOL   H11515677   2.696   2.017   2.392  2.6700  1.2405 -1.6044
   32MOL   H11615678   2.736   1.858   2.347  0.2251  0.9309 -0.1987
   32MOL   H11715679   3.086   1.907   2.529  0.0774 -0.9617  0.3288
   32MOL   H11815680   2.975   1.774   2.469 -0.6157  0.4881 -0.8044
   32MOL   H11915681   2.934   1.874   2.603 -3.4851  1.3028 -1.5034
   32MOL   H12015682   2.886   2.364   2.565  0.6447 -0.2885 -0.3835
   32MOL   H12115683   2.937   2.374   2.407  0.4531 -2.4366 -0.1485
   32MOL   H12215684   2.593   2.253   2.513  1.2428  0.0212  3.1346
   32MOL   H12315685   2.391   2.392   2.532 -1.0988  2.5297 -0.3425
   32MOL   H12415686   2.403   2.639   2.492 -0.6893 -1.4441  0.0466
   32MOL   H12515687   2.626   2.740   2.418 -0.5019  0.1623  0.2399
   32MOL   H12615688   2.815   2.613   2.395 -0.8212  0.7011 -1.2398
   32MOL   C12715689   2.960   1.944   2.273  0.6801  0.1075 -0.3256
   32MOL   C12815690   2.934   2.033   2.140 -0.6504  0.7627 -0.0749
   32MOL   C12915691   3.042   2.138   2.143  0.5091  0.0759  0.3521
   32MOL   C13015692   2.792   2.084   2.130 -0.0768  0.4076 -0.0732
   32MOL   O13115693   2.760   2.201   2.149  0.3122  0.5229  0.2721
   32MOL   O13215694   2.710   1.990   2.095 -0.3319 -0.1056 -0.4499
   32MOL   C13315695   2.565   2.012   2.101 -0.1752 -0.2337  0.1316
   32MOL   C13415696   2.493   1.904   2.029  0.0904 -0.4998 -0.2639
   32MOL   C13515697   2.480   1.910   1.891 -0.0057  0.2143  0.9069
   32MOL   C13615698   2.400   1.824   1.816  0.0400  0.6700 -0.0243
   32MOL   C13715699   2.336   1.719   1.886  0.6240 -0.1416  0.2892
   32MOL   C13815700   2.355   1.708   2.023 -0.3905  0.1326 -0.2874
   32MOL   C13915701   2.437   1.797   2.099  0.1888  0.6384  0.0087
   32MOL   H14015702   2.921   1.843   2.256  1.3440 -0.3561  0.8678
   32MOL   H14115703   3.067   1.925   2.284  0.4358 -1.1798 -0.0631
   32MOL   H14215704   3.043   2.200   2.054  0.4283  0.5664  0.6913
   32MOL   H14315705   3.136   2.086   2.163  0.3350  0.2688  1.6985
   32MOL   H14415706   3.027   2.205   2.227  2.9958 -0.0778  0.9710
   32MOL   H14515707   2.516   2.009   2.198 -2.1586  0.1926 -0.8228
   32MOL   H14615708   2.538   2.110   2.060 -0.5919  0.3815  1.8154
   32MOL   H14715709   2.533   1.983   1.833 -1.7643  2.3011  1.8315
   32MOL   H14815710   2.406   1.836   1.709  0.5235  1.5867  0.0980
   32MOL   H14915711   2.279   1.643   1.835 -1.5713 -0.2011  2.7516
   32MOL   H15015712   2.298   1.628   2.068 -0.7976  1.3939  1.5337
   32MOL   H15115713   2.446   1.788   2.206  1.7644  0.1812 -0.1474
   32MOL   C15215714   2.973   1.936   2.022  0.3602  0.3257  0.7023
   32MOL   C15315715   2.980   1.971   1.868  0.2310 -0.1221  0.3464
   32MOL   C15415716   3.132   1.992   1.837  0.2005  1.0206 -0.1918
   32MOL   C15515717   2.887   2.094   1.822 -0.0914  0.3551  0.6022
   32MOL   O15615718   2.769   2.077   1.807  0.3050 -0.2792  0.9282
   32MOL   O15715719   2.955   2.205   1.794 -0.4217  0.3701  0.4296
   32MOL   C15815720   2.883   2.321   1.749 -0.3525 -0.3634 -0.3560
   32MOL   C15915721   2.891   2.348   1.603 -0.0498 -0.2363  0.1623
   32MOL   C16015722   2.805   2.278   1.514 -0.0335  0.0024  0.0889
   32MOL   C16115723   2.815   2.309   1.380 -0.2370  0.0494  0.2877
   32MOL   C16215724   2.923   2.388   1.331 -0.9738 -0.8531 -0.4832
   32MOL   C16315725   3.004   2.453   1.422 -0.5224  0.3514 -0.0674
   32MOL   C16415726   2.993   2.438   1.563  0.6512 -0.0728 -0.4029
   32MOL   H16515727   2.902   1.855   2.042 -0.7948  1.9310  3.4637
   32MOL   H16615728   3.065   1.879   2.028 -0.5345 -1.5294 -1.9995
   32MOL   H16715729   3.189   2.035   1.919  2.0203 -2.5568  0.5202
   32MOL   H16815730   3.144   2.051   1.747 -1.9946  0.6052 -0.7889
   32MOL   H16915731   3.186   1.898   1.822 -1.5564 -0.5531  2.7737
   32MOL   H17015732   2.778   2.327   1.777  0.1768 -1.4259  1.9456
   32MOL   H17115733   2.935   2.397   1.808 -1.5777  0.1232  0.1110
   32MOL   H17215734   2.726   2.207   1.537  0.2393 -0.8039 -1.4072
   32MOL   H17315735   2.745   2.266   1.309  1.9981  2.0199 -3.2718
   32MOL   H17415736   2.924   2.389   1.223 -1.5968  0.8429 -0.4925
   32MOL   H17515737   3.080   2.516   1.376 -2.1102  1.6817 -0.9325
   32MOL   H17615738   3.068   2.478   1.629  0.4535 -2.1524  1.1252
   32MOL   C17715739   2.928   1.833   1.802 -0.1049 -0.4302  0.1907
   32MOL   C17815740   2.932   1.792   1.649 -0.3153  0.3953 -0.7264
   32MOL   C17915741   2.951   1.637   1.636  0.0481  0.6467  0.5361
   32MOL   C18015742   3.055   1.856   1.572 -0.1371 -0.8673  0.1766
   32MOL   O18115743   3.164   1.797   1.555 -0.8555  0.1225 -0.4083
   32MOL   O18215744   3.030   1.980   1.532 -0.2895 -0.0134 -0.2161
   32MOL   C18315745   3.129   2.058   1.474  0.1457 -0.2507 -0.3296
   32MOL   C18415746   3.204   1.999   1.351  0.0750 -0.1479 -0.0036
   32MOL   C18515747   3.144   2.001   1.228 -0.5992 -0.1751  0.6298
   32MOL   C18615748   3.202   1.939   1.113  0.4433  0.4051  0.1276
   32MOL   C18715749   3.324   1.867   1.131  0.1168  0.9669  0.3577
   32MOL   C18815750   3.387   1.864   1.252  0.0629  0.5193 -0.0714
   32MOL   C18915751   3.328   1.929   1.360 -1.3208  0.1069  0.1027
   32MOL   H19015752   2.833   1.795   1.838 -1.0162 -3.1285 -4.6382
   32MOL   H19115753   2.995   1.768   1.857 -0.9155 -0.5773  1.0038
   32MOL   H19215754   2.880   1.576   1.691 -1.2440  0.4472 -1.3026
   32MOL   H19315755   3.047   1.615   1.681  0.3945 -0.3642 -0.6781
   32MOL   H19415756   2.970   1.603   1.534 -2.1683 -0.0525  0.3235
   32MOL   H19515757   3.072   2.144   1.439  0.9117  0.4072  0.0081
   32MOL   H19615758   3.196   2.097   1.550  2.7351 -1.5260 -1.9047
   32MOL   H19715759   3.045   2.045   1.224  0.0454  1.1787 -0.5945
   32MOL   H19815760   3.140   1.933   1.025  2.0971 -0.2479 -1.0266
   32MOL   H19915761   3.352   1.814   1.041  1.6615  1.2721  0.6585
   32MOL   H20015762   3.471   1.796   1.253 -0.4482 -0.1630 -1.3726
   32MOL   H20115763   3.366   1.914   1.460 -1.3755  0.5961  0.1961
   32MOL   C20215764   2.790   1.831   1.594  0.3721 -0.8103 -0.3097
   32MOL   C20315765   2.714   1.770   1.468 -0.4935 -0.6678 -0.5078
   32MOL   C20415766   2.654   1.633   1.498 -0.1903 -0.4836 -0.5578
   32MOL   C20515767   2.812   1.774   1.340  0.1192 -0.9313  0.0968
   32MOL   O20615768   2.825   1.879   1.273 -0.4320  0.0797 -0.7368
   32MOL   O20715769   2.881   1.660   1.326 -0.2079  0.4695  0.3154
   32MOL   C20815770   2.971   1.642   1.213  0.9394 -0.1041  0.7338
   32MOL   C20915771   3.060   1.518   1.233  0.3427 -0.9136 -0.5803
   32MOL   C21015772   3.036   1.408   1.151 -0.4179 -0.4986 -0.6925
   32MOL   C21115773   3.110   1.296   1.157 -0.7041 -0.1974 -0.2319
   32MOL   C21215774   3.220   1.297   1.244  0.4836 -0.3789 -0.2684
   32MOL   C21315775   3.255   1.411   1.324  0.2476  0.2453 -0.2331
   32MOL   C21415776   3.169   1.519   1.320  0.0407  0.2555  0.5834
   32MOL   H21515777   2.792   1.940   1.592 -1.0928 -0.7426  0.9973
   32MOL   H21615778   2.718   1.826   1.676 -0.6584  1.9871 -0.9658
   32MOL   H21715779   2.731   1.569   1.540  0.7576  0.4746 -0.8065
   32MOL   H21815780   2.622   1.597   1.400  0.4438  2.5382 -1.9628
   32MOL   H21915781   2.574   1.628   1.572  0.9814 -1.4233  0.6662
   32MOL   H22015782   2.908   1.639   1.125  1.9783  0.2945 -0.0283
   32MOL   H22115783   3.035   1.728   1.200  1.3881 -0.7527 -1.4331
   32MOL   H22215784   2.956   1.417   1.078 -1.0322  1.5426  0.1899
   32MOL   H22315785   3.086   1.216   1.089  3.0546  0.4817 -2.4972
   32MOL   H22415786   3.281   1.208   1.252 -1.2617 -1.6215 -0.2030
   32MOL   H22515787   3.337   1.398   1.393 -1.6629  1.8400  2.4465
   32MOL   H22615788   3.196   1.599   1.388  1.2039  1.1390 -0.8776
   32MOL   C22715789   2.601   1.873   1.448  0.6263  0.0035  1.1241
   32MOL   C22815790   2.479   1.861   1.346  0.1949 -0.5136 -0.8134
   32MOL   C22915791   2.520   1.824   1.204 -0.2064 -0.3891 -0.2984
   32MOL   C23015792   2.417   2.005   1.338 -0.5186 -0.2825 -0.0997
   32MOL   O23115793   2.408   2.076   1.235  0.5024  0.4940 -0.0395
   32MOL   O23215794   2.387   2.054   1.461  0.2768  0.1508 -0.3196
   32MOL   C23315795   2.351   2.189   1.470  0.3447  0.3376 -0.1809
   32MOL   C23415796   2.365   2.247   1.607  0.1545  0.1003 -0.0957
   32MOL   C23515797   2.272   2.343   1.655 -0.0093  0.0436  0.2571
   32MOL   C23615798   2.289   2.398   1.784  0.3838 -0.3033  0.0952
   32MOL   C23715799   2.405   2.366   1.859 -0.4696 -0.3310  0.0932
   32MOL   C23815800   2.504   2.286   1.804 -0.3501  0.4009 -0.5759
   32MOL   C23915801   2.480   2.217   1.684  0.1417  0.3442  0.8798
   32MOL   H24015802   2.658   1.964   1.426  2.8422 -1.0697  2.1981
   32MOL   H24115803   2.557   1.889   1.546 -0.8425  1.5534  0.2413
   32MOL   H24215804   2.612   1.875   1.176 -0.2575  0.8604  1.7261
   32MOL   H24315805   2.443   1.853   1.133 -0.7748  0.3577  0.6042
   32MOL   H24415806   2.532   1.716   1.193 -0.1184 -0.2888 -1.1931
   32MOL   H24515807   2.419   2.253   1.415  1.6505 -0.6317  0.2728
   32MOL   H24615808   2.251   2.211   1.433  0.7204  4.1499  0.8397
   32MOL   H24715809   2.192   2.384   1.595  0.5610 -1.1394 -1.3346
   32MOL   H24815810   2.219   2.471   1.822 -0.0162 -1.0740  0.8297
   32MOL   H24915811   2.414   2.416   1.954  2.0146  0.9695 -0.7965
   32MOL   H25015812   2.588   2.268   1.869 -2.6065 -0.5916  2.1513
   32MOL   H25115813   2.557   2.148   1.654 -0.5335 -0.2450  0.5029
   32MOL   C25215814   2.363   1.760   1.396  0.2317  0.6284  0.1925
   32MOL   C25315815   2.211   1.760   1.338  0.2294 -0.6320  0.0401
   32MOL   C25415816   2.196   1.786   1.187  0.6367 -0.5191  0.1000
   32MOL   C25515817   2.126   1.879   1.401 -0.3349  0.0648  0.0965
   32MOL   O25615818   2.061   1.963   1.334 -0.1366 -0.7882 -1.0924
   32MOL   O25715819   2.130   1.864   1.537 -0.1209 -0.0843  0.1005
   32MOL   C25815820   2.065   1.953   1.623 -0.3018  0.1065  0.4006
   32MOL   C25915821   1.927   1.905   1.660  0.1194 -0.5118 -0.1183
   32MOL   C26015822   1.851   1.811   1.581 -0.0665  0.2716 -0.0246
   32MOL   C26115823   1.719   1.777   1.610  0.3268  0.4647  0.3413
   32MOL   C26215824   1.659   1.838   1.721 -0.4001 -0.3699  0.3287
   32MOL   C26315825   1.730   1.925   1.803 -0.6646 -0.5391 -0.4276
   32MOL   C26415826   1.868   1.954   1.777 -0.1193 -0.0946  0.2580
   32MOL   H26515827   2.349   1.765   1.504 -0.9505  2.5179 -0.0189
   32MOL   H26615828   2.395   1.658   1.372 -0.8513  0.3609 -0.1262
   32MOL   H26715829   2.104   1.756   1.137 -0.3334  1.7382  0.4796
   32MOL   H26815830   2.275   1.735   1.131  1.7350  1.2459  0.0003
   32MOL   H26915831   2.216   1.887   1.151 -0.7847  0.0143  0.7604
   32MOL   H27015832   2.130   1.962   1.710  1.0447  0.7995 -0.6589
   32MOL   H27115833   2.052   2.058   1.597  0.1232  0.9671  3.4067
   32MOL   H27215834   1.886   1.776   1.485  4.7152  3.2434  0.4668
   32MOL   H27315835   1.663   1.720   1.538  0.4111  0.5492  0.2067
   32MOL   H27415836   1.554   1.819   1.739 -0.1695  0.3585  2.6379
   32MOL   H27515837   1.683   1.979   1.884 -0.9627  1.5838 -1.9991
   32MOL   H27615838   1.923   2.017   1.845  0.8568  0.6634 -1.2210
   32MOL   C27715839   2.131   1.620   1.357 -0.3867 -0.0376 -0.0206
   32MOL   C27815840   2.163   1.498   1.460  0.0929 -0.0214 -0.4868
   32MOL   C27915841   2.193   1.543   1.606  0.4218 -0.2817  0.2107
   32MOL   C28015842   2.285   1.422   1.408 -0.0061 -0.2365 -0.1143
   32MOL   O28115843   2.390   1.414   1.466 -0.9990 -0.0041 -0.0869
   32MOL   O28215844   2.269   1.378   1.283 -0.1756 -0.1707 -0.0086
   32MOL   C28315845   2.376   1.293   1.231 -0.6318  0.0161  0.6609
   32MOL   C28415846   2.488   1.354   1.138  0.0643 -0.1994 -0.3501
   32MOL   C28515847   2.593   1.275   1.087  0.1265  0.0294 -0.1147
   32MOL   C28615848   2.688   1.325   0.999 -0.0720 -0.4113 -0.1835
   32MOL   C28715849   2.680   1.456   0.960  0.1644 -0.0194  0.0206
   32MOL   C28815850   2.573   1.543   1.003 -0.5064  0.2545  0.4501
   32MOL   C28915851   2.479   1.491   1.095  0.4848 -0.0131 -0.0815
   32MOL   H29015852   2.132   1.566   1.262 -0.0566 -1.0433  0.5521
   32MOL   H29115853   2.031   1.645   1.395 -0.4988  0.1251 -0.4157
   32MOL   H29215854   2.267   1.622   1.617 -0.0329  0.2824 -0.6867
   32MOL   H29315855   2.229   1.466   1.674 -1.9180 -1.2076  0.4657
   32MOL   H29415856   2.101   1.580   1.650  1.1808 -0.7209  2.2112
   32MOL   H29515857   2.433   1.244   1.310  0.3627  1.0548  0.6123
   32MOL   H29615858   2.332   1.211   1.175 -3.0898  1.2822  0.7072
   32MOL   H29715859   2.608   1.173   1.120 -0.3380 -0.0248 -0.0672
   32MOL   H29815860   2.769   1.260   0.968 -2.3681 -3.3890 -0.2108
   32MOL   H29915861   2.753   1.495   0.891  0.5544  0.7407  0.8523
   32MOL   H30015862   2.556   1.644   0.969 -2.0276 -0.4071 -0.8315
   32MOL   H30115863   2.396   1.555   1.121  2.4570  1.8391  1.8716
   32MOL   C30215864   2.032   1.409   1.467 -0.7108  0.1934  0.4240
   32MOL   C30315865   2.033   1.258   1.509  0.4194  0.0024  0.0558
   32MOL   C30415866   2.120   1.226   1.628 -0.2507  0.4622 -1.3797
   32MOL   C30515867   2.070   1.172   1.383 -0.9009  0.1683 -0.0335
   32MOL   O30615868   2.182   1.126   1.373  0.4768 -0.3749 -0.3103
   32MOL   O30715869   1.978   1.172   1.290 -0.0366 -0.3391 -0.0101
   32MOL   C30815870   2.010   1.117   1.165  0.6941  0.8479 -0.7191
   32MOL   C30915871   2.063   1.224   1.073  0.2365  0.0311  0.4997
   32MOL   C31015872   2.155   1.196   0.970 -0.0146 -0.2340 -0.4042
   32MOL   C31115873   2.217   1.290   0.889 -0.4220 -0.1333  0.0806
   32MOL   C31215874   2.177   1.427   0.900 -0.4000 -0.5823  0.1734
   32MOL   C31315875   2.083   1.457   0.997  0.4081 -0.3207  0.8508
   32MOL   C31415876   2.023   1.359   1.081 -0.4098  0.0782  0.7747
   32MOL   H31515877   1.993   1.414   1.365  1.2794  1.3109 -0.3075
   32MOL   H31615878   1.954   1.474   1.507 -0.5686  1.1151 -0.7740
   32MOL   H31715879   2.228   1.224   1.614  0.0605 -0.4533  0.8810
   32MOL   H31815880   2.105   1.128   1.672 -1.9195  1.4971  0.4216
   32MOL   H31915881   2.095   1.298   1.706 -0.9141 -0.0786 -1.0962
   32MOL   H32015882   2.084   1.038   1.172  1.0390  1.1611 -0.7725
   32MOL   H32115883   1.919   1.083   1.115 -0.0227 -0.2198  1.2415
   32MOL   H32215884   2.168   1.090   0.955 -1.9801 -0.2985 -1.8960
   32MOL   H32315885   2.297   1.270   0.819 -1.7180 -1.8930 -0.9158
   32MOL   H32415886   2.225   1.502   0.839 -1.7425  1.1588  1.1944
   32MOL   H32515887   2.059   1.560   1.018  0.3843 -0.5656  2.0893
   32MOL   H32615888   1.957   1.387   1.162  0.6731  0.6892  1.4731
   32MOL   C32715889   1.886   1.215   1.557  0.0983 -0.2776 -0.3990
   32MOL   C32815890   1.806   1.247   1.692 -1.2045 -0.6540 -0.5393
   32MOL   C32915891   1.657   1.199   1.661  0.1807  0.5132 -0.3055
   32MOL   C33015892   1.792   1.401   1.718 -0.2582  0.3599  0.6514
   32MOL   O33115893   1.704   1.470   1.668  0.7560 -0.7197  0.1834
   32MOL   O33215894   1.900   1.452   1.781 -0.1857  0.2681  0.6082
   32MOL   C33315895   1.893   1.580   1.840 -0.0605 -0.1510 -0.5853
   32MOL   C33415896   1.940   1.574   1.980 -0.2296  0.6601 -0.1983
   32MOL   C33515897   2.059   1.499   2.008 -0.2518  0.1910 -0.5423
   32MOL   C33615898   2.113   1.494   2.136 -0.6456 -0.0286 -0.1356
   32MOL   C33715899   2.050   1.565   2.242 -0.5760 -0.6936 -0.2257
   32MOL   C33815900   1.932   1.634   2.218  0.0309 -0.7821 -0.6929
   32MOL   C33915901   1.877   1.648   2.085  0.4443  0.2289  0.2239
   32MOL   H34015902   1.885   1.107   1.545 -1.3985 -0.0833 -2.1745
   32MOL   H34115903   1.818   1.250   1.480 -0.0779 -3.1865 -1.5973
   32MOL   H34215904   1.612   1.244   1.572 -1.3595 -0.9835 -0.3123
   32MOL   H34315905   1.590   1.217   1.745  0.0106  2.0411 -0.7580
   32MOL   H34415906   1.650   1.091   1.652 -0.1313  0.3398  1.6711
   32MOL   H34515907   1.954   1.654   1.787  1.1767 -0.2164  0.7239
   32MOL   H34615908   1.794   1.626   1.838  0.7221  1.6356  0.2634
   32MOL   H34715909   2.104   1.450   1.923  1.9251  0.2539  0.5330
   32MOL   H34815910   2.201   1.436   2.159 -0.1101  1.1494  0.8139
   32MOL   H34915911   2.086   1.563   2.343 -2.6267  0.9810  0.5821
   32MOL   H35015912   1.886   1.683   2.303 -1.4336 -1.4214 -1.1075
   32MOL   H35115913   1.788   1.709   2.086  0.1488 -0.2030  1.8269
   32MOL   C35215914   1.865   1.169   1.821  0.0955 -1.0080  0.2766
   32MOL   C35315915   1.777   1.146   1.959 -0.5120  0.9290  0.2414
   32MOL   C35415916   1.692   1.270   2.005  0.6056 -0.4831 -0.4917
   32MOL   C35515917   1.886   1.124   2.068  0.1505  0.2608  0.4813
   32MOL   O35615918   1.995   1.075   2.031  0.1655 -0.2172  0.7824
   32MOL   O35715919   1.858   1.164   2.193 -0.3398  0.2808 -0.1091
   32MOL   C35815920   1.961   1.158   2.284 -0.3398 -0.1061 -0.5436
   32MOL   C35915921   1.920   1.216   2.423 -0.0791 -0.6719 -0.6987
   32MOL   C36015922   1.948   1.156   2.546 -0.2732  0.2280 -0.3912
   32MOL   C36115923   1.919   1.229   2.663 -0.2021 -0.3521  0.3373
   32MOL   C36215924   1.873   1.363   2.659 -0.0847 -0.7803 -0.7593
   32MOL   C36315925   1.829   1.415   2.533 -0.2081  0.1563  0.1919
   32MOL   C36415926   1.868   1.349   2.416 -0.2596 -0.3682 -0.0947
   32MOL   H36515927   1.950   1.233   1.844 -1.3977  2.3902 -2.9665
   32MOL   H36615928   1.915   1.079   1.786 -0.5377 -0.6998 -1.5049
   32MOL   H36715929   1.615   1.314   1.942  1.3079  1.0812 -0.2845
   32MOL   H36815930   1.760   1.352   2.030 -0.9948  1.1966 -1.4931
   32MOL   H36915931   1.633   1.265   2.097  0.4953  3.1539 -0.2612
   32MOL   H37015932   1.975   1.051   2.299 -1.4398 -0.1775  0.0582
   32MOL   H37115933   2.042   1.212   2.235  0.6895  0.4336  1.6923
   32MOL   H37215934   1.985   1.055   2.555 -1.7540 -0.1663  1.5384
   32MOL   H37315935   1.941   1.173   2.753  1.0460 -0.1758  0.1527
   32MOL   H37415936   1.842   1.411   2.751  2.1381 -2.2462  0.8076
   32MOL   H37515937   1.801   1.519   2.525 -0.1436  0.1951  0.4710
   32MOL   H37615938   1.847   1.400   2.324  0.3814  0.3059  0.1344
   32MOL   C37715939   1.695   1.007   1.944 -0.0528 -0.5731 -0.7656
   32MOL   C37815940   1.556   0.981   2.005  0.2591  0.6349  0.5621
   32MOL   C37915941   1.445   1.060   1.925 -0.1588 -0.5093  0.3107
   32MOL   C38015942   1.544   1.019   2.155  0.0496 -0.5337  0.0658
   32MOL   O38115943   1.448   1.087   2.202 -0.4021  0.0921  0.2490
   32MOL   O38215944   1.643   0.966   2.223 -0.4716  0.0024  0.0547
   32MOL   C38315945   1.637   0.973   2.370  0.3906 -0.2336  0.1086
   32MOL   C38415946   1.725   0.861   2.434 -0.0510  0.2302  0.1225
   32MOL   C38515947   1.690   0.819   2.570 -0.6082  0.1352  0.7901
   32MOL   C38615948   1.743   0.705   2.626 -0.1042 -0.7936  0.3259
   32MOL   C38715949   1.849   0.639   2.558  0.4053  0.2643 -0.5937
   32MOL   C38815950   1.870   0.673   2.428 -0.7052  0.0693  0.1205
   32MOL   C38915951   1.814   0.783   2.370  0.0131  0.7360  0.4244
   32MOL   H39015952   1.760   0.932   1.990  1.6281  1.2235 -0.1694
   32MOL   H39115953   1.677   0.983   1.839 -2.6919  0.3993 -0.5914
   32MOL   H39215954   1.457   1.167   1.907 -1.1487 -0.7314 -1.7076
   32MOL   H39315955   1.341   1.057   1.956 -0.8617  1.2162 -1.8011
   32MOL   H39415956   1.450   1.027   1.822 -0.0525  0.0638  0.1304
   32MOL   H39515957   1.671   1.069   2.410 -0.5422  0.6423 -1.1509
   32MOL   H39615958   1.537   0.962   2.413 -1.1620  2.0665 -2.7567
   32MOL   H39715959   1.619   0.869   2.633 -0.4817  1.6956 -0.2884
   32MOL   H39815960   1.711   0.662   2.720 -1.3908 -0.3545  0.0981
   32MOL   H39915961   1.898   0.552   2.599  0.0804  0.2401 -0.2590
   32MOL   H40015962   1.935   0.609   2.371  1.4249  1.5045  0.8740
   32MOL   H40115963   1.833   0.813   2.267 -1.5736  2.1603  0.5121
   32MOL   C40215964   1.533   0.822   2.004  0.4260  0.8129  0.2026
   32MOL   C40315965   1.393   0.744   2.000 -0.2660 -0.2324  0.8976
   32MOL   C40415966   1.303   0.799   2.122 -0.2950  0.1420  0.2598
   32MOL   C40515967   1.416   0.595   2.033  0.1204  0.2117 -0.2787
   32MOL   O40615968   1.530   0.553   2.054 -0.0283 -0.5641  0.0715
   32MOL   O40715969   1.306   0.532   2.038  0.3192  0.1637 -0.0252
   32MOL   C40815970   1.305   0.397   2.063  0.3059  0.3335  0.4110
   32MOL   C40915971   1.169   0.340   2.018  0.6552 -0.0564 -0.5080
   32MOL   C41015972   1.154   0.208   1.976  0.1911  0.6902 -0.3776
   32MOL   C41115973   1.029   0.161   1.922 -0.7335 -0.1019 -0.4830
   32MOL   C41215974   0.919   0.250   1.921  0.2227  0.1489 -0.3255
   32MOL   C41315975   0.937   0.386   1.956 -0.1931 -0.2321 -0.0279
   32MOL   C41415976   1.059   0.431   2.006 -0.3582 -0.3459  0.2613
   32MOL   H41515977   1.587   0.780   2.088 -0.7125  0.7843  0.9388
   32MOL   H41615978   1.595   0.799   1.918 -0.4046  0.3464 -0.2808
   32MOL   H41715979   1.209   0.751   2.153 -0.3223 -1.0359 -1.5786
   32MOL   H41815980   1.272   0.902   2.106 -3.7712 -0.9407 -0.4146
   32MOL   H41915981   1.359   0.809   2.215  0.2449 -0.9628  0.0612
   32MOL   H42015982   1.380   0.333   2.017 -0.4227 -0.3776  0.2040
   32MOL   H42115983   1.309   0.374   2.170 -0.0886 -1.1357  0.1254
   32MOL   H42215984   1.233   0.134   1.977  0.4304  0.9498 -0.0716
   32MOL   H42315985   1.022   0.062   1.878 -0.4865 -0.1875 -0.3325
   32MOL   H42415986   0.823   0.209   1.892 -0.7706  1.4727  1.0401
   32MOL   H42515987   0.851   0.451   1.953  0.3264  0.4646  0.0182
   32MOL   H42615988   1.054   0.535   2.034 -1.7083  0.1079 -1.5958
   32MOL   C42715989   1.317   0.772   1.867 -0.0657  0.3774  0.3688
   32MOL   C42815990   1.355   0.715   1.722 -0.1147 -0.3268 -0.1293
   32MOL   C42915991   1.250   0.788   1.630  0.0896 -0.3864  0.0183
   32MOL   C43015992   1.326   0.564   1.706 -0.4779  0.0055  0.4182
   32MOL   O43115993   1.224   0.525   1.648 -0.0186  0.1322 -0.3695
   32MOL   O43215994   1.425   0.480   1.743 -0.0103 -0.8325  0.7838
   32MOL   C43315995   1.410   0.342   1.726 -0.1365  0.0122  0.2488
   32MOL   C43415996   1.499   0.255   1.816  0.0715 -1.1913  0.9806
   32MOL   C43515997   1.623   0.307   1.865 -0.1207  0.4966  0.2880
   32MOL   C43615998   1.709   0.222   1.946  0.4583 -0.3628  0.2233
   32MOL   C43715999   1.676   0.086   1.960 -0.4324  0.6578 -0.6803
   32MOL   C43816000   1.554   0.038   1.911 -0.3275 -0.6608 -0.5117
   32MOL   C43916001   1.464   0.125   1.846  0.0285  0.2754  0.1369
   32MOL   H44016002   1.288   0.877   1.865  1.7119  0.9449  2.5977
   32MOL   H44116003   1.226   0.718   1.891  1.2608 -0.5267  3.6266
   32MOL   H44216004   1.246   0.754   1.526  1.6892  0.1756 -0.2453
   32MOL   H44316005   1.273   0.894   1.636  0.0330 -0.4427  1.4311
   32MOL   H44416006   1.148   0.773   1.665 -0.5239  0.3369 -1.4405
   32MOL   H44516007   1.304   0.324   1.744 -0.0822 -0.1685  0.3767
   32MOL   H44616008   1.423   0.315   1.621 -1.2816 -2.1358  0.6366
   32MOL   H44716009   1.648   0.411   1.853 -1.1114  0.4708 -2.4162
   32MOL   H44816010   1.796   0.276   1.978  0.5532  0.1636 -0.9031
   32MOL   H44916011   1.751   0.019   2.000 -0.4635  1.9428  1.6162
   32MOL   H45016012   1.536   7.939   1.920  1.6874 -1.0470 -0.6749
   32MOL   H45116013   1.372   0.083   1.809  0.9621 -0.8032 -1.0256
   32MOL   C45216014   1.501   0.749   1.684 -0.6812 -0.0408  0.9345
   32MOL   C45316015   1.554   0.726   1.533 -0.3311  0.4834 -0.1841
   32MOL   C45416016   1.495   0.605   1.459 -0.1736 -0.5883 -0.1115
   32MOL   C45516017   1.707   0.703   1.547 -0.3557 -0.5484 -0.6982
   32MOL   O45616018   1.762   0.602   1.504  0.0650 -0.1755  0.3816
   32MOL   O45716019   1.771   0.807   1.609 -0.6831  0.4356 -0.3102
   32MOL   C45816020   1.908   0.801   1.638  0.5895  0.4914  0.0683
   32MOL   C45916021   1.937   0.751   1.778  0.1489 -0.2310  0.6359
   32MOL   C46016022   2.038   0.820   1.852  0.2155 -0.7545  0.8404
   32MOL   C46116023   2.075   0.779   1.975  0.4938  0.3165 -0.1698
   32MOL   C46216024   2.025   0.664   2.034  0.6837  1.2243  0.1774
   32MOL   C46316025   1.933   0.584   1.955 -0.7113  0.4941 -0.5280
   32MOL   C46416026   1.883   0.632   1.832 -1.0928  0.6620  0.3167
   32MOL   H46516027   1.560   0.681   1.745  0.8961  0.1874 -0.3256
   32MOL   H46616028   1.540   0.846   1.717  1.3574 -0.4899 -0.0839
   32MOL   H46716029   1.390   0.621   1.433  0.0841 -1.8320 -1.9787
   32MOL   H46816030   1.500   0.514   1.519  1.7511  0.1929  0.9590
   32MOL   H46916031   1.538   0.586   1.361 -0.8784 -0.6743 -0.4101
   32MOL   H47016032   1.953   0.740   1.560  2.5754  0.2978  1.3324
   32MOL   H47116033   1.954   0.899   1.628 -0.1155  0.9112  0.8164
   32MOL   H47216034   2.066   0.915   1.808 -2.5866 -0.3941 -0.2809
   32MOL   H47316035   2.141   0.838   2.038 -0.4700  1.6461 -0.3846
   32MOL   H47416036   2.058   0.619   2.127 -2.4953  1.1351  1.3330
   32MOL   H47516037   1.878   0.497   1.988 -0.7472  0.4943 -0.5857
   32MOL   H47616038   1.810   0.569   1.784 -2.2511  1.6224  0.7803
   32MOL   C47716039   1.532   0.857   1.451 -0.5315  0.2061  0.3560
   32MOL   C47816040   1.564   0.867   1.297 -0.2240  0.6981 -0.0038
   32MOL   C47916041   1.687   0.956   1.283  0.5521 -0.0944  0.3679
   32MOL   C48016042   1.446   0.906   1.209  0.6639  0.2400 -0.3054
   32MOL   O48116043   1.381   0.823   1.142  0.5259 -0.2806 -0.6860
   32MOL   O48216044   1.418   1.035   1.211  0.2492 -0.3203 -0.4946
   32MOL   C48316045   1.294   1.085   1.163  0.3123 -0.0791  0.1608
   32MOL   C48416046   1.308   1.238   1.149  0.0447  0.2651  0.2926
   32MOL   C48516047   1.370   1.293   1.033 -0.8238  0.4406  0.6096
   32MOL   C48616048   1.375   1.432   1.016 -0.3230 -1.2693  0.6328
   32MOL   C48716049   1.310   1.517   1.113  0.3562  0.1313  0.4198
   32MOL   C48816050   1.251   1.460   1.229 -0.1451 -0.1493  0.3000
   32MOL   C48916051   1.254   1.320   1.249 -0.5844  0.3402 -0.0928
   32MOL   H49016052   1.578   0.942   1.502  1.0558 -1.1497  1.2371
   32MOL   H49116053   1.428   0.882   1.470 -0.9189  0.0900 -1.5037
   32MOL   H49216054   1.720   0.952   1.179 -1.7112  2.0793 -0.5056
   32MOL   H49316055   1.763   0.930   1.357  0.2874 -3.5211 -0.4488
   32MOL   H49416056   1.666   1.061   1.302 -0.7512 -0.2925  0.1389
   32MOL   H49516057   1.285   1.029   1.069 -3.1591  1.5045 -0.5277
   32MOL   H49616058   1.212   1.048   1.224 -1.0122  1.7396 -0.4737
   32MOL   H49716059   1.425   1.222   0.973 -0.0772  1.4225  0.1180
   32MOL   H49816060   1.413   1.478   0.926 -2.6018  2.0111  1.2598
   32MOL   H49916061   1.313   1.624   1.105  1.1373  0.2205  1.6617
   32MOL   H50016062   1.213   1.524   1.307  0.2444  0.5186 -0.0482
   32MOL   H50116063   1.202   1.282   1.335  1.0976 -0.9478  0.3686
   32MOL   H50216064   1.575   0.763   1.264 -0.3301  0.7352 -0.1590
   33MOL     C116065   6.085   0.509   4.724  0.1146 -0.7656  0.5001
   33MOL     C216066   5.976   0.405   4.743  1.1008 -0.6259 -0.5094
   33MOL     C316067   5.958   0.335   4.604  0.3206  0.5731  0.2952
   33MOL     C416068   5.840   0.469   4.779 -0.7675  0.2362 -1.3310
   33MOL     O516069   5.769   0.417   4.864 -0.0748 -0.3676 -0.7327
   33MOL     O616070   5.799   0.573   4.702 -0.0940 -0.0987 -0.1550
   33MOL     C716071   5.661   0.609   4.710 -0.3591  0.0166  0.0120
   33MOL     C816072   5.627   0.751   4.659 -0.6428  0.1745  0.1329
   33MOL     C916073   5.707   0.812   4.565  0.4434  0.7430 -0.0950
   33MOL    C1016074   5.687   0.949   4.543  0.3549  0.4402 -0.4626
   33MOL    C1116075   5.581   1.019   4.610 -0.2552 -0.2073 -0.3333
   33MOL    C1216076   5.493   0.952   4.689  0.3927 -0.1463  0.1303
   33MOL    C1316077   5.518   0.813   4.715  0.4647  0.0430 -0.6996
   33MOL    H1416078   6.092   0.564   4.817 -2.3110  1.8513 -0.7818
   33MOL    H1516079   6.182   0.464   4.703  0.0225 -0.6649 -0.1594
   33MOL    H1616080   5.864   0.280   4.596  0.8393 -0.2760  0.0153
   33MOL    H1716081   6.041   0.269   4.585  0.2885  1.0024 -1.4155
   33MOL    H1816082   5.951   0.405   4.521  0.4175 -1.2596 -1.2812
   33MOL    H1916083   5.589   0.534   4.676  0.5980  0.0149 -2.0861
   33MOL    H2016084   5.636   0.617   4.816  0.8045  1.8986  0.1683
   33MOL    H2116085   5.793   0.765   4.519 -0.9042  0.5716 -2.5208
   33MOL    H2216086   5.761   0.996   4.480  1.2408 -0.3968 -0.0594
   33MOL    H2316087   5.585   1.126   4.603  1.3291 -0.2022  0.2867
   33MOL    H2416088   5.415   0.997   4.750 -0.5299  0.9331 -1.7884
   33MOL    H2516089   5.460   0.770   4.795  2.2126  1.1432  1.2144
   33MOL    H2616090   6.064   0.577   4.641  0.4680 -0.8914  0.3027
   33MOL    C2716091   6.017   0.283   4.844 -0.0049  0.0364 -0.4004
   33MOL    C2816092   6.078   0.291   4.988  0.4579  0.5422 -0.4133
   33MOL    C2916093   5.995   0.390   5.077 -0.2071  0.2344  0.9610
   33MOL    C3016094   6.224   0.334   4.966 -0.0643  0.3883  0.7866
   33MOL    O3116095   6.285   0.298   4.863  0.4796 -0.1340  0.0435
   33MOL    O3216096   6.271   0.402   5.068 -0.8028  0.1391  0.6239
   33MOL    C3316097   6.412   0.414   5.078  0.3069  0.1178 -0.1226
   33MOL    C3416098   6.453   0.487   5.197 -0.2907  0.0725 -0.4247
   33MOL    C3516099   6.503   0.423   5.313 -0.4839  0.6257  0.3620
   33MOL    C3616100   6.546   0.492   5.421 -1.1816  0.3769 -0.5167
   33MOL    C3716101   6.546   0.636   5.417  0.0542  0.4652  0.1152
   33MOL    C3816102   6.509   0.703   5.299  0.0485 -0.5011 -0.4285
   33MOL    C3916103   6.454   0.630   5.193 -0.4264  0.2802 -0.4536
   33MOL    H4016104   6.072   0.203   4.794  0.4506  0.2053 -0.1706
   33MOL    H4116105   5.924   0.227   4.846  0.3052 -0.5347 -1.3797
   33MOL    H4216106   5.894   0.352   5.087 -0.0288 -0.2193  1.0311
   33MOL    H4316107   5.992   0.488   5.030  3.1101  0.5606  1.2716
   33MOL    H4416108   6.056   0.405   5.166  1.8885 -0.8897 -0.2395
   33MOL    H4516109   6.461   0.316   5.079  2.5965  1.2329 -0.1792
   33MOL    H4616110   6.449   0.470   4.992 -0.6210 -0.6573 -1.0472
   33MOL    H4716111   6.500   0.315   5.310 -1.4571  0.6763 -0.5845
   33MOL    H4816112   6.577   0.438   5.509 -0.8323  2.6148  0.7761
   33MOL    H4916113   6.582   0.692   5.502 -0.4119  1.9725 -0.6585
   33MOL    H5016114   6.520   0.811   5.297 -0.6806 -0.3684  1.6739
   33MOL    H5116115   6.421   0.669   5.098  0.1173 -1.0448 -1.2058
   33MOL    C5216116   6.052   0.147   5.047 -0.2251 -0.7588  0.4401
   33MOL    C5316117   6.132   0.090   5.180 -0.3335  0.3198 -0.3793
   33MOL    C5416118   6.100   0.186   5.300  0.6457  0.6698 -0.1064
   33MOL    C5516119   6.278   0.081   5.153  0.0545 -0.3865  0.1809
   33MOL    O5616120   6.363   0.114   5.231 -0.4388 -0.2496 -0.4874
   33MOL    O5716121   6.303   0.030   5.032 -0.5847  0.7012  0.3021
   33MOL    C5816122   6.437   0.020   4.981  0.2653  0.4026  0.2484
   33MOL    C5916123   6.433   7.927   4.865  0.0954 -0.0094 -0.8098
   33MOL    C6016124   6.532   7.826   4.867 -0.6067  0.1202 -0.2561
   33MOL    C6116125   6.543   7.737   4.766  0.0787  0.2122 -0.0653
   33MOL    C6216126   6.455   7.739   4.661  0.3690 -0.0708  0.1941
   33MOL    C6316127   6.366   7.847   4.643 -0.0895  1.1947 -0.6053
   33MOL    C6416128   6.356   7.944   4.747 -0.2877  0.5333 -0.3192
   33MOL    H6516129   6.067   0.083   4.960  0.8247 -0.7770  0.6315
   33MOL    H6616130   5.943   0.142   5.057 -0.5080  1.3946 -1.1741
   33MOL    H6716131   5.994   0.207   5.316 -0.0318 -0.4894 -2.7846
   33MOL    H6816132   6.157   0.278   5.284 -0.9690  1.1722 -3.3580
   33MOL    H6916133   6.130   0.152   5.400  1.4745  0.4705 -0.4183
   33MOL    H7016134   6.478   0.117   4.953  1.6220 -0.4410 -0.7480
   33MOL    H7116135   6.494   7.975   5.058 -1.0817  0.1135  1.0842
   33MOL    H7216136   6.601   7.817   4.950 -1.3927 -2.9266  0.1406
   33MOL    H7316137   6.611   7.653   4.778  1.6976  1.7102  1.4930
   33MOL    H7416138   6.465   7.663   4.584 -1.1165 -1.9414  1.7877
   33MOL    H7516139   6.320   7.868   4.548  0.7999  2.7858 -0.6932
   33MOL    H7616140   6.296   0.025   4.731 -1.9865 -0.7613 -1.1996
   33MOL    C7716141   6.075   7.954   5.213 -0.0203 -0.0992  0.1708
   33MOL    C7816142   6.137   7.847   5.316  0.2558  0.3489 -1.0395
   33MOL    C7916143   6.023   7.744   5.331  1.0391  1.0865  0.1832
   33MOL    C8016144   6.158   7.909   5.459 -0.3405  0.1114  0.3998
   33MOL    O8116145   6.091   7.871   5.554  0.2969 -0.4572  0.2176
   33MOL    O8216146   6.264   7.992   5.466 -0.4019 -0.2526  0.0250
   33MOL    C8316147   6.290   0.050   5.597  0.0696  0.4717  0.1871
   33MOL    C8416148   6.435   0.080   5.620 -0.1329 -0.1170 -0.6090
   33MOL    C8516149   6.530   0.079   5.514  0.2615  0.1892 -0.0406
   33MOL    C8616150   6.657   0.136   5.528  0.4712 -0.5961  0.3685
   33MOL    C8716151   6.693   0.198   5.647  0.5651 -0.4227 -0.0311
   33MOL    C8816152   6.605   0.197   5.754 -0.6845  0.3375 -0.1054
   33MOL    C8916153   6.481   0.135   5.748 -0.2785 -0.1258 -0.1560
   33MOL    H9016154   6.058   7.891   5.125 -2.5572  0.1948  0.4247
   33MOL    H9116155   5.975   7.982   5.247 -0.9181 -1.2317 -1.4329
   33MOL    H9216156   5.976   7.690   5.249  1.3684 -1.7720  1.8033
   33MOL    H9316157   5.937   7.784   5.384  0.3452 -2.3360  1.8380
   33MOL    H9416158   6.048   7.666   5.403 -0.2989 -0.9802 -1.5441
   33MOL    H9516159   6.227   0.138   5.613  0.1899  0.6373 -0.2180
   33MOL    H9616160   6.262   7.984   5.673  0.4055 -2.3806 -2.3469
   33MOL    H9716161   6.511   0.026   5.422 -1.5381 -1.1388  1.0603
   33MOL    H9816162   6.729   0.141   5.449  0.9920 -0.0834  0.8711
   33MOL    H9916163   6.788   0.248   5.654 -0.2254  1.1061 -0.0175
   33MOL   H10016164   6.637   0.248   5.844  2.1326 -1.5648  0.0322
   33MOL   H10116165   6.411   0.131   5.830 -3.4854 -1.6768 -2.8242
   33MOL   C10216166   6.277   7.794   5.264 -0.2278 -0.6855  0.4511
   33MOL   C10316167   6.333   7.645   5.275 -0.0542 -0.1006 -0.3228
   33MOL   C10416168   6.469   7.651   5.196 -0.7272 -0.1033  0.2011
   33MOL   C10516169   6.235   7.544   5.194  0.0755 -0.4661  0.4652
   33MOL   O10616170   6.162   7.453   5.242 -0.4802  0.3718 -0.5484
   33MOL   O10716171   6.240   7.577   5.061 -0.2362  0.0621  0.0437
   33MOL   C10816172   6.161   7.513   4.969 -0.0985  0.0611  0.2150
   33MOL   C10916173   6.029   7.590   4.950 -0.0312 -0.5450  0.2570
   33MOL   C11016174   5.906   7.545   5.002  0.2811 -0.0781  0.8107
   33MOL   C11116175   5.787   7.624   4.986  0.1682  0.6900 -0.3800
   33MOL   C11216176   5.797   7.753   4.922 -0.0635 -0.4841 -0.4903
   33MOL   C11316177   5.921   7.803   4.885 -0.0313  0.2391 -0.1012
   33MOL   C11416178   6.037   7.717   4.892  0.1641  0.5110  0.1993
   33MOL   H11516179   6.354   7.860   5.304 -0.5879  0.4950 -0.7624
   33MOL   H11616180   6.268   7.805   5.156 -0.7362 -3.3229  0.1980
   33MOL   H11716181   6.532   7.562   5.190 -0.5163  0.0421  0.2552
   33MOL   H11816182   6.528   7.733   5.236 -0.2947  0.9826 -2.5424
   33MOL   H11916183   6.455   7.678   5.091  1.9837  1.1393  0.1396
   33MOL   H12016184   6.213   7.514   4.873  1.0631 -0.2219  0.8325
   33MOL   H12116185   6.129   7.410   4.983  1.2806 -0.7398 -2.1708
   33MOL   H12216186   5.905   7.444   5.041  0.4539 -0.7132 -0.8240
   33MOL   H12316187   5.693   7.579   5.011  0.2150  0.2969 -0.8895
   33MOL   H12416188   5.715   7.818   4.896  0.1126 -0.2149 -0.3711
   33MOL   H12516189   5.934   7.901   4.842  0.1084 -0.6044 -2.0348
   33MOL   H12616190   6.133   7.759   4.867  0.3644  0.6876  1.2704
   33MOL   C12716191   6.347   7.610   5.429  0.3854  1.1909  0.3417
   33MOL   C12816192   6.465   7.512   5.485  0.9110  0.4675  0.0697
   33MOL   C12916193   6.594   7.594   5.504 -0.2909  0.8712  0.1621
   33MOL   C13016194   6.483   7.389   5.388 -0.4289  0.5797  0.2844
   33MOL   O13116195   6.587   7.365   5.327 -0.0994  1.1124 -0.1645
   33MOL   O13216196   6.369   7.316   5.387  0.4020  0.1519 -0.0800
   33MOL   C13316197   6.365   7.199   5.306 -0.3226 -0.3046  0.0714
   33MOL   C13416198   6.233   7.122   5.346 -0.9406 -0.1777  0.0709
   33MOL   C13516199   6.214   7.077   5.478  0.8191  0.5333 -0.2477
   33MOL   C13616200   6.098   6.997   5.511  0.0665  0.0842  0.1050
   33MOL   C13716201   6.002   6.986   5.406  0.7822 -0.4520 -0.2427
   33MOL   C13816202   6.017   7.029   5.278 -0.2041  0.3187  0.2932
   33MOL   C13916203   6.135   7.099   5.245 -0.0628  0.2265  0.3250
   33MOL   H14016204   6.252   7.568   5.462 -0.2307  1.4769 -1.0527
   33MOL   H14116205   6.355   7.700   5.489 -0.8962  1.7720 -0.3338
   33MOL   H14216206   6.640   7.630   5.412 -1.0230 -0.8994 -0.9267
   33MOL   H14316207   6.674   7.528   5.538 -0.2492  0.1268 -1.3239
   33MOL   H14416208   6.575   7.675   5.574 -1.9612  0.0488  0.6941
   33MOL   H14516209   6.343   7.232   5.204 -0.7478 -0.5233  0.0919
   33MOL   H14616210   6.453   7.137   5.322 -0.5591 -0.7351 -0.2795
   33MOL   H14716211   6.293   7.105   5.545  0.2379  0.6607  0.3823
   33MOL   H14816212   6.074   6.976   5.614  1.2405 -0.0813  0.3486
   33MOL   H14916213   5.913   6.926   5.417  2.0933 -2.3751  0.1553
   33MOL   H15016214   5.945   7.008   5.200  0.1547 -0.5345  0.1941
   33MOL   H15116215   6.158   7.124   5.142  0.5108  0.2836  0.4611
   33MOL   C15216216   6.411   7.482   5.631 -0.0153  0.4071 -1.1705
   33MOL   C15316217   6.485   7.411   5.745 -0.4464  0.5457 -0.0269
   33MOL   C15416218   6.555   7.518   5.832 -0.5978  0.3563  0.5244
   33MOL   C15516219   6.577   7.297   5.695 -0.3012  0.0139  0.5669
   33MOL   O15616220   6.530   7.195   5.648 -0.4847 -0.1272 -0.0608
   33MOL   O15716221   6.704   7.327   5.693 -0.3114 -0.1932 -0.0316
   33MOL   C15816222   6.796   7.254   5.614 -0.1905 -0.3314 -0.0840
   33MOL   C15916223   6.886   7.339   5.526 -0.0397 -0.4550  0.3152
   33MOL   C16016224   6.926   7.282   5.401  0.2318 -0.0308 -0.4857
   33MOL   C16116225   7.010   7.349   5.317 -0.1727  0.3126 -0.4691
   33MOL   C16216226   7.057   7.477   5.354  0.8001  0.1339 -0.3516
   33MOL   C16316227   7.020   7.532   5.480  0.2667 -0.1164  0.1500
   33MOL   C16416228   6.925   7.467   5.563  0.6309  0.3074 -0.0739
   33MOL   H16516229   6.326   7.418   5.607 -0.6194  1.5372 -2.0939
   33MOL   H16616230   6.372   7.575   5.673 -0.3173 -0.3215  0.2017
   33MOL   H16716231   6.485   7.577   5.891 -1.1311 -2.3817  2.7211
   33MOL   H16816232   6.615   7.580   5.766  1.2496 -3.7608 -1.9029
   33MOL   H16916233   6.629   7.471   5.897  1.3159  1.7699 -0.5662
   33MOL   H17016234   6.866   7.203   5.680  0.6024  2.8624  1.6727
   33MOL   H17116235   6.742   7.184   5.552  0.5871  2.2054 -3.8190
   33MOL   H17216236   6.900   7.179   5.381 -0.3367  0.4226 -2.1879
   33MOL   H17316237   7.038   7.306   5.222  1.3143  0.3738 -0.0672
   33MOL   H17416238   7.120   7.534   5.287 -2.0588  1.1621 -2.2191
   33MOL   H17516239   7.054   7.631   5.505 -1.1745  0.6111 -0.7429
   33MOL   H17616240   6.904   7.500   5.664 -0.8092 -0.9529  0.0460
   33MOL   C17716241   6.374   7.331   5.833 -0.7766  1.1169 -0.1981
   33MOL   C17816242   6.398   7.290   5.981 -0.5125  0.1385 -0.0943
   33MOL   C17916243   6.526   7.200   5.986  0.6384 -0.4354  0.3259
   33MOL   C18016244   6.284   7.198   6.023  0.0276  0.5814 -0.2428
   33MOL   O18116245   6.308   7.084   6.066  0.1101 -0.4981  0.1293
   33MOL   O18216246   6.163   7.258   6.006 -0.6288  0.1158 -0.3179
   33MOL   C18316247   6.048   7.211   6.066  0.1291 -0.1058  0.3237
   33MOL   C18416248   5.972   7.121   5.980  0.1774 -1.0994  0.1503
   33MOL   C18516249   5.991   6.985   6.000 -0.4475  0.0872  0.2016
   33MOL   C18616250   5.934   6.892   5.908 -0.1267 -0.3054 -0.4172
   33MOL   C18716251   5.849   6.940   5.806  0.3905  0.2421 -0.2653
   33MOL   C18816252   5.824   7.074   5.794 -0.2993  0.0357 -0.3197
   33MOL   C18916253   5.885   7.169   5.876 -0.4010  0.3795  0.1664
   33MOL   H19016254   6.335   7.243   5.781 -1.0701  0.2090  1.5341
   33MOL   H19116255   6.284   7.392   5.836 -0.9064  0.9842 -1.1262
   33MOL   H19216256   6.525   7.132   6.072 -1.2422  0.2385  0.8529
   33MOL   H19316257   6.614   7.264   5.996  0.4156 -0.0899  0.0749
   33MOL   H19416258   6.539   7.130   5.903  2.1522  1.4533 -1.0749
   33MOL   H19516259   6.068   7.169   6.165  2.6056 -0.4604 -0.2940
   33MOL   H19616260   5.973   7.289   6.081  1.8970  1.4220  1.4877
   33MOL   H19716261   6.052   6.950   6.082 -2.1911  0.9132  1.8810
   33MOL   H19816262   5.957   6.788   5.925 -2.7937 -0.8756 -0.1091
   33MOL   H19916263   5.787   6.880   5.741 -0.5824  1.9800 -0.9913
   33MOL   H20016264   5.768   7.109   5.708  1.3080 -2.7284 -2.5635
   33MOL   H20116265   5.880   7.274   5.853 -0.5672  0.4837  0.6865
   33MOL   C20216266   6.417   7.418   6.075 -0.0143 -0.2943 -0.5077
   33MOL   C20316267   6.417   7.407   6.234 -0.2908 -0.2107  0.1765
   33MOL   C20416268   6.268   7.385   6.286 -0.1077 -0.1034 -0.8239
   33MOL   C20516269   6.457   7.550   6.289  0.0148  0.5393  0.1994
   33MOL   O20616270   6.377   7.633   6.336  0.0208  0.1176  0.4686
   33MOL   O20716271   6.586   7.585   6.260 -1.1124  0.5164  0.2169
   33MOL   C20816272   6.638   7.718   6.267  0.6800  0.7614 -0.3644
   33MOL   C20916273   6.685   7.770   6.133  0.4961 -0.5585  0.0517
   33MOL   C21016274   6.594   7.846   6.051  0.3956 -0.6127  0.4716
   33MOL   C21116275   6.627   7.881   5.918 -0.0079  0.3679 -0.1201
   33MOL   C21216276   6.755   7.848   5.869  0.2570 -0.2910  0.6551
   33MOL   C21316277   6.843   7.785   5.953 -0.3900 -0.1175 -0.5621
   33MOL   C21416278   6.806   7.741   6.080 -0.1072 -0.7589 -0.5700
   33MOL   H21516279   6.338   7.491   6.058  0.0957  0.1740  0.8913
   33MOL   H21616280   6.514   7.466   6.062  0.1635 -0.1652  1.1453
   33MOL   H21716281   6.202   7.459   6.240  0.7723  0.9662 -0.3690
   33MOL   H21816282   6.254   7.410   6.391  1.5605  0.9810 -0.8501
   33MOL   H21916283   6.229   7.284   6.269  0.4760 -0.7107  1.3839
   33MOL   H22016284   6.569   7.795   6.302 -0.7045  0.0826 -1.5481
   33MOL   H22116285   6.716   7.718   6.343  0.6848 -1.7327 -0.3465
   33MOL   H22216286   6.504   7.883   6.097  0.7485 -1.4204  1.8331
   33MOL   H22316287   6.562   7.923   5.843  0.1313 -0.1931 -0.5616
   33MOL   H22416288   6.780   7.869   5.766 -1.8850 -0.6374  0.0321
   33MOL   H22516289   6.944   7.760   5.922  0.2220  1.0021  0.4856
   33MOL   H22616290   6.874   7.676   6.132 -0.8287 -1.1400 -0.1003
   33MOL   C22716291   6.512   7.293   6.287 -0.4940  0.3602 -0.1610
   33MOL   C22816292   6.579   7.291   6.432  0.3912 -0.2593 -0.4076
   33MOL   C22916293   6.486   7.336   6.542 -0.4429  0.1041 -0.0507
   33MOL   C23016294   6.709   7.377   6.434 -0.8937  0.5924 -0.6694
   33MOL   O23116295   6.725   7.470   6.515  0.0725  1.0860  0.4576
   33MOL   O23216296   6.798   7.334   6.336  0.4014  0.0659 -0.1266
   33MOL   C23316297   6.932   7.376   6.327 -0.0139  0.3041 -0.9038
   33MOL   C23416298   6.971   7.396   6.183  0.1697 -0.0383  0.3117
   33MOL   C23516299   7.111   7.399   6.147 -0.3932  0.7817  0.0700
   33MOL   C23616300   7.149   7.421   6.009 -0.7107  0.9569  0.2842
   33MOL   C23716301   7.061   7.452   5.903  0.5660 -0.3180 -0.2278
   33MOL   C23816302   6.931   7.439   5.944 -0.0515 -0.0390 -0.6141
   33MOL   C23916303   6.884   7.410   6.075  0.3264 -0.3774 -0.1336
   33MOL   H24016304   6.597   7.304   6.219 -0.3006  1.1432  0.2042
   33MOL   H24116305   6.470   7.197   6.256 -1.2913  0.6425  0.0523
   33MOL   H24216306   6.452   7.436   6.514 -0.1418  0.1732 -0.1670
   33MOL   H24316307   6.535   7.353   6.637  1.9742  0.3634 -1.3114
   33MOL   H24416308   6.392   7.282   6.554 -0.9889  1.2810  1.0208
   33MOL   H24516309   6.938   7.470   6.382 -0.8949 -0.8670  1.2877
   33MOL   H24616310   6.998   7.314   6.388  0.0795 -0.3873 -1.6922
   33MOL   H24716311   7.189   7.392   6.222 -2.1476  2.2320  2.0735
   33MOL   H24816312   7.253   7.415   5.983 -1.1799  2.4318 -2.1309
   33MOL   H24916313   7.100   7.481   5.806  0.3550 -0.0939 -0.2458
   33MOL   H25016314   6.854   7.454   5.871 -0.4357  1.5289  0.1042
   33MOL   H25116315   6.776   7.405   6.085  0.3628 -3.6213 -0.6294
   33MOL   C25216316   6.621   7.136   6.455 -0.1157  0.2787 -0.7667
   33MOL   C25316317   6.657   7.076   6.603  0.1138 -0.3571  0.2024
   33MOL   C25416318   6.522   7.072   6.674  0.0526  0.3563 -0.3915
   33MOL   C25516319   6.768   7.166   6.673  0.8135  0.3198  0.3267
   33MOL   O25616320   6.877   7.183   6.617  0.3040 -0.3016  0.3789
   33MOL   O25716321   6.747   7.189   6.800 -0.1504 -0.2654  0.0910
   33MOL   C25816322   6.850   7.245   6.881  0.0572  0.1788 -0.5567
   33MOL   C25916323   6.883   7.392   6.861  0.5296  0.2594 -0.4655
   33MOL   C26016324   6.795   7.487   6.913  0.9059  0.3283  0.1379
   33MOL   C26116325   6.830   7.627   6.914  0.8651 -0.1366  0.1431
   33MOL   C26216326   6.946   7.674   6.849 -0.0894  0.0023  0.1714
   33MOL   C26316327   7.036   7.581   6.794  0.4877  0.0553 -0.8005
   33MOL   C26416328   6.999   7.440   6.792 -0.2803  0.3409  0.6183
   33MOL   H26516329   6.710   7.111   6.397  0.9674  2.2526 -0.0208
   33MOL   H26616330   6.541   7.076   6.414  1.1498 -1.1640 -1.1801
   33MOL   H26716331   6.435   7.063   6.608  1.9730 -3.1617 -2.6184
   33MOL   H26816332   6.503   7.153   6.744  0.3225 -0.6263  0.8348
   33MOL   H26916333   6.517   6.980   6.733 -0.6937  0.4923 -0.2345
   33MOL   H27016334   6.818   7.243   6.986 -1.2648 -1.0378 -0.9674
   33MOL   H27116335   6.942   7.190   6.864  0.1260  1.0551 -3.2357
   33MOL   H27216336   6.702   7.453   6.957  1.9348 -0.3995  1.8156
   33MOL   H27316337   6.759   7.697   6.954  0.3878 -0.5527  0.0339
   33MOL   H27416338   6.966   7.780   6.853 -1.0197  0.2633 -1.4654
   33MOL   H27516339   7.123   7.626   6.750  0.1018  1.4970 -0.1190
   33MOL   H27616340   7.051   7.371   6.727 -0.8225 -0.5729  1.1298
   33MOL   C27716341   6.713   6.930   6.591 -0.2249 -1.0218 -0.1608
   33MOL   C27816342   6.787   6.837   6.700  0.4093  0.1428 -0.3340
   33MOL   C27916343   6.703   6.843   6.833  0.7233 -0.1268 -0.6860
   33MOL   C28016344   6.928   6.907   6.719 -0.4187  0.1066  0.1402
   33MOL   O28116345   6.972   6.937   6.831  0.2063  0.1437  0.6029
   33MOL   O28216346   7.006   6.928   6.608 -0.5269 -0.1071 -0.2762
   33MOL   C28316347   7.124   7.002   6.616  0.2575  0.4156  0.3584
   33MOL   C28416348   7.233   6.925   6.546  0.5382  0.6756  0.2323
   33MOL   C28516349   7.353   6.999   6.525  0.2917 -0.2497 -0.0067
   33MOL   C28616350   7.457   6.939   6.452 -0.8040  0.3050 -0.2456
   33MOL   C28716351   7.448   6.801   6.408  0.0628 -0.4419  0.2519
   33MOL   C28816352   7.327   6.736   6.434 -0.4751 -0.2442 -0.3317
   33MOL   C28916353   7.220   6.790   6.495  0.3281 -0.2257 -0.3230
   33MOL   H29016354   6.780   6.922   6.505  0.3723  0.4007  0.1731
   33MOL   H29116355   6.629   6.867   6.559  0.8518 -1.7438 -1.6830
   33MOL   H29216356   6.760   6.794   6.912 -0.5575 -0.2406  0.1850
   33MOL   H29316357   6.608   6.792   6.820  1.2097 -0.6759 -2.1747
   33MOL   H29416358   6.693   6.943   6.874  1.7729  0.2506 -1.3467
   33MOL   H29516359   7.115   7.100   6.570  0.2500  0.8343  1.2540
   33MOL   H29616360   7.158   7.005   6.719  0.2949 -0.8222  0.3976
   33MOL   H29716361   7.366   7.103   6.551  3.4741 -0.2249 -1.5876
   33MOL   H29816362   7.553   6.984   6.434 -0.4657  0.2572  1.3673
   33MOL   H29916363   7.522   6.753   6.346  0.8872 -0.2560  1.0650
   33MOL   H30016364   7.313   6.634   6.402  0.1780 -0.5395  0.3203
   33MOL   H30116365   7.132   6.727   6.500  0.4366 -0.3919 -0.4657
   33MOL   C30216366   6.806   6.687   6.632 -0.4580  0.1882 -0.7737
   33MOL   C30316367   6.869   6.566   6.716 -0.7073  0.3853 -0.4024
   33MOL   C30416368   6.893   6.468   6.595 -0.4376 -0.0835  0.1956
   33MOL   C30516369   6.761   6.515   6.818 -0.1334  0.4837  1.4110
   33MOL   O30616370   6.779   6.505   6.939  0.2957  0.8909  0.3034
   33MOL   O30716371   6.647   6.469   6.759  0.2234  0.5818 -0.2443
   33MOL   C30816372   6.533   6.457   6.845 -0.5884  0.4556  0.3258
   33MOL   C30916373   6.413   6.404   6.770  0.5919 -0.3206  0.1740
   33MOL   C31016374   6.295   6.486   6.755  0.3862  0.0836 -0.9236
   33MOL   C31116375   6.185   6.439   6.689 -0.4056  0.0202 -0.1600
   33MOL   C31216376   6.184   6.306   6.629  0.6074 -0.0978 -0.2232
   33MOL   C31316377   6.296   6.218   6.661 -0.0020 -0.1643  0.4697
   33MOL   C31416378   6.407   6.272   6.728  1.1216 -0.2063 -0.1502
   33MOL   H31516379   6.876   6.706   6.551 -0.2003 -1.6591 -1.0075
   33MOL   H31616380   6.713   6.655   6.586 -2.2324  1.6819  1.6300
   33MOL   H31716381   6.908   6.366   6.630  1.2065  0.0261 -0.1638
   33MOL   H31816382   6.978   6.504   6.538 -0.5391 -0.0493  0.0672
   33MOL   H31916383   6.807   6.454   6.530 -0.1444 -1.0461  0.0097
   33MOL   H32016384   6.563   6.388   6.924 -1.7502 -0.9949 -0.4614
   33MOL   H32116385   6.513   6.548   6.901  0.0559  0.2988  0.8050
   33MOL   H32216386   6.290   6.586   6.794 -0.1815  0.2172 -1.3290
   33MOL   H32316387   6.097   6.501   6.694 -0.6007 -0.3137  0.7096
   33MOL   H32416388   6.100   6.275   6.570  2.1361 -0.4926 -2.2537
   33MOL   H32516389   6.303   6.117   6.624 -2.1583 -0.3059  0.3941
   33MOL   H32616390   6.499   6.216   6.731  1.1646 -0.0757  1.0172
   33MOL   C32716391   7.000   6.594   6.789 -0.3919 -0.6901  0.7091
   33MOL   C32816392   7.109   6.478   6.835 -0.0497 -0.1753 -0.6350
   33MOL   C32916393   7.055   6.338   6.866 -0.2619 -0.2716  0.5800
   33MOL   C33016394   7.162   6.536   6.970  0.6153 -0.5363 -0.3740
   33MOL   O33116395   7.138   6.482   7.083 -0.3795  0.6291  0.0180
   33MOL   O33216396   7.208   6.662   6.954  0.2407  0.0058 -1.0678
   33MOL   C33316397   7.242   6.751   7.067 -0.0531 -0.1405 -1.0469
   33MOL   C33416398   7.265   6.893   7.025 -0.5846  0.6687 -0.1642
   33MOL   C33516399   7.231   6.998   7.107  0.0593  0.1268  0.5112
   33MOL   C33616400   7.252   7.131   7.071  0.5170  0.7082 -0.2312
   33MOL   C33716401   7.330   7.158   6.952 -0.0102 -0.5857  0.1783
   33MOL   C33816402   7.362   7.054   6.867 -0.2793 -0.2897  0.1129
   33MOL   C33916403   7.327   6.923   6.907  0.6899  0.1751  0.1439
   33MOL   H34016404   6.982   6.659   6.874  1.1636  1.0905 -0.2924
   33MOL   H34116405   7.058   6.671   6.738  1.5392 -2.5205  0.0699
   33MOL   H34216406   6.968   6.341   6.932  0.7208 -2.5909  2.0535
   33MOL   H34316407   7.125   6.286   6.931 -1.9820 -1.9033  1.1779
   33MOL   H34416408   7.042   6.261   6.790 -1.7748 -0.8426  1.3994
   33MOL   H34516409   7.169   6.747   7.148  0.1084  0.8241 -0.8428
   33MOL   H34616410   7.331   6.717   7.121 -0.9804 -2.7575 -1.0878
   33MOL   H34716411   7.197   6.979   7.207 -0.3008  1.5092  0.6658
   33MOL   H34816412   7.218   7.209   7.137  1.7906  0.8286  0.2775
   33MOL   H34916413   7.356   7.261   6.929 -0.6463 -0.6810 -1.0364
   33MOL   H35016414   7.418   7.069   6.776 -0.3541  0.3826  0.1781
   33MOL   H35116415   7.346   6.845   6.834 -1.3401 -0.7321  0.5300
   33MOL   C35216416   7.218   6.479   6.717  0.7406  0.4304  1.1777
   33MOL   C35316417   7.366   6.421   6.724  0.7433  0.3637  0.0001
   33MOL   C35416418   7.406   6.379   6.582  0.9100  0.1037 -0.1829
   33MOL   C35516419   7.375   6.281   6.809  0.1652  0.2200  0.2369
   33MOL   O35616420   7.439   6.271   6.913  0.0236  0.4061  0.4470
   33MOL   O35716421   7.286   6.181   6.768  0.1370 -0.1134 -0.4722
   33MOL   C35816422   7.258   6.064   6.834 -0.2869  1.0802 -0.5919
   33MOL   C35916423   7.219   5.957   6.740  0.2311 -0.6360  0.1637
   33MOL   C36016424   7.282   5.829   6.750  0.4139 -0.3012 -0.8179
   33MOL   C36116425   7.263   5.734   6.648 -0.4590 -0.9927  0.0221
   33MOL   C36216426   7.163   5.750   6.549  0.5066 -0.4460 -0.2763
   33MOL   C36316427   7.094   5.872   6.545 -0.5005 -0.1429  0.5974
   33MOL   C36416428   7.134   5.980   6.630  0.1930  0.4591 -0.2054
   33MOL   H36516429   7.220   6.567   6.653 -1.8136 -1.2559 -1.3654
   33MOL   H36616430   7.170   6.417   6.641 -0.7737 -0.8048  3.0903
   33MOL   H36716431   7.507   6.338   6.580  1.1801  0.7336  0.1152
   33MOL   H36816432   7.403   6.456   6.505 -1.3918  1.5559  1.3080
   33MOL   H36916433   7.333   6.309   6.541  3.4517 -3.5325  1.2355
   33MOL   H37016434   7.346   6.026   6.886 -0.9003 -0.0999 -0.4037
   33MOL   H37116435   7.184   6.086   6.911  1.2299  0.8125  0.9884
   33MOL   H37216436   7.348   5.794   6.828  0.6011  1.5324 -0.1284
   33MOL   H37316437   7.308   5.637   6.663  1.4891  0.1503  1.8602
   33MOL   H37416438   7.137   5.677   6.473  0.0116 -0.3125 -0.2376
   33MOL   H37516439   7.011   5.881   6.477 -1.1117 -3.5366  0.7834
   33MOL   H37616440   7.077   6.072   6.626  1.7573  1.3957 -1.7428
   33MOL   C37716441   7.451   6.541   6.779 -0.3133 -0.0229  0.3916
   33MOL   C37816442   7.601   6.572   6.761 -0.0989 -0.0031  0.2155
   33MOL   C37916443   7.639   6.643   6.621 -0.1529 -0.4456 -0.0280
   33MOL   C38016444   7.681   6.447   6.781  1.1427  0.7805 -0.6596
   33MOL   O38116445   7.683   6.390   6.894 -0.1671 -0.5763  0.3017
   33MOL   O38216446   7.748   6.410   6.674  0.0325  0.4946 -0.2255
   33MOL   C38316447   7.838   6.302   6.680  0.8230 -0.9855 -0.1705
   33MOL   C38416448   7.913   6.274   6.554  0.1226 -0.0294 -0.1509
   33MOL   C38516449   0.017   6.183   6.565 -0.0813 -0.9756  0.3861
   33MOL   C38616450   0.093   6.161   6.450  0.6789  0.0386  0.2679
   33MOL   C38716451   0.057   6.221   6.324 -0.4511  1.2060  0.4146
   33MOL   C38816452   7.951   6.303   6.316 -0.6662 -0.1912 -0.8691
   33MOL   C38916453   7.876   6.337   6.432 -0.0998  0.0149 -0.2054
   33MOL   H39016454   7.437   6.532   6.886  2.6908  0.9028  0.9335
   33MOL   H39116455   7.399   6.632   6.749  0.2550  0.5639  1.1534
   33MOL   H39216456   7.746   6.654   6.605  0.1867  0.4854  2.5477
   33MOL   H39316457   7.594   6.742   6.626  2.7444  0.9391 -0.8501
   33MOL   H39416458   7.590   6.590   6.539 -0.9038  0.8684 -0.4351
   33MOL   H39516459   7.908   6.330   6.758 -0.5689  1.9220  0.1301
   33MOL   H39616460   7.774   6.220   6.712 -0.0361 -0.3965 -0.3267
   33MOL   H39716461   0.046   6.157   6.666 -2.5601  1.8334  1.9398
   33MOL   H39816462   0.182   6.100   6.450  0.2296 -0.6266  0.2329
   33MOL   H39916463   0.113   6.201   6.233 -0.0626 -0.8008  1.0621
   33MOL   H40016464   7.917   6.356   6.229  1.9955  1.8500 -0.7204
   33MOL   H40116465   7.795   6.407   6.420  1.0763  1.5688  0.8111
   33MOL   C40216466   7.617   6.681   6.880 -0.3406  0.6971 -0.2942
   33MOL   C40316467   7.746   6.776   6.897 -0.8036  0.1025  0.2808
   33MOL   C40416468   7.745   6.890   6.788  0.6381  0.2175 -0.0724
   33MOL   C40516469   7.875   6.694   6.877 -0.1708  0.7320  0.5122
   33MOL   O40616470   7.957   6.718   6.791  0.1654  0.1602  0.2324
   33MOL   O40716471   7.879   6.592   6.966 -0.2144 -0.0319  0.1631
   33MOL   C40816472   7.981   6.505   6.976  0.1921  0.5691  0.2410
   33MOL   C40916473   0.042   6.507   7.112  0.7274 -0.1001 -0.3552
   33MOL   C41016474   7.971   6.534   7.227 -0.1940  0.7715 -0.0526
   33MOL   C41116475   0.021   6.529   7.359 -0.2182  0.0645  0.4196
   33MOL   C41216476   0.161   6.522   7.376 -0.1398 -0.2659 -0.2121
   33MOL   C41316477   0.237   6.504   7.260 -0.3116  0.0463  0.3303
   33MOL   C41416478   0.183   6.500   7.127 -0.0484  0.8426  0.0427
   33MOL   H41516479   7.598   6.625   6.972 -0.8749  0.1703 -0.7220
   33MOL   H41616480   7.528   6.743   6.881 -0.8737 -0.0463 -1.1422
   33MOL   H41716481   7.783   6.856   6.692  2.6907 -1.6803  1.3515
   33MOL   H41816482   7.827   6.960   6.807 -0.6813  2.0184 -0.8580
   33MOL   H41916483   7.650   6.944   6.783 -0.1002 -1.0142  0.4319
   33MOL   H42016484   7.943   6.404   6.961  1.1438  0.6174 -2.8542
   33MOL   H42116485   0.056   6.513   6.904 -0.0236 -1.2992 -0.2414
   33MOL   H42216486   7.865   6.538   7.209  0.1939  2.7511 -2.2934
   33MOL   H42316487   7.960   6.552   7.439  0.2773  0.2244  0.8032
   33MOL   H42416488   0.198   6.521   7.477 -2.2723 -0.9038  0.5837
   33MOL   H42516489   0.343   6.498   7.280 -0.6521 -0.3504  2.1143
   33MOL   H42616490   0.245   6.473   7.043 -2.4943 -3.9596 -0.3874
   33MOL   C42716491   7.721   6.829   7.043 -0.7636 -0.7436  0.0392
   33MOL   C42816492   7.807   6.937   7.116 -0.2961 -0.7587  0.3159
   33MOL   C42916493   7.727   7.071   7.105  0.0194 -0.5807  0.0738
   33MOL   C43016494   7.941   6.953   7.056  0.3221  0.1813 -0.2655
   33MOL   O43116495   7.983   7.056   7.011 -0.4572  0.3516  0.3159
   33MOL   O43216496   0.009   6.846   7.077 -0.0046  0.6593 -0.0458
   33MOL   C43316497   0.140   6.855   7.026  0.3437  0.1840  0.4515
   33MOL   C43416498   0.241   6.926   7.114 -0.4968 -0.4048 -0.5049
   33MOL   C43516499   0.270   7.063   7.082  0.2872 -0.5447  1.0473
   33MOL   C43616500   0.364   7.133   7.169 -0.3134  0.5159  0.1183
   33MOL   C43716501   0.418   7.063   7.278  0.0668 -0.2154  0.0087
   33MOL   C43816502   0.382   6.926   7.313 -0.0007 -0.5168 -0.8269
   33MOL   C43916503   0.294   6.863   7.229  0.1314  0.0681  0.1124
   33MOL   H44016504   7.730   6.738   7.103  0.7303  0.1619  1.2175
   33MOL   H44116505   7.615   6.852   7.049 -0.9069 -1.3897  0.0162
   33MOL   H44216506   7.622   7.064   7.135  0.4641 -0.4209  1.7462
   33MOL   H44316507   7.720   7.125   7.011 -2.1032  0.2355  0.6555
   33MOL   H44416508   7.772   7.152   7.162  1.4300 -0.3200 -1.3866
   33MOL   H44516509   0.196   6.762   7.022 -0.0741  0.0154 -3.0261
   33MOL   H44616510   0.148   6.896   6.925 -2.5492  0.7635  0.4045
   33MOL   H44716511   0.209   7.107   7.004 -0.9896 -2.4367  0.9327
   33MOL   H44816512   0.395   7.236   7.162 -2.0988  1.0699  0.0781
   33MOL   H44916513   0.479   7.122   7.344 -3.2181 -1.4584  4.3916
   33MOL   H45016514   0.420   6.871   7.399  1.6269 -0.7076 -1.6492
   33MOL   H45116515   0.256   6.767   7.261 -1.6394  0.3126 -1.1742
   33MOL   C45216516   7.833   6.901   7.270 -0.0542 -0.4550 -0.0215
   33MOL   C45316517   7.726   6.904   7.394  0.2775  0.7720  0.9265
   33MOL   C45416518   7.805   6.853   7.516  0.2700  0.4146  0.5818
   33MOL   C45516519   7.615   6.801   7.357 -0.1019  0.3819  0.0571
   33MOL   O45616520   7.496   6.837   7.326 -0.0389  0.1385  0.1704
   33MOL   O45716521   7.662   6.673   7.344  0.4811  0.2029  0.0793
   33MOL   C45816522   7.589   6.574   7.274 -0.0508  0.8721  0.2980
   33MOL   C45916523   7.507   6.495   7.372 -0.1052  0.9489 -0.0890
   33MOL   C46016524   7.558   6.450   7.495  0.4046  0.0132  0.3599
   33MOL   C46116525   7.484   6.371   7.585 -0.4004  0.4686  0.4565
   33MOL   C46216526   7.347   6.347   7.552  0.4759  0.4071  0.3181
   33MOL   C46316527   7.296   6.391   7.426 -0.1082 -0.0786 -0.6809
   33MOL   C46416528   7.376   6.462   7.333 -0.0561  0.3985 -0.8438
   33MOL   H46516529   7.904   6.974   7.311  0.6242 -1.3207  0.3585
   33MOL   H46616530   7.886   6.806   7.276  0.4704 -0.1076  1.1185
   33MOL   H46716531   7.739   6.819   7.596  2.2848 -0.6509  1.8255
   33MOL   H46816532   7.861   6.937   7.558  2.7827 -1.8379  1.8667
   33MOL   H46916533   7.882   6.782   7.486 -1.9411 -2.5119  1.6663
   33MOL   H47016534   7.529   6.604   7.188 -2.3284 -1.7466  0.8895
   33MOL   H47116535   7.654   6.502   7.225 -0.9249 -1.3732  2.3207
   33MOL   H47216536   7.660   6.478   7.518  0.5265 -0.5482  0.4985
   33MOL   H47316537   7.534   6.329   7.671  1.1100  3.7871  1.3053
   33MOL   H47416538   7.291   6.287   7.622  3.4048  1.7373  3.9302
   33MOL   H47516539   7.198   6.358   7.397 -0.7234 -0.4509  1.7266
   33MOL   H47616540   7.335   6.493   7.238  0.3978  2.5467 -0.3705
   33MOL   C47716541   7.657   7.044   7.428 -0.0384 -0.5699  0.0448
   33MOL   C47816542   7.591   7.063   7.576  0.0951 -0.0243 -0.0104
   33MOL   C47916543   7.464   7.149   7.566  0.0694 -0.1953  0.4359
   33MOL   C48016544   7.685   7.122   7.682  0.5306 -0.8426 -0.6241
   33MOL   O48116545   7.723   7.068   7.789 -0.2328  0.2634 -0.3118
   33MOL   O48216546   7.703   7.248   7.660  0.7727  0.5203  0.2594
   33MOL   C48316547   7.801   7.327   7.724 -0.4265 -0.4801  0.4152
   33MOL   C48416548   7.765   7.474   7.693  0.1924 -0.3386 -0.2545
   33MOL   C48516549   7.859   7.575   7.711  0.2772 -0.4833 -0.2684
   33MOL   C48616550   7.829   7.713   7.682 -0.2048  0.3057  0.4124
   33MOL   C48716551   7.698   7.744   7.639  0.3045  0.8102  0.4560
   33MOL   C48816552   7.597   7.644   7.625 -0.5080  0.3200  0.6142
   33MOL   C48916553   7.637   7.511   7.653 -0.1703  0.2874  0.3460
   33MOL   H49016554   7.584   7.074   7.353 -0.5953  0.1500  0.8621
   33MOL   H49116555   7.735   7.119   7.412 -2.3090  1.8902  0.1583
   33MOL   H49216556   7.391   7.096   7.504  0.7491  0.5354 -1.0086
   33MOL   H49316557   7.470   7.240   7.506  0.1235 -0.9460 -0.7309
   33MOL   H49416558   7.428   7.168   7.667  1.0582 -3.0299  1.3670
   33MOL   H49516559   7.809   7.328   7.833 -0.1276 -0.0169  0.3927
   33MOL   H49616560   7.901   7.309   7.684 -0.4707  0.7039 -0.2415
   33MOL   H49716561   7.956   7.548   7.751  1.0137 -2.1915 -3.1085
   33MOL   H49816562   7.892   7.800   7.694  1.2426 -0.7990  0.9655
   33MOL   H49916563   7.654   7.842   7.630  1.7620  1.7019  2.6294
   33MOL   H50016564   7.494   7.656   7.596 -0.3373  1.7101  0.5622
   33MOL   H50116565   7.553   7.443   7.646 -0.6172  1.0432 -2.4594
   33MOL   H50216566   7.567   6.961   7.606 -3.4928  0.0474 -2.4005
   34MOL     C116567   4.935   4.146   3.949  0.0245 -0.4834  0.6464
   34MOL     C216568   4.993   4.065   4.066 -0.0105 -0.9162 -0.3854
   34MOL     C316569   5.100   3.972   3.999  0.0900  0.6177  0.4908
   34MOL     C416570   4.882   3.970   4.124 -0.3589  0.9210  1.2901
   34MOL     O516571   4.777   3.946   4.057 -0.1838 -0.5958 -0.0917
   34MOL     O616572   4.921   3.916   4.244  0.1177  0.3631  0.3053
   34MOL     C716573   4.839   3.823   4.316 -0.1529 -1.1006 -1.0988
   34MOL     C816574   4.746   3.891   4.426 -0.7068  0.4454  0.2154
   34MOL     C916575   4.617   3.943   4.395  0.4307 -0.6647 -0.5808
   34MOL    C1016576   4.532   4.002   4.489 -0.4406 -0.5115 -0.3017
   34MOL    C1116577   4.567   3.996   4.621  0.4482  0.2376 -0.7424
   34MOL    C1216578   4.700   3.946   4.657 -0.1283  0.2830  0.2625
   34MOL    C1316579   4.792   3.897   4.561  0.0245  0.1698 -0.3130
   34MOL    H1416580   5.013   4.219   3.926 -0.2672 -0.1989  0.5519
   34MOL    H1516581   4.925   4.085   3.859  1.6851 -0.2896  0.3080
   34MOL    H1616582   5.163   3.917   4.069 -0.6301  0.6602  1.1877
   34MOL    H1716583   5.175   4.017   3.935  0.7903 -1.2576 -0.0548
   34MOL    H1816584   5.057   3.897   3.932  1.7715  0.8926 -0.9117
   34MOL    H1916585   4.772   3.764   4.253 -1.6373 -0.2402 -0.3561
   34MOL    H2016586   4.900   3.751   4.369 -1.4692 -0.7500  0.9656
   34MOL    H2116587   4.589   3.946   4.291 -0.2852 -1.6989 -0.4226
   34MOL    H2216588   4.434   4.039   4.462 -0.7473 -0.4523  0.8383
   34MOL    H2316589   4.487   4.026   4.688  1.6958 -0.0126  0.9031
   34MOL    H2416590   4.740   3.954   4.757 -1.6088  0.9188  0.8194
   34MOL    H2516591   4.887   3.852   4.588  0.7576  0.7541 -1.8747
   34MOL    H2616592   4.842   4.198   3.971  1.0029  1.6942 -0.1457
   34MOL    C2716593   5.054   4.151   4.180 -0.0645 -0.1342  0.1809
   34MOL    C2816594   4.977   4.272   4.245  0.9189  0.1887 -0.0302
   34MOL    C2916595   4.827   4.244   4.281 -0.0811 -0.7657 -0.0570
   34MOL    C3016596   4.975   4.397   4.152  0.1405  0.7230 -0.5410
   34MOL    O3116597   4.868   4.436   4.099 -0.0752  0.3135  0.0586
   34MOL    O3216598   5.095   4.456   4.135 -0.2510  0.5341 -0.1087
   34MOL    C3316599   5.113   4.566   4.048 -0.0900 -0.2428 -0.1193
   34MOL    C3416600   5.095   4.700   4.116  0.1764 -0.6893  0.4796
   34MOL    C3516601   5.205   4.755   4.184  1.0677  0.8841  0.1737
   34MOL    C3616602   5.201   4.888   4.211  0.5999  0.2524  0.0739
   34MOL    C3716603   5.088   4.966   4.183 -0.0115  0.6842 -0.3343
   34MOL    C3816604   4.978   4.915   4.114 -0.4186 -0.4126 -0.3304
   34MOL    C3916605   4.989   4.777   4.076 -0.6342 -0.4317  0.1482
   34MOL    H4016606   5.151   4.185   4.143 -1.1898  0.5926 -2.1769
   34MOL    H4116607   5.093   4.081   4.254  1.0256  1.4397  1.1344
   34MOL    H4216608   4.759   4.206   4.205 -1.2769  0.2233  0.5152
   34MOL    H4316609   4.773   4.328   4.324  2.0968 -0.1083  1.5015
   34MOL    H4416610   4.826   4.168   4.360  0.1938  0.3473  1.0354
   34MOL    H4516611   5.214   4.566   4.007 -0.5751 -2.8666 -1.4497
   34MOL    H4616612   5.050   4.551   3.961 -1.1178  0.6282  0.4636
   34MOL    H4716613   5.291   4.695   4.209  1.2427  1.2154  0.3647
   34MOL    H4816614   5.280   4.942   4.261  0.1931  1.0927 -0.1848
   34MOL    H4916615   5.076   5.068   4.216 -0.1742  0.5226  0.1199
   34MOL    H5016616   4.897   4.979   4.083 -0.3983  0.0917  0.6468
   34MOL    H5116617   4.912   4.746   4.008  2.3496 -1.3345 -2.9299
   34MOL    C5216618   5.053   4.316   4.380 -0.9961  0.2308  0.9243
   34MOL    C5316619   5.062   4.235   4.524  0.1859 -0.1090  0.0478
   34MOL    C5416620   5.063   4.082   4.497 -0.4657 -0.1435 -0.9248
   34MOL    C5516621   4.930   4.257   4.608  0.1740  0.0079 -0.2167
   34MOL    O5616622   4.847   4.343   4.581 -0.2091  0.4195 -0.1556
   34MOL    O5716623   4.932   4.184   4.724  0.0368 -0.0770  0.3226
   34MOL    C5816624   4.847   4.219   4.832 -0.4185 -0.1918  0.5811
   34MOL    C5916625   4.901   4.339   4.916 -0.0705 -0.2439 -0.2885
   34MOL    C6016626   4.987   4.312   5.024  0.6101 -0.3263 -0.3452
   34MOL    C6116627   5.048   4.410   5.105  0.6016 -0.3792  0.3561
   34MOL    C6216628   5.023   4.544   5.074 -0.0003  0.2506 -0.3602
   34MOL    C6316629   4.939   4.574   4.965  0.3091  0.1622  0.3602
   34MOL    C6416630   4.873   4.473   4.887 -0.2640  0.1012 -0.5402
   34MOL    H6516631   5.024   4.420   4.395  1.9208  1.0398  1.2413
   34MOL    H6616632   5.161   4.323   4.365 -0.9083  1.0627  1.9008
   34MOL    H6716633   5.055   4.016   4.583 -0.6856 -0.4219 -1.1554
   34MOL    H6816634   5.153   4.050   4.445  0.5286 -0.4366  0.9756
   34MOL    H6916635   4.978   4.054   4.434  0.5880 -0.8422 -2.0601
   34MOL    H7016636   4.744   4.232   4.797 -0.1066 -1.7282 -0.9985
   34MOL    H7116637   4.850   4.140   4.908 -0.7518  0.6745  1.4995
   34MOL    H7216638   5.019   4.212   5.048  2.1337  0.5809  1.4533
   34MOL    H7316639   5.117   4.397   5.187  0.4557 -0.8002  0.4134
   34MOL    H7416640   5.066   4.623   5.134 -0.9701  0.1489  0.4924
   34MOL    H7516641   4.913   4.678   4.952  0.5638  0.1635 -0.1373
   34MOL    H7616642   4.802   4.499   4.811  0.8557  1.4035 -1.1585
   34MOL    C7716643   5.191   4.267   4.610 -0.6014  0.8417  0.8744
   34MOL    C7816644   5.249   4.408   4.636 -0.1881  0.9929  0.1698
   34MOL    C7916645   5.133   4.501   4.662  0.2700 -0.1286  0.1525
   34MOL    C8016646   5.331   4.460   4.513 -0.1271  0.0396  0.0145
   34MOL    O8116647   5.328   4.572   4.463  0.6343  0.1352 -0.0434
   34MOL    O8216648   5.409   4.368   4.462  0.1710 -0.2990  0.2650
   34MOL    C8316649   5.482   4.390   4.337 -0.0451 -0.3166  0.5320
   34MOL    C8416650   5.472   4.271   4.241  0.4632  0.2183 -0.2768
   34MOL    C8516651   5.425   4.145   4.282 -0.1849  0.4177  0.3606
   34MOL    C8616652   5.397   4.049   4.185  0.2188  0.4470  0.3012
   34MOL    C8716653   5.405   4.072   4.051 -0.2262  0.2809 -0.4247
   34MOL    C8816654   5.450   4.200   4.013  0.2962  0.3577 -0.3759
   34MOL    C8916655   5.477   4.303   4.105 -0.0098 -0.0922 -0.1328
   34MOL    H9016656   5.275   4.209   4.571 -1.3455  0.7967 -0.7115
   34MOL    H9116657   5.169   4.212   4.701 -2.5093 -3.0620 -1.8249
   34MOL    H9216658   5.160   4.601   4.693  2.4585 -0.4665 -0.6044
   34MOL    H9316659   5.064   4.445   4.725  0.0028  1.1487  1.0053
   34MOL    H9416660   5.068   4.527   4.578 -0.8412  1.6479  1.5264
   34MOL    H9516661   5.435   4.465   4.272  1.3164  0.8806  0.8983
   34MOL    H9616662   5.587   4.414   4.354 -0.1546 -0.5905  1.5953
   34MOL    H9716663   5.403   4.133   4.387  1.7700 -0.7826  0.6445
   34MOL    H9816664   5.379   3.946   4.215 -1.1017  0.0557 -1.6944
   34MOL    H9916665   5.401   3.986   3.986 -3.4962 -0.5580  0.8060
   34MOL   H10016666   5.475   4.214   3.909  0.7437 -1.7391 -0.5575
   34MOL   H10116667   5.519   4.399   4.079 -1.6945  0.5512 -0.5775
   34MOL   C10216668   5.345   4.391   4.758 -0.4235 -0.1579 -0.1792
   34MOL   C10316669   5.434   4.505   4.828  0.1842  0.4173  0.1690
   34MOL   C10416670   5.341   4.624   4.860  0.2954 -0.2714 -0.4175
   34MOL   C10516671   5.555   4.550   4.741 -0.2761 -0.6559  0.0561
   34MOL   O10616672   5.598   4.479   4.650 -0.2646 -0.1110 -0.1880
   34MOL   O10716673   5.599   4.672   4.781 -0.5370 -0.2780 -0.5553
   34MOL   C10816674   5.708   4.728   4.704 -0.0041  0.4038  0.2987
   34MOL   C10916675   5.682   4.866   4.652  0.4786 -0.9165  0.6815
   34MOL   C11016676   5.659   4.968   4.745  0.3591  0.3857 -0.3767
   34MOL   C11116677   5.649   5.109   4.703 -0.0394 -0.2033  0.2183
   34MOL   C11216678   5.665   5.137   4.567 -0.4114  0.5330 -0.1129
   34MOL   C11316679   5.697   5.038   4.474 -0.2354 -0.5845  0.1977
   34MOL   C11416680   5.709   4.904   4.519  0.0345 -0.5403 -0.0676
   34MOL   H11516681   5.404   4.302   4.734 -0.0530  0.0756 -0.1387
   34MOL   H11616682   5.269   4.361   4.829 -1.0249 -0.0671 -0.7854
   34MOL   H11716683   5.240   4.598   4.890  0.0517  0.8102 -0.2992
   34MOL   H11816684   5.332   4.687   4.772 -0.1647  0.8587  0.4185
   34MOL   H11916685   5.390   4.681   4.939  0.2456 -1.8287  0.7575
   34MOL   H12016686   5.785   4.731   4.782  0.1949  0.4118  0.1040
   34MOL   H12116687   5.745   4.658   4.630 -0.2247  0.8274 -0.2145
   34MOL   H12216688   5.641   4.946   4.850 -0.8062  0.4532 -0.5536
   34MOL   H12316689   5.609   5.184   4.771  0.8779  1.1607 -0.7099
   34MOL   H12416690   5.662   5.239   4.531  0.2307  0.2457 -1.0204
   34MOL   H12516691   5.722   5.062   4.371 -1.9999 -0.9535 -0.3326
   34MOL   H12616692   5.737   4.828   4.448  1.6704  0.6401 -0.7100
   34MOL   C12716693   5.487   4.449   4.971  0.1627  0.1926 -0.0297
   34MOL   C12816694   5.562   4.319   5.005  0.4381 -0.1424 -0.5269
   34MOL   C12916695   5.688   4.314   4.920  0.0417 -0.0672  0.6124
   34MOL   C13016696   5.471   4.203   4.970 -0.1162 -0.4337  0.6134
   34MOL   O13116697   5.357   4.202   5.008  0.3430 -0.0923  0.6111
   34MOL   O13216698   5.531   4.101   4.901  0.5097  0.1618  0.0987
   34MOL   C13316699   5.460   3.987   4.872  0.2749 -0.4647  0.6254
   34MOL   C13416700   5.483   3.954   4.722  0.2803  0.6590  0.6961
   34MOL   C13516701   5.407   3.852   4.657 -0.4481 -0.1504  0.1804
   34MOL   C13616702   5.428   3.813   4.526  0.1880  0.0724 -0.0139
   34MOL   C13716703   5.530   3.886   4.457  0.5552  0.7119  0.2294
   34MOL   C13816704   5.602   3.992   4.516 -0.6049 -0.1821 -0.5411
   34MOL   C13916705   5.585   4.023   4.647  0.1691 -0.1958 -0.3007
   34MOL   H14016706   5.396   4.445   5.031 -0.2544  1.1053 -0.5867
   34MOL   H14116707   5.530   4.540   5.013  0.8014 -0.2223  0.2227
   34MOL   H14216708   5.736   4.411   4.930 -0.9198  0.3630  1.0925
   34MOL   H14316709   5.663   4.307   4.815 -1.0526 -0.9409  0.9220
   34MOL   H14416710   5.752   4.227   4.938 -1.1787 -1.3566 -1.1776
   34MOL   H14516711   5.500   3.906   4.933  1.2379  1.1949  2.2189
   34MOL   H14616712   5.352   3.988   4.891  0.2721 -0.4365  0.6070
   34MOL   H14716713   5.337   3.803   4.723 -0.1617 -0.9565 -0.1092
   34MOL   H14816714   5.374   3.730   4.484 -0.7166 -0.2276  1.7335
   34MOL   H14916715   5.543   3.857   4.353 -0.0964  0.5330  0.1964
   34MOL   H15016716   5.677   4.044   4.458 -0.1220 -3.6410 -3.1873
   34MOL   H15116717   5.640   4.105   4.690  1.7796 -0.4251 -1.8844
   34MOL   C15216718   5.586   4.339   5.164 -0.1024  0.0751  0.4092
   34MOL   C15316719   5.671   4.234   5.254  0.1789 -0.0499  1.2348
   34MOL   C15416720   5.820   4.257   5.226 -0.6138 -0.5933  0.5170
   34MOL   C15516721   5.623   4.091   5.232  0.4234 -0.1248  0.5819
   34MOL   O15616722   5.698   4.005   5.192  0.0466  0.1098  0.3581
   34MOL   O15716723   5.492   4.078   5.257  0.1247  0.9362  0.0891
   34MOL   C15816724   5.423   3.958   5.255 -0.3223 -0.0246  0.3744
   34MOL   C15916725   5.281   3.958   5.311  0.1428 -0.0553  0.6192
   34MOL   C16016726   5.238   3.847   5.388 -0.2919 -0.0364  0.0554
   34MOL   C16116727   5.110   3.838   5.450 -0.1210  0.7799 -0.0671
   34MOL   C16216728   5.026   3.945   5.421  0.0000 -0.1622  0.1833
   34MOL   C16316729   5.064   4.058   5.332 -0.3582 -0.3906 -0.4105
   34MOL   C16416730   5.192   4.067   5.280 -0.1193  0.7244  0.1250
   34MOL   H16516731   5.488   4.345   5.212 -0.7860 -0.5241 -0.8894
   34MOL   H16616732   5.638   4.433   5.181 -0.9573  1.0826 -2.3132
   34MOL   H16716733   5.845   4.362   5.241 -0.1052 -0.5599 -0.5974
   34MOL   H16816734   5.852   4.233   5.125 -1.5717  0.6672 -0.1044
   34MOL   H16916735   5.879   4.197   5.296 -0.5575 -0.5050  0.5444
   34MOL   H17016736   5.417   3.942   5.147 -2.0253 -0.6446  0.5431
   34MOL   H17116737   5.482   3.884   5.308  1.1205  1.6643  1.1905
   34MOL   H17216738   5.315   3.771   5.393  1.4364  1.4799 -2.3477
   34MOL   H17316739   5.081   3.761   5.519  0.5445  1.2740  0.7720
   34MOL   H17416740   4.930   3.943   5.470 -0.6006 -0.8094 -1.0147
   34MOL   H17516741   4.994   4.139   5.321 -0.5305 -0.8305 -2.7370
   34MOL   H17616742   5.233   4.151   5.227  0.1388  1.0639  0.8529
   34MOL   C17716743   5.648   4.291   5.397  0.2595  0.2684 -0.7244
   34MOL   C17816744   5.700   4.223   5.534 -0.7347  0.2259 -0.3721
   34MOL   C17916745   5.725   4.066   5.519 -0.0142  0.6774  0.0682
   34MOL   C18016746   5.599   4.258   5.648  0.6033 -0.0638  0.0967
   34MOL   O18116747   5.543   4.165   5.716 -0.2140  0.1401 -0.1732
   34MOL   O18216748   5.575   4.385   5.667  0.0312  0.4754  0.1485
   34MOL   C18316749   5.496   4.432   5.777 -0.3937 -0.2643  0.6766
   34MOL   C18416750   5.466   4.577   5.751 -0.0653 -0.4430 -0.0904
   34MOL   C18516751   5.574   4.668   5.749  0.1791  1.1968  0.1661
   34MOL   C18616752   5.548   4.801   5.724  0.6810 -0.0727 -0.2171
   34MOL   C18716753   5.419   4.847   5.705 -0.2561  0.3362 -0.0041
   34MOL   C18816754   5.316   4.753   5.701 -0.2291 -0.1944 -0.0980
   34MOL   C18916755   5.334   4.618   5.736 -0.9517  0.3177 -0.9076
   34MOL   H19016756   5.541   4.286   5.412  0.9247 -1.7621  4.1455
   34MOL   H19116757   5.667   4.399   5.401 -2.6764  0.8016 -0.3319
   34MOL   H19216758   5.629   4.025   5.488  0.8559 -0.6577 -0.9189
   34MOL   H19316759   5.748   4.024   5.617 -1.5408  1.4782  0.7906
   34MOL   H19416760   5.804   4.039   5.449 -1.0267 -0.5461 -0.6290
   34MOL   H19516761   5.406   4.376   5.804 -1.4607  0.2203 -1.8053
   34MOL   H19616762   5.551   4.422   5.871  0.6745  0.9830  0.1911
   34MOL   H19716763   5.674   4.625   5.744 -0.6011 -0.4446 -2.3380
   34MOL   H19816764   5.630   4.871   5.718  1.1089 -0.3918  1.7053
   34MOL   H19916765   5.393   4.949   5.678 -0.0921  0.2193 -0.6169
   34MOL   H20016766   5.213   4.774   5.677  0.6599  3.1235 -1.3345
   34MOL   H20116767   5.252   4.548   5.731 -0.5584 -0.2991  1.0643
   34MOL   C20216768   5.844   4.289   5.560  0.1329 -0.8085 -0.4438
   34MOL   C20316769   5.953   4.249   5.669 -0.1936 -0.7005  0.0393
   34MOL   C20416770   5.894   4.240   5.812  0.5446  0.6929 -0.1461
   34MOL   C20516771   6.058   4.363   5.677  0.1021 -0.2457  0.1621
   34MOL   O20616772   6.136   4.383   5.582 -0.1143 -0.2908  0.0700
   34MOL   O20716773   6.046   4.445   5.786 -0.6063 -0.2084  0.0585
   34MOL   C20816774   6.132   4.562   5.800 -0.4282  0.4277  0.3101
   34MOL   C20916775   6.068   4.698   5.778 -0.7364  0.1500  0.0234
   34MOL   C21016776   6.150   4.799   5.730  0.3647  0.1178 -0.6139
   34MOL   C21116777   6.096   4.929   5.718 -0.4041  0.6609 -0.7065
   34MOL   C21216778   5.962   4.952   5.765 -0.5541 -0.1777  0.1522
   34MOL   C21316779   5.887   4.850   5.825  0.2527 -0.5554  0.3738
   34MOL   C21416780   5.936   4.719   5.824  0.1378 -0.1908  0.2617
   34MOL   H21516781   5.819   4.391   5.589  1.6256 -0.9083  1.2669
   34MOL   H21616782   5.894   4.310   5.466  3.4858 -0.5312  1.3294
   34MOL   H21716783   5.825   4.156   5.813 -0.9380  1.8914  0.4659
   34MOL   H21816784   5.833   4.327   5.838  0.9632  0.9109  0.1058
   34MOL   H21916785   5.966   4.227   5.893 -0.4390  2.3935  1.0483
   34MOL   H22016786   6.161   4.568   5.905 -1.3223 -1.3958  0.6849
   34MOL   H22116787   6.225   4.547   5.745 -0.4298  2.5289 -0.3124
   34MOL   H22216788   6.247   4.775   5.687 -0.3603 -0.4855 -1.9424
   34MOL   H22316789   6.150   5.014   5.679 -0.5769  1.8232  1.4900
   34MOL   H22416790   5.941   5.058   5.770  0.3594  0.1001 -1.3935
   34MOL   H22516791   5.786   4.877   5.852 -0.1087 -1.6403  0.1652
   34MOL   H22616792   5.870   4.639   5.850  0.0431  0.3012  1.5483
   34MOL   C22716793   6.018   4.112   5.629 -0.2384  1.0446  0.8631
   34MOL   C22816794   6.147   4.042   5.685 -0.2632  0.4378  0.4658
   34MOL   C22916795   6.148   4.038   5.840  0.0121 -0.4748 -0.1420
   34MOL   C23016796   6.271   4.117   5.631 -0.1465  0.0327 -0.3960
   34MOL   O23116797   6.350   4.167   5.712 -0.6695 -0.1650  0.5966
   34MOL   O23216798   6.270   4.125   5.495 -0.4648 -0.0364 -0.3137
   34MOL   C23316799   6.386   4.164   5.425 -0.7646 -0.2618  0.1621
   34MOL   C23416800   6.370   4.161   5.279 -0.9028  0.4891 -0.3106
   34MOL   C23516801   6.333   4.039   5.215 -0.4236  0.1781  0.1286
   34MOL   C23616802   6.320   4.034   5.069 -0.2962  0.6681 -0.4609
   34MOL   C23716803   6.338   4.156   4.997 -0.3977  1.1257  0.1527
   34MOL   C23816804   6.385   4.267   5.068  0.0899  0.1380  0.0095
   34MOL   C23916805   6.394   4.277   5.204  0.4023 -0.0320 -0.9451
   34MOL   H24016806   6.039   4.117   5.522 -2.5863 -0.0600  0.3287
   34MOL   H24116807   5.944   4.035   5.648 -0.5599  1.7953  2.7461
   34MOL   H24216808   6.236   3.986   5.877  1.4907  0.7716 -1.8659
   34MOL   H24316809   6.057   3.992   5.879 -0.5759  1.4871  0.8718
   34MOL   H24416810   6.160   4.135   5.888  1.5340 -0.6055 -0.2473
   34MOL   H24516811   6.417   4.259   5.470  0.9149 -0.0507 -1.3771
   34MOL   H24616812   6.479   4.111   5.447  0.2777  1.4546  0.0141
   34MOL   H24716813   6.316   3.950   5.274 -2.4313  0.9204  0.7167
   34MOL   H24816814   6.297   3.937   5.028 -0.8798  0.2219  0.8685
   34MOL   H24916815   6.315   4.148   4.892 -2.9397 -1.4387  0.8253
   34MOL   H25016816   6.414   4.346   5.000  2.0608  2.4165  3.3214
   34MOL   H25116817   6.432   4.364   5.255 -1.1774 -0.8122  1.6156
   34MOL   C25216818   6.154   3.898   5.623  0.1659  0.4268  0.6715
   34MOL   C25316819   6.232   3.768   5.670 -0.9116  0.0988 -0.2352
   34MOL   C25416820   6.149   3.711   5.790 -0.5557  0.1365 -0.4528
   34MOL   C25516821   6.380   3.801   5.719  0.1988  0.0260  0.4132
   34MOL   O25616822   6.453   3.874   5.648 -0.0382 -1.0545 -0.2047
   34MOL   O25716823   6.420   3.740   5.833  0.0906  0.2866 -0.8038
   34MOL   C25816824   6.557   3.729   5.869 -0.1725 -0.7585  0.4048
   34MOL   C25916825   6.572   3.735   6.022 -0.9800 -0.0883 -0.6049
   34MOL   C26016826   6.474   3.678   6.105 -0.1762 -0.5512 -0.0844
   34MOL   C26116827   6.503   3.661   6.242 -0.4403  0.4325  0.1061
   34MOL   C26216828   6.621   3.720   6.289 -0.2672 -0.3930 -0.1062
   34MOL   C26316829   6.705   3.800   6.212  0.4821  0.4688  0.2709
   34MOL   C26416830   6.686   3.794   6.075 -0.4282 -0.6653  0.1987
   34MOL   H26516831   6.169   3.910   5.516  1.4932  0.5278  0.8482
   34MOL   H26616832   6.053   3.858   5.621  0.8753 -1.3902  0.5694
   34MOL   H26716833   6.166   3.767   5.881 -0.5377  0.5885 -0.7319
   34MOL   H26816834   6.193   3.616   5.820 -0.4031  0.6789  1.0479
   34MOL   H26916835   6.043   3.697   5.768 -0.7520 -1.2602  1.3036
   34MOL   H27016836   6.600   3.638   5.826  0.3500  0.4323 -1.6854
   34MOL   H27116837   6.623   3.805   5.827 -0.8127 -1.0791 -1.2464
   34MOL   H27216838   6.392   3.628   6.056 -0.4014  1.0002 -1.2972
   34MOL   H27316839   6.445   3.602   6.311  0.5948  1.0726  1.5601
   34MOL   H27416840   6.646   3.716   6.394 -3.9108 -0.4362  0.8352
   34MOL   H27516841   6.786   3.853   6.261 -0.6450  1.9975  0.5224
   34MOL   H27616842   6.759   3.842   6.011 -2.7465  1.5272 -0.8764
   34MOL   C27716843   6.220   3.665   5.553  0.5024  0.6356  0.6624
   34MOL   C27816844   6.292   3.521   5.555  0.0416 -0.0460 -0.3792
   34MOL   C27916845   6.241   3.437   5.673 -0.1184  0.5027 -0.1838
   34MOL   C28016846   6.453   3.514   5.568 -0.4184  0.3047  0.2642
   34MOL   O28116847   6.523   3.612   5.543 -0.3687  0.0955  0.2125
   34MOL   O28216848   6.499   3.382   5.579  0.5459 -0.4005  0.6521
   34MOL   C28316849   6.636   3.370   5.593 -0.2141 -0.6053 -0.0551
   34MOL   C28416850   6.690   3.412   5.725  0.5361  0.2879 -0.1286
   34MOL   C28516851   6.807   3.492   5.732 -0.2154  0.2758 -0.1003
   34MOL   C28616852   6.863   3.532   5.859  0.4645 -0.4819 -0.2183
   34MOL   C28716853   6.791   3.497   5.977  0.2521 -0.5227 -0.0215
   34MOL   C28816854   6.677   3.406   5.963 -0.1906  0.2168 -0.1936
   34MOL   C28916855   6.624   3.370   5.841  0.5482 -0.3575  0.0901
   34MOL   H29016856   6.258   3.719   5.467  0.5294  2.3529  1.7354
   34MOL   H29116857   6.112   3.647   5.547  0.7327 -0.8595  0.6524
   34MOL   H29216858   6.243   3.330   5.655  0.3053  0.1172  2.0019
   34MOL   H29316859   6.135   3.453   5.690  0.1196  0.6226  1.2375
   34MOL   H29416860   6.298   3.461   5.763 -0.5056  0.1878  0.1485
   34MOL   H29516861   6.657   3.264   5.579  1.1577 -0.6932  2.3667
   34MOL   H29616862   6.687   3.414   5.508  3.1703 -0.3398  1.9879
   34MOL   H29716863   6.843   3.527   5.636 -0.6500  0.7470 -0.0929
   34MOL   H29816864   6.946   3.601   5.851  0.1405 -0.0217  0.2982
   34MOL   H29916865   6.814   3.545   6.071 -1.9720  3.3819 -1.3493
   34MOL   H30016866   6.621   3.389   6.054  2.8284  1.5794  2.0036
   34MOL   H30116867   6.529   3.322   5.825  0.1774  0.9726 -1.8810
   34MOL   C30216868   6.253   3.433   5.428 -0.3611 -0.0319 -0.0310
   34MOL   C30316869   6.243   3.491   5.282 -0.2009  0.2938 -0.7507
   34MOL   C30416870   6.369   3.586   5.244  1.0970  0.2487  0.4646
   34MOL   C30516871   6.111   3.574   5.261 -0.5538  0.1197 -0.1653
   34MOL   O30616872   6.013   3.579   5.337 -0.1018  0.1517  0.3809
   34MOL   O30716873   6.106   3.639   5.142  0.0605  0.1334 -0.1854
   34MOL   C30816874   5.989   3.713   5.093 -0.7804 -0.1761 -0.3985
   34MOL   C30916875   5.993   3.768   4.956 -0.2101  0.0778  0.3261
   34MOL   C31016876   5.899   3.853   4.896  0.4871  0.6411 -0.0240
   34MOL   C31116877   5.906   3.894   4.765  0.5146 -0.4377  0.2791
   34MOL   C31216878   6.010   3.839   4.682  0.1494 -0.8735 -0.6963
   34MOL   C31316879   6.106   3.753   4.739 -0.0035 -1.0693  0.1793
   34MOL   C31416880   6.101   3.723   4.874 -0.3702 -0.1196 -0.3143
   34MOL   H31516881   6.153   3.393   5.444 -0.6035  0.3836 -0.4930
   34MOL   H31616882   6.312   3.341   5.423 -0.4347 -0.0354 -0.8599
   34MOL   H31716883   6.371   3.606   5.137 -0.5132 -2.4777 -0.1047
   34MOL   H31816884   6.461   3.542   5.284  0.2741 -0.5597  1.4836
   34MOL   H31916885   6.374   3.687   5.286  2.0430 -0.0049  0.9951
   34MOL   H32016886   5.904   3.647   5.106 -1.8210  1.5800  2.1523
   34MOL   H32116887   5.965   3.806   5.146 -0.3276 -0.6058  0.5904
   34MOL   H32216888   5.818   3.902   4.949  0.0975  0.0517 -0.0666
   34MOL   H32316889   5.836   3.967   4.726  1.7196  1.2582  1.1998
   34MOL   H32416890   6.012   3.862   4.577 -1.4028  0.9768 -0.3502
   34MOL   H32516891   6.191   3.710   4.688  0.6724 -1.0732  1.3119
   34MOL   H32616892   6.153   3.633   4.902  1.1140 -0.3485 -3.5679
   34MOL   C32716893   6.259   3.364   5.181 -0.4363  0.6882 -0.5202
   34MOL   C32816894   6.142   3.275   5.128 -0.5651  0.1106 -0.2573
   34MOL   C32916895   6.061   3.223   5.254 -0.9257  0.7519  0.0611
   34MOL   C33016896   6.218   3.157   5.055  0.4701 -0.7094  0.5338
   34MOL   O33116897   6.193   3.044   5.088  0.2126 -0.2529 -0.1649
   34MOL   O33216898   6.300   3.201   4.961  0.9047 -0.2530 -0.1435
   34MOL   C33316899   6.394   3.118   4.900  0.8036  0.2329 -0.0190
   34MOL   C33416900   6.506   3.189   4.839 -0.6576  0.2847  0.1464
   34MOL   C33516901   6.638   3.132   4.850 -0.1848  0.3461 -0.2159
   34MOL   C33616902   6.751   3.196   4.796 -0.7270 -0.0349  0.1810
   34MOL   C33716903   6.732   3.322   4.737 -0.2536 -0.2850  0.4153
   34MOL   C33816904   6.597   3.379   4.731 -0.5433  0.3132  0.4584
   34MOL   C33916905   6.482   3.309   4.764  0.5173  0.3461 -0.6253
   34MOL   H34016906   6.340   3.299   5.212 -2.3595 -0.6938  1.7924
   34MOL   H34116907   6.305   3.409   5.094  1.5946 -0.8764 -0.2690
   34MOL   H34216908   5.996   3.140   5.229  0.9842 -0.9848  0.7011
   34MOL   H34316909   5.990   3.294   5.296  0.1179  1.7601  0.1761
   34MOL   H34416910   6.117   3.181   5.338 -2.6793  0.0080  0.8844
   34MOL   H34516911   6.424   3.042   4.972 -0.2105  0.2804  0.4560
   34MOL   H34616912   6.334   3.061   4.828 -0.2375  1.2659  0.0242
   34MOL   H34716913   6.652   3.039   4.902 -1.0347  0.8588  0.9647
   34MOL   H34816914   6.850   3.154   4.792 -0.5820 -0.0065  2.7675
   34MOL   H34916915   6.816   3.378   4.699 -0.2246 -0.6382 -0.0452
   34MOL   H35016916   6.582   3.474   4.682 -0.1800 -0.5702 -1.4082
   34MOL   H35116917   6.384   3.349   4.743  0.1338  0.6671  1.6715
   34MOL   C35216918   6.039   3.353   5.034 -0.4533 -0.4116 -0.0463
   34MOL   C35316919   5.949   3.285   4.934  0.7054 -0.1783 -0.1042
   34MOL   C35416920   5.858   3.398   4.890 -0.1745 -0.7444 -0.0502
   34MOL   C35516921   5.853   3.194   5.015 -0.1748 -0.0967  0.2691
   34MOL   O35616922   5.865   3.074   5.001 -0.1035  0.5618  0.1104
   34MOL   O35716923   5.775   3.263   5.100  0.9366  0.2839  0.3011
   34MOL   C35816924   5.681   3.184   5.173  0.2513 -0.1134 -0.1635
   34MOL   C35916925   5.574   3.272   5.244 -0.1630 -0.3504 -0.0763
   34MOL   C36016926   5.442   3.228   5.267 -0.2638 -0.7167 -0.3373
   34MOL   C36116927   5.351   3.318   5.327  0.2595  0.6329 -0.4824
   34MOL   C36216928   5.385   3.452   5.351  0.5257 -0.3540 -0.0573
   34MOL   C36316929   5.515   3.498   5.325  0.5026 -0.4943  0.3933
   34MOL   C36416930   5.610   3.407   5.275  0.0064  0.5408  1.0706
   34MOL   H36516931   6.099   3.427   4.981  0.9604 -1.3111  0.2679
   34MOL   H36616932   5.973   3.406   5.103 -0.0515  0.9629 -0.7050
   34MOL   H36716933   5.759   3.372   4.852 -0.8700 -1.3080  2.0649
   34MOL   H36816934   5.900   3.466   4.817  0.8506 -0.1810  1.0475
   34MOL   H36916935   5.825   3.466   4.968  1.5823  1.5410 -1.2313
   34MOL   H37016936   5.640   3.097   5.123 -1.0889  2.3138 -3.4187
   34MOL   H37116937   5.739   3.154   5.261 -0.0960 -0.4030 -0.0319
   34MOL   H37216938   5.411   3.127   5.246 -0.2198 -0.4319 -1.8294
   34MOL   H37316939   5.252   3.289   5.360  1.2537 -1.2856  0.9372
   34MOL   H37416940   5.309   3.516   5.392 -0.5666 -0.2518 -2.1766
   34MOL   H37516941   5.536   3.602   5.343 -1.4577  0.4022 -2.2281
   34MOL   H37616942   5.711   3.442   5.262 -0.0155  1.0398  2.1984
   34MOL   C37716943   6.010   3.212   4.810 -0.3882  0.1103  0.6235
   34MOL   C37816944   5.944   3.173   4.676  0.5486 -0.2753  0.0005
   34MOL   C37916945   5.821   3.083   4.701  0.3010  0.4229 -0.4100
   34MOL   C38016946   6.045   3.090   4.595  0.2391  0.3617 -0.0964
   34MOL   O38116947   6.166   3.093   4.610  0.0023 -0.9351 -0.0841
   34MOL   O38216948   5.987   3.014   4.492 -0.1094 -0.3469 -0.0261
   34MOL   C38316949   6.068   2.926   4.414 -0.2311  0.2596 -0.7933
   34MOL   C38416950   5.973   2.818   4.363  0.3981  0.1994 -0.0021
   34MOL   C38516951   5.983   2.769   4.227 -0.0144  0.0404 -0.3409
   34MOL   C38616952   5.884   2.672   4.178 -0.3625 -0.1120 -1.0925
   34MOL   C38716953   5.785   2.628   4.260  0.3216  0.2286  0.4454
   34MOL   C38816954   5.776   2.678   4.388  0.1142  0.6359 -0.3264
   34MOL   C38916955   5.867   2.773   4.437  0.3532  0.5720 -0.6986
   34MOL   H39016956   6.045   3.116   4.847 -0.3641 -0.2805 -0.3987
   34MOL   H39116957   6.102   3.261   4.777 -0.1236 -0.1079  1.0359
   34MOL   H39216958   5.851   2.983   4.730  1.4019  1.2275  1.3058
   34MOL   H39316959   5.746   3.061   4.625  1.6167 -3.9842 -0.5525
   34MOL   H39416960   5.758   3.115   4.783 -0.2079  2.1880 -1.4604
   34MOL   H39516961   6.115   2.968   4.325 -1.2122 -0.0451 -1.4579
   34MOL   H39616962   6.144   2.883   4.479 -0.5386  0.9522  0.0321
   34MOL   H39716963   6.067   2.807   4.171 -0.2241 -1.4900 -1.7417
   34MOL   H39816964   5.896   2.630   4.080  1.5723  0.5068 -1.1412
   34MOL   H39916965   5.727   2.544   4.224 -0.1678  1.4336 -1.6929
   34MOL   H40016966   5.712   2.636   4.465  1.5316 -0.5881  0.1958
   34MOL   H40116967   5.855   2.813   4.537  1.6826  1.3777 -0.8529
   34MOL   C40216968   5.898   3.292   4.579 -0.0124  0.0364  0.6282
   34MOL   C40316969   5.985   3.392   4.493  0.6922  0.0233  0.4682
   34MOL   C40416970   6.097   3.446   4.585 -0.1890 -0.0413 -0.3846
   34MOL   C40516971   5.889   3.506   4.458 -0.1830  0.3551  0.1113
   34MOL   O40616972   5.915   3.624   4.486  0.2687 -0.1923 -0.4485
   34MOL   O40716973   5.774   3.461   4.394 -0.2040 -0.0347  0.1026
   34MOL   C40816974   5.677   3.560   4.350 -0.0958  0.2965 -0.3720
   34MOL   C40916975   5.556   3.501   4.274  0.1665  0.5206 -0.2522
   34MOL   C41016976   5.546   3.367   4.264 -0.2655  0.9720 -0.1667
   34MOL   C41116977   5.438   3.311   4.195  0.3971 -0.3501 -0.4482
   34MOL   C41216978   5.344   3.389   4.123  0.4395  0.2500 -0.0404
   34MOL   C41316979   5.351   3.528   4.140 -0.0973  0.0596 -0.1047
   34MOL   C41416980   5.464   3.587   4.209  0.4809  0.5096 -0.7620
   34MOL   H41516981   5.825   3.348   4.637 -1.2522  0.2503 -1.1083
   34MOL   H41616982   5.838   3.241   4.504  0.1670 -0.2771  0.6977
   34MOL   H41716983   6.149   3.534   4.548  2.0092 -1.5106 -0.9333
   34MOL   H41816984   6.179   3.378   4.609 -1.8837 -1.9293  0.2259
   34MOL   H41916985   6.060   3.490   4.678  1.3683 -0.4497  0.4474
   34MOL   H42016986   5.646   3.621   4.435  0.7198 -0.0048  0.1484
   34MOL   H42116987   5.725   3.630   4.281  0.3776 -0.1671 -0.5208
   34MOL   H42216988   5.615   3.294   4.303 -2.7106 -1.8689 -0.9361
   34MOL   H42316989   5.432   3.204   4.187  1.9445 -0.3828 -1.4718
   34MOL   H42416990   5.261   3.347   4.067 -0.4883  1.9427  0.0375
   34MOL   H42516991   5.280   3.600   4.104 -0.4923 -0.4593 -0.3580
   34MOL   H42616992   5.454   3.693   4.225 -5.1819  0.0956 -0.2370
   34MOL   C42716993   6.051   3.340   4.358  0.1282 -0.7904  0.5607
   34MOL   C42816994   6.183   3.395   4.283 -0.7019  0.5338  0.4597
   34MOL   C42916995   6.315   3.356   4.355 -0.2231  0.6334  0.3534
   34MOL   C43016996   6.170   3.543   4.274 -0.1754  0.2308 -0.8632
   34MOL   O43116997   6.267   3.614   4.301 -0.2834 -0.1501  0.6327
   34MOL   O43216998   6.057   3.581   4.208 -0.1564 -0.3776  0.4578
   34MOL   C43316999   6.036   3.704   4.159 -0.4097 -0.1395 -0.8454
   34MOL   C43417000   5.910   3.707   4.080  0.2175 -0.0012  0.4950
   34MOL   C43517001   5.890   3.606   3.984 -0.1914 -0.2247 -0.2899
   34MOL   C43617002   5.765   3.597   3.914  0.0896  0.0084 -0.4720
   34MOL   C43717003   5.666   3.701   3.933  0.6097 -0.5397 -0.1764
   34MOL   C43817004   5.690   3.796   4.041  0.0401 -0.4686 -0.7113
   34MOL   C43917005   5.814   3.800   4.108  0.6656  0.6172 -0.0831
   34MOL   H44017006   5.972   3.345   4.284 -0.0470  1.0962  0.8470
   34MOL   H44117007   6.064   3.232   4.365  1.8287 -0.6077  0.5912
   34MOL   H44217008   6.405   3.374   4.296 -1.8173  0.4855 -2.2228
   34MOL   H44317009   6.309   3.252   4.387  1.3963  0.5676  0.4889
   34MOL   H44417010   6.329   3.410   4.448  0.8646 -0.8656  1.0808
   34MOL   H44517011   6.022   3.774   4.241 -0.0950 -0.5326 -0.4513
   34MOL   H44617012   6.120   3.732   4.095  0.3483  1.4153  0.7831
   34MOL   H44717013   5.954   3.519   3.973 -1.6689 -1.5580  1.5125
   34MOL   H44817014   5.737   3.522   3.842  0.0711 -0.7268  0.3016
   34MOL   H44917015   5.562   3.694   3.904  0.2928  0.8240  0.6006
   34MOL   H45017016   5.607   3.864   4.053  1.8928  1.7977 -0.2808
   34MOL   H45117017   5.826   3.861   4.196  2.2400  0.2592 -0.0495
   34MOL   C45217018   6.187   3.327   4.142  0.0742 -0.1008  0.2490
   34MOL   C45317019   6.305   3.334   4.030  0.5447 -0.2971  0.3275
   34MOL   C45417020   6.239   3.285   3.891 -0.4435  0.1141 -0.1329
   34MOL   C45517021   6.420   3.243   4.065 -0.0669  0.2106 -0.2988
   34MOL   O45617022   6.535   3.284   4.082  0.5088 -0.0517 -0.7287
   34MOL   O45717023   6.383   3.116   4.080 -0.2782 -0.1680  0.4570
   34MOL   C45817024   6.481   3.015   4.103  0.1163  0.1616  0.5825
   34MOL   C45917025   6.489   2.980   4.250 -0.2900 -0.5920  0.5463
   34MOL   C46017026   6.567   3.060   4.332  0.2455  0.9579  0.6882
   34MOL   C46117027   6.574   3.034   4.471  0.2295 -0.1653  0.2042
   34MOL   C46217028   6.494   2.933   4.523 -0.1968 -0.0289 -0.5637
   34MOL   C46317029   6.412   2.851   4.443  0.4497  0.6095  0.0280
   34MOL   C46417030   6.400   2.883   4.305  0.4321 -0.3645 -0.3001
   34MOL   H46517031   6.094   3.361   4.097  0.5078 -1.1378 -1.4868
   34MOL   H46617032   6.173   3.221   4.164 -1.1032 -0.5336 -2.3701
   34MOL   H46717033   6.204   3.184   3.913 -0.6121  0.1173 -0.3900
   34MOL   H46817034   6.312   3.282   3.811  0.8658 -3.1674  1.0795
   34MOL   H46917035   6.153   3.335   3.846 -0.5568  0.3529  0.3437
   34MOL   H47017036   6.459   2.923   4.050  1.2750  0.1179  0.1572
   34MOL   H47117037   6.582   3.052   4.082  0.3205 -0.8483 -0.2289
   34MOL   H47217038   6.620   3.139   4.280 -0.7384  1.0445 -0.2075
   34MOL   H47317039   6.626   3.087   4.549 -1.3801  0.4399  0.8936
   34MOL   H47417040   6.481   2.922   4.630 -1.5467 -2.2967 -0.9296
   34MOL   H47517041   6.352   2.776   4.491 -0.6791  1.6071  0.1959
   34MOL   H47617042   6.341   2.832   4.231  1.0263 -1.7803  0.1739
   34MOL   C47717043   6.352   3.483   3.998 -1.0248 -0.1558 -0.1128
   34MOL   C47817044   6.452   3.515   3.885  0.2660  0.3892 -0.2598
   34MOL   C47917045   6.545   3.633   3.926  0.5456 -0.3538  0.4647
   34MOL   C48017046   6.391   3.535   3.749 -0.2616  0.1774  0.6787
   34MOL   O48117047   6.270   3.551   3.732  0.5001  0.2121  0.6494
   34MOL   O48217048   6.492   3.541   3.659  0.8713  0.0389 -0.3577
   34MOL   C48317049   6.465   3.568   3.523  0.0066 -0.5348 -0.0766
   34MOL   C48417050   6.469   3.719   3.497 -0.0202 -0.0781 -0.1431
   34MOL   C48517051   6.385   3.770   3.392 -0.0182 -0.1458  0.4027
   34MOL   C48617052   6.393   3.900   3.345  0.2978  0.7072  0.5728
   34MOL   C48717053   6.484   3.986   3.411  0.0357  0.4825  0.5747
   34MOL   C48817054   6.567   3.934   3.517 -0.6635 -0.2080 -0.4026
   34MOL   C48917055   6.561   3.802   3.561  0.2828  0.3769 -0.1730
   34MOL   H49017056   6.395   3.516   4.093 -3.9850  2.1939  0.4690
   34MOL   H49117057   6.260   3.540   3.989 -0.6028  0.5889  0.2633
   34MOL   H49217058   6.614   3.590   3.999  0.3030 -1.2160  0.1868
   34MOL   H49317059   6.498   3.720   3.972  0.9170  0.7003 -1.1274
   34MOL   H49417060   6.601   3.670   3.840  1.2565 -1.7435  0.3213
   34MOL   H49517061   6.544   3.521   3.464 -1.2311 -0.9159 -1.4465
   34MOL   H49617062   6.361   3.545   3.501  0.3090 -1.1639 -0.8944
   34MOL   H49717063   6.316   3.706   3.339  1.2506 -0.0551 -1.3975
   34MOL   H49817064   6.334   3.934   3.260 -2.0400  0.2174  1.9555
   34MOL   H49917065   6.505   4.085   3.373  2.3877 -0.0400  0.4134
   34MOL   H50017066   6.636   4.001   3.567 -1.4230  0.8464 -0.7248
   34MOL   H50117067   6.637   3.777   3.634  0.9493  4.1805  0.5656
   34MOL   H50217068   6.519   3.429   3.885  1.2187  1.1260 -0.5277
   35MOL     C117069   7.815   0.469   1.288  0.2281  0.0295  0.5118
   35MOL     C217070   7.708   0.449   1.179  0.2258  0.1171  0.7718
   35MOL     C317071   7.642   0.313   1.209 -0.4839 -0.0338 -0.7213
   35MOL     C417072   7.787   0.441   1.043 -0.7373  0.5214  0.6777
   35MOL     O517073   7.904   0.471   1.040 -0.2186 -0.0399 -0.2624
   35MOL     O617074   7.712   0.408   0.935  0.2670 -0.1511  0.5395
   35MOL     C717075   7.775   0.427   0.804  0.1376  0.2887  0.4137
   35MOL     C817076   7.684   0.383   0.692  1.0937 -0.1594 -0.1967
   35MOL     C917077   7.713   0.271   0.615 -0.5681  0.4811 -0.0560
   35MOL    C1017078   7.637   0.235   0.509 -0.2899 -0.0669  0.0185
   35MOL    C1117079   7.517   0.304   0.480 -0.1155  0.2103  0.3930
   35MOL    C1217080   7.482   0.418   0.556  0.4231  0.3653 -0.3793
   35MOL    C1317081   7.569   0.462   0.661  0.2190  0.3778 -0.4084
   35MOL    H1417082   7.767   0.497   1.382  2.9413  1.7064  1.4567
   35MOL    H1517083   7.888   0.392   1.312  0.8368  0.7317  0.9574
   35MOL    H1617084   7.610   0.308   1.313  2.4297  0.4468  0.2463
   35MOL    H1717085   7.700   0.226   1.176  0.6099  1.0573 -1.7235
   35MOL    H1817086   7.547   0.297   1.158 -1.1336 -1.2331  0.8390
   35MOL    H1917087   7.805   0.530   0.786 -0.1798 -0.0640 -2.3014
   35MOL    H2017088   7.871   0.374   0.802  0.3930  0.6252  2.2815
   35MOL    H2117089   7.797   0.211   0.645  0.6486  0.4309 -3.3390
   35MOL    H2217090   7.668   0.157   0.441  0.2283 -0.4565  0.6962
   35MOL    H2317091   7.445   0.287   0.401 -1.0424  1.6726  0.8922
   35MOL    H2417092   7.381   0.452   0.537 -0.1896 -1.0951  0.1197
   35MOL    H2517093   7.531   0.541   0.723 -2.8890 -1.8350  0.6489
   35MOL    H2617094   7.883   0.551   1.265  0.5567 -0.2968  0.3004
   35MOL    C2717095   7.593   0.556   1.177 -0.5456 -0.7927  0.6687
   35MOL    C2817096   7.622   0.710   1.147 -0.5397 -0.2128  0.6339
   35MOL    C2917097   7.684   0.725   1.002 -0.2492 -0.5571 -0.9173
   35MOL    C3017098   7.721   0.773   1.251 -0.2730  0.2663  0.2975
   35MOL    O3117099   7.820   0.831   1.212 -0.6116  0.7107  0.0109
   35MOL    O3217100   7.696   0.748   1.380 -0.0023  0.4194  0.3345
   35MOL    C3317101   7.788   0.808   1.478  0.0160 -0.2473  0.5474
   35MOL    C3417102   7.763   0.953   1.507 -0.1977  0.2150 -0.2290
   35MOL    C3517103   7.826   1.046   1.421 -0.4228 -0.1184  0.0117
   35MOL    C3617104   7.806   1.184   1.451  0.6399  0.1458  0.9088
   35MOL    C3717105   7.732   1.224   1.564  0.3537  0.0505  0.2405
   35MOL    C3817106   7.671   1.127   1.646 -0.4271 -0.0378  0.1581
   35MOL    C3917107   7.684   0.989   1.616  0.3260  0.1605 -0.1963
   35MOL    H4017108   7.544   0.559   1.274  0.0156  0.1823  0.9344
   35MOL    H4117109   7.532   0.524   1.093  0.6984  1.2976 -1.0983
   35MOL    H4217110   7.643   0.666   0.920 -0.0969  0.8524 -2.0278
   35MOL    H4317111   7.789   0.699   1.007  0.3755  2.0960  0.5604
   35MOL    H4417112   7.669   0.823   0.955 -0.5999 -1.0381 -1.8220
   35MOL    H4517113   7.778   0.752   1.570  0.9844 -1.8105 -0.2921
   35MOL    H4617114   7.890   0.785   1.449  0.6511  1.9406  0.9086
   35MOL    H4717115   7.898   1.014   1.346  0.0084  0.2392  0.2712
   35MOL    H4817116   7.857   1.259   1.393  0.2449 -0.8460 -0.7497
   35MOL    H4917117   7.727   1.330   1.585  1.3364 -0.1257  1.4336
   35MOL    H5017118   7.617   1.167   1.729 -0.7523  1.1596 -0.6249
   35MOL    H5117119   7.637   0.923   1.687  1.2975 -1.6208 -1.1496
   35MOL    C5217120   7.477   0.771   1.153  0.1302 -0.4903 -0.2454
   35MOL    C5317121   7.452   0.925   1.178 -0.0777  0.0816  0.2049
   35MOL    C5417122   7.566   1.024   1.138 -0.0542  0.8894  0.2859
   35MOL    C5517123   7.425   0.943   1.334  0.2705  0.5249 -0.0222
   35MOL    O5617124   7.481   1.027   1.399  0.1958  0.1861 -0.2321
   35MOL    O5717125   7.324   0.872   1.378 -0.1190  0.3484 -0.4235
   35MOL    C5817126   7.289   0.880   1.518  0.2699 -0.5092 -0.4258
   35MOL    C5917127   7.361   0.783   1.617  0.5909  0.1059 -0.2679
   35MOL    C6017128   7.342   0.806   1.747  0.6476 -0.6321  0.4536
   35MOL    C6117129   7.411   0.731   1.846 -0.0775 -0.1993  0.5958
   35MOL    C6217130   7.494   0.628   1.806 -0.7038  0.1234 -0.4413
   35MOL    C6317131   7.522   0.610   1.668 -0.0781 -0.3739 -0.2755
   35MOL    C6417132   7.456   0.685   1.575  0.5667  0.0134  0.5080
   35MOL    H6517133   7.429   0.724   1.238  2.0304 -0.5987  0.7967
   35MOL    H6617134   7.419   0.738   1.067 -4.0098  2.6425  1.1796
   35MOL    H6717135   7.522   1.124   1.134 -1.6710  0.1727 -0.1024
   35MOL    H6817136   7.604   0.996   1.039  0.1973 -0.1307  0.6623
   35MOL    H6917137   7.653   1.026   1.204  0.1046 -1.2834  0.1748
   35MOL    H7017138   7.288   0.979   1.562  3.1493 -1.3312  1.6717
   35MOL    H7117139   7.181   0.866   1.520  0.3318 -0.9268  3.6459
   35MOL    H7217140   7.281   0.890   1.776  2.5727  1.3218 -0.9928
   35MOL    H7317141   7.389   0.744   1.951  1.5246 -2.0923  1.2020
   35MOL    H7417142   7.534   0.556   1.876 -1.5325  0.5440  0.4842
   35MOL    H7517143   7.593   0.534   1.639 -1.4848 -2.0694  0.6880
   35MOL    H7617144   7.478   0.666   1.471 -3.1185 -0.6771 -0.2213
   35MOL    C7717145   7.316   0.973   1.115 -0.5680 -0.2732  0.6911
   35MOL    C7817146   7.296   1.044   0.975  0.9283  0.0952 -0.8035
   35MOL    C7917147   7.383   0.993   0.861  0.6515  0.1407 -0.7917
   35MOL    C8017148   7.316   1.197   1.000 -0.0214  0.3309  0.0702
   35MOL    O8117149   7.416   1.257   0.954  0.5536  0.0272 -0.1673
   35MOL    O8217150   7.234   1.254   1.093 -0.8270 -0.0144  0.2636
   35MOL    C8317151   7.250   1.387   1.144 -0.4527 -0.2000  0.6057
   35MOL    C8417152   7.255   1.390   1.298 -0.2318 -0.1383  0.0131
   35MOL    C8517153   7.350   1.313   1.372  0.2825 -0.0297 -0.7603
   35MOL    C8617154   7.354   1.318   1.514  0.6596  0.8697 -0.0761
   35MOL    C8717155   7.269   1.410   1.580  0.3066 -0.2926  0.5092
   35MOL    C8817156   7.170   1.478   1.504 -0.0013  0.1329  0.5564
   35MOL    C8917157   7.168   1.477   1.367 -0.0694 -0.5642  0.8282
   35MOL    H9017158   7.259   1.032   1.187 -0.7872 -0.3664  0.5948
   35MOL    H9117159   7.268   0.875   1.110  0.4172 -0.6577 -2.9458
   35MOL    H9217160   7.351   1.022   0.761 -1.3748  1.6979  0.2602
   35MOL    H9317161   7.397   0.885   0.863 -1.1177 -0.1519 -2.3057
   35MOL    H9417162   7.482   1.035   0.879  0.2238  0.1949  1.6529
   35MOL    H9517163   7.346   1.426   1.110 -0.1092 -2.8727 -1.7102
   35MOL    H9617164   7.172   1.455   1.111 -0.6176  0.3801  2.1497
   35MOL    H9717165   7.436   1.266   1.326  0.2931 -1.8325  1.0517
   35MOL    H9817166   7.438   1.264   1.555  0.2431  0.8851  0.8058
   35MOL    H9917167   7.275   1.411   1.687  2.0919 -1.7921  0.4500
   35MOL   H10017168   7.093   1.537   1.552  1.3553  0.9084  1.8175
   35MOL   H10117169   7.100   1.537   1.309  0.2784 -0.1729  0.8199
   35MOL   C10217170   7.144   1.040   0.925 -0.5339  0.2222  0.6646
   35MOL   C10317171   7.055   0.908   0.906  0.5407 -0.3209 -0.1882
   35MOL   C10417172   6.958   0.948   0.784  0.1438 -0.4728 -0.0193
   35MOL   C10517173   6.958   0.887   1.024 -0.2470  0.7462 -0.6451
   35MOL   O10617174   6.846   0.839   1.009  0.3672  1.0792  0.0798
   35MOL   O10717175   7.000   0.926   1.146 -0.3183 -0.1703 -0.0061
   35MOL   C10817176   6.913   0.937   1.257  0.2000 -0.0295  0.1338
   35MOL   C10917177   6.846   1.074   1.267  0.4619 -0.6542  0.6437
   35MOL   C11017178   6.914   1.182   1.336 -0.0367 -0.5227  0.5972
   35MOL   C11117179   6.866   1.314   1.330  0.4847 -0.0635  0.5870
   35MOL   C11217180   6.752   1.346   1.255 -0.6902 -0.2345  0.3289
   35MOL   C11317181   6.686   1.239   1.189  0.6592  0.1721 -0.3640
   35MOL   C11417182   6.728   1.106   1.197 -0.8483  0.1885 -0.2699
   35MOL   H11517183   7.140   1.101   0.834 -0.2374 -1.2980 -0.3937
   35MOL   H11617184   7.078   1.104   0.983 -0.7616  2.5057 -2.0017
   35MOL   H11717185   7.010   0.982   0.695 -3.2593  0.4377 -1.7293
   35MOL   H11817186   6.910   1.035   0.828 -1.0757 -0.1015 -2.0482
   35MOL   H11917187   6.882   0.874   0.759 -0.6424  0.2711  0.1773
   35MOL   H12017188   6.836   0.861   1.265  0.5192 -0.2178  1.5280
   35MOL   H12117189   6.982   0.924   1.340  0.1065  1.0023  0.3780
   35MOL   H12217190   7.006   1.167   1.389 -0.0742  0.1684  0.8588
   35MOL   H12317191   6.916   1.391   1.387  0.5633  0.3970 -0.0942
   35MOL   H12417192   6.720   1.449   1.247 -0.7656 -0.1535  1.5417
   35MOL   H12517193   6.599   1.264   1.130 -0.6259  2.7053  2.4898
   35MOL   H12617194   6.671   1.034   1.141 -1.6849  1.3628 -0.9267
   35MOL   C12717195   7.141   0.778   0.877 -0.1540 -0.1284 -0.5702
   35MOL   C12817196   7.088   0.628   0.872 -0.8110  0.6770  0.1720
   35MOL   C12917197   7.207   0.556   0.807  0.1926 -0.6129  0.0641
   35MOL   C13017198   6.967   0.613   0.766 -0.3779  0.1894  0.3978
   35MOL   O13117199   6.856   0.586   0.806  0.5250 -0.2981  0.2336
   35MOL   O13217200   6.997   0.625   0.638 -0.6458 -0.1895  0.2191
   35MOL   C13317201   6.902   0.605   0.531  0.1058 -0.1007 -1.0139
   35MOL   C13417202   6.962   0.624   0.393  0.2617 -0.5231 -0.2634
   35MOL   C13517203   6.999   0.513   0.315 -0.1965 -0.0682 -0.6354
   35MOL   C13617204   7.046   0.526   0.184 -0.2451  0.2640 -0.2003
   35MOL   C13717205   7.052   0.654   0.125  0.1577  0.7961  0.1701
   35MOL   C13817206   7.034   0.767   0.211 -0.7228 -0.7270  0.0197
   35MOL   C13917207   6.984   0.753   0.342 -0.7084  0.1924  0.5559
   35MOL   H14017208   7.222   0.775   0.949  0.6585 -0.8254 -1.4998
   35MOL   H14117209   7.196   0.793   0.784 -1.3947 -1.9739 -1.6361
   35MOL   H14217210   7.203   0.448   0.796  2.1255 -0.6674 -0.2691
   35MOL   H14317211   7.300   0.567   0.862  0.1683 -2.1735  0.4453
   35MOL   H14417212   7.236   0.582   0.705 -3.1034  1.1444 -0.4885
   35MOL   H14517213   6.842   0.514   0.538 -0.5434  0.4207  0.3082
   35MOL   H14617214   6.838   0.693   0.528 -0.7022 -0.6902 -1.2924
   35MOL   H14717215   6.987   0.417   0.363  0.7704  0.7327  1.2685
   35MOL   H14817216   7.069   0.438   0.125  0.7636 -0.5954  1.4388
   35MOL   H14917217   7.070   0.660   0.019  1.2618  2.4094  0.4357
   35MOL   H15017218   7.037   0.869   0.176 -0.9729 -0.3075  1.2051
   35MOL   H15117219   6.957   0.838   0.403  1.9456  0.8348  0.9363
   35MOL   C15217220   7.064   0.569   1.014 -0.3599  0.4669  0.1483
   35MOL   C15317221   7.056   0.414   1.057 -0.0485  0.2257  0.1788
   35MOL   C15417222   7.196   0.336   1.036 -0.0814 -0.5244 -0.4326
   35MOL   C15517223   6.942   0.352   0.967  0.1266 -0.5016  0.7205
   35MOL   O15617224   6.833   0.345   1.020  0.4472  0.6432 -0.3989
   35MOL   O15717225   6.979   0.305   0.842 -0.0186  0.2261  0.0790
   35MOL   C15817226   6.868   0.278   0.754 -0.0335  1.1119 -0.5074
   35MOL   C15917227   6.917   0.236   0.617 -0.0403 -0.1960 -0.2490
   35MOL   C16017228   6.820   0.219   0.516 -0.0813 -0.2840 -0.6996
   35MOL   C16117229   6.858   0.184   0.387 -0.2278 -0.3288 -0.0219
   35MOL   C16217230   6.993   0.155   0.362 -0.6098 -0.1245 -0.5245
   35MOL   C16317231   7.093   0.173   0.465 -0.3186 -0.1960 -0.2592
   35MOL   C16417232   7.053   0.213   0.591  0.5815 -0.5390  0.2127
   35MOL   H16517233   6.976   0.619   1.054  0.3925  0.6486  1.6310
   35MOL   H16617234   7.153   0.611   1.060 -0.7392 -3.1470  4.5942
   35MOL   H16717235   7.200   0.294   0.935 -0.5665  0.9406 -1.0853
   35MOL   H16817236   7.235   0.267   1.110  2.3267 -0.4849 -1.6294
   35MOL   H16917237   7.275   0.411   1.024  0.2720 -0.8123  0.0909
   35MOL   H17017238   6.806   0.199   0.798  0.3649  1.1968  0.2193
   35MOL   H17117239   6.810   0.369   0.741 -0.7239  0.6118 -0.9490
   35MOL   H17217240   6.714   0.230   0.533  0.2312  0.3218  0.9776
   35MOL   H17317241   6.786   0.165   0.308 -0.4024 -2.0299  0.5326
   35MOL   H17417242   7.034   0.130   0.265 -0.1506 -0.2364 -0.2999
   35MOL   H17517243   7.196   0.153   0.439 -0.6310 -2.7095  0.4033
   35MOL   H17617244   7.128   0.231   0.667 -1.1349  4.1749  0.9761
   35MOL   C17717245   7.013   0.389   1.208  0.3227 -0.2025  0.6857
   35MOL   C17817246   7.101   0.443   1.331  0.9456  0.8416 -0.0874
   35MOL   C17917247   7.144   0.593   1.310 -0.3528 -0.2172  0.2812
   35MOL   C18017248   7.227   0.358   1.357 -0.0286 -0.0229  0.4164
   35MOL   O18117249   7.335   0.406   1.374  0.2859  0.6802  0.1219
   35MOL   O18217250   7.205   0.229   1.355  0.3366 -0.3383  0.1492
   35MOL   C18317251   7.309   0.144   1.399 -0.4170 -0.1520 -0.4429
   35MOL   C18417252   7.280   8.006   1.357  0.3777 -0.3832  0.1061
   35MOL   C18517253   7.392   7.923   1.334  0.2974  0.0400 -0.4389
   35MOL   C18617254   7.374   7.789   1.302 -0.0388  0.5269  0.1533
   35MOL   C18717255   7.240   7.734   1.290  0.3527 -0.1941  0.2749
   35MOL   C18817256   7.128   7.821   1.308 -0.4229 -0.3353  0.8173
   35MOL   C18917257   7.147   7.955   1.352  0.0010  0.0059  0.7647
   35MOL   H19017258   6.998   0.281   1.214 -1.7077 -0.2174 -2.8549
   35MOL   H19117259   6.923   0.451   1.204  0.1353 -0.5454 -0.7611
   35MOL   H19217260   7.228   0.609   1.242  0.3793  2.3512  1.7042
   35MOL   H19317261   7.173   0.638   1.405 -0.3983  0.6173 -0.0881
   35MOL   H19417262   7.067   0.663   1.276  0.8817  0.9817 -0.1206
   35MOL   H19517263   7.408   0.181   1.373 -0.4987  1.5838  1.5825
   35MOL   H19617264   7.303   0.152   1.508  1.9581  2.9003 -0.4930
   35MOL   H19717265   7.489   7.962   1.359 -0.3430  0.2507  1.8312
   35MOL   H19817266   7.458   7.722   1.287  0.3580  1.2867 -1.1530
   35MOL   H19917267   7.226   7.633   1.254  1.9587 -0.4503  0.3004
   35MOL   H20017268   7.030   7.777   1.298  0.2919 -1.3507 -2.0849
   35MOL   H20117269   7.072   0.021   1.380 -0.2316  0.0244  0.1061
   35MOL   C20217270   6.999   0.437   1.450 -0.4314  0.3689 -0.7418
   35MOL   C20317271   7.028   0.439   1.607 -0.7446  0.1653  1.1285
   35MOL   C20417272   7.153   0.532   1.637  0.0235 -0.2610  1.4361
   35MOL   C20517273   7.061   0.300   1.647 -0.9922  0.1646  0.1259
   35MOL   O20617274   7.175   0.274   1.685  0.1251  0.1345 -0.0311
   35MOL   O20717275   6.969   0.201   1.637 -0.4016  0.0023 -0.1107
   35MOL   C20817276   6.995   0.072   1.686 -0.5176 -0.3805  0.5704
   35MOL   C20917277   6.924   0.040   1.815 -0.2364  0.2318 -0.4422
   35MOL   C21017278   6.845   7.931   1.822  0.1050  0.2560 -0.5502
   35MOL   C21117279   6.797   7.891   1.954 -0.5074  0.0335 -0.2867
   35MOL   C21217280   6.821   7.975   2.066 -0.1012 -0.2383 -0.1094
   35MOL   C21317281   6.888   0.087   2.051 -0.2456  0.4013 -0.2385
   35MOL   C21417282   6.949   0.116   1.928  0.2290 -0.3043  0.1948
   35MOL   H21517283   6.946   0.342   1.440  0.8134 -0.6021  1.4618
   35MOL   H21617284   6.925   0.513   1.424  1.3624  2.3569 -0.2122
   35MOL   H21717285   7.248   0.502   1.591 -0.5803  2.9541 -2.2027
   35MOL   H21817286   7.181   0.519   1.742  0.1077 -2.0115  1.2196
   35MOL   H21917287   7.140   0.637   1.612 -0.7642 -0.7004 -0.0601
   35MOL   H22017288   6.957   0.012   1.604  0.1201  0.3596 -0.2761
   35MOL   H22117289   7.101   0.048   1.685 -0.1588  1.1466  1.0471
   35MOL   H22217290   6.835   7.864   1.738  0.8875 -2.0673  1.1236
   35MOL   H22317291   6.738   7.800   1.953 -0.3518 -0.0887  1.0309
   35MOL   H22417292   6.774   7.952   2.160 -1.7344 -0.5290 -0.9835
   35MOL   H22517293   6.890   0.155   2.136  0.2821 -0.3609  0.3611
   35MOL   H22617294   6.996   0.213   1.933  0.3641 -0.4220  1.4103
   35MOL   C22717295   6.898   0.485   1.690 -0.3586  0.7762 -0.5747
   35MOL   C22817296   6.845   0.634   1.703 -0.5474  0.4843  0.2131
   35MOL   C22917297   6.828   0.696   1.563 -0.3211  0.4341  0.0386
   35MOL   C23017298   6.942   0.721   1.780 -0.2621  0.1088 -0.2179
   35MOL   O23117299   6.967   0.837   1.736 -0.4814  0.4655  0.1627
   35MOL   O23217300   6.984   0.667   1.890 -0.2141 -0.1292  0.0230
   35MOL   C23317301   7.052   0.754   1.980  0.4724  0.8476 -0.0893
   35MOL   C23417302   7.150   0.678   2.058 -0.4869  0.0864 -0.3163
   35MOL   C23517303   7.214   0.744   2.170  0.7127 -0.3456  0.7947
   35MOL   C23617304   7.302   0.680   2.260  0.2640  0.2771 -0.1117
   35MOL   C23717305   7.322   0.544   2.243  0.0110 -0.4494 -0.1132
   35MOL   C23817306   7.271   0.477   2.130  0.3011 -0.2888 -0.6050
   35MOL   C23917307   7.183   0.543   2.040  0.2654  0.7622 -0.2609
   35MOL   H24017308   6.901   0.450   1.794 -1.8466 -0.5192 -0.9603
   35MOL   H24117309   6.812   0.429   1.656 -1.2138  0.7570  1.5193
   35MOL   H24217310   6.805   0.802   1.566 -1.0916  0.3010 -0.9022
   35MOL   H24317311   6.765   0.649   1.487 -0.8842  0.3469  0.5554
   35MOL   H24417312   6.923   0.702   1.510 -1.3533 -0.8776 -2.0296
   35MOL   H24517313   7.114   0.824   1.923 -0.3024  0.2159 -1.7554
   35MOL   H24617314   6.983   0.801   2.050 -0.4488 -2.0459  1.0093
   35MOL   H24717315   7.194   0.850   2.182  0.3154 -0.3281  0.0557
   35MOL   H24817316   7.352   0.734   2.340 -0.2231 -0.9393  1.0300
   35MOL   H24917317   7.393   0.485   2.299  2.0213  0.6860 -1.4027
   35MOL   H25017318   7.294   0.372   2.122  0.8667 -0.2535  0.5470
   35MOL   H25117319   7.139   0.489   1.958 -0.4513  3.3788 -1.6566
   35MOL   C25217320   6.699   0.638   1.760 -0.6976 -0.1151 -0.3031
   35MOL   C25317321   6.638   0.560   1.892  0.0145  0.1707 -1.0610
   35MOL   C25417322   6.732   0.592   2.008 -0.3694  0.2883 -0.3013
   35MOL   C25517323   6.634   0.406   1.876  0.0025 -0.1704 -0.8848
   35MOL   O25617324   6.654   0.328   1.973  0.6343  0.0643  0.6503
   35MOL   O25717325   6.587   0.368   1.757  0.0784  0.0614 -0.4061
   35MOL   C25817326   6.598   0.234   1.718 -0.0260 -0.0407  0.0692
   35MOL   C25917327   6.557   0.220   1.574 -0.1248  0.9030  0.1412
   35MOL   C26017328   6.642   0.263   1.468 -0.0678  0.0615 -0.4367
   35MOL   C26117329   6.597   0.262   1.335 -0.0303  0.1913  0.4498
   35MOL   C26217330   6.479   0.193   1.297 -0.3170  0.2339 -0.0229
   35MOL   C26317331   6.403   0.134   1.399 -0.1418 -0.0442  0.8236
   35MOL   C26417332   6.439   0.152   1.536  0.0939 -0.7058 -0.1434
   35MOL   H26517333   6.634   0.593   1.685 -1.9089 -1.2076  1.3445
   35MOL   H26617334   6.658   0.739   1.760 -1.0757 -0.2630 -1.0052
   35MOL   H26717335   6.767   0.696   2.011  1.3645 -0.3086  0.6762
   35MOL   H26817336   6.812   0.520   1.992 -0.2366 -0.2005  2.3790
   35MOL   H26917337   6.684   0.571   2.103  2.9916  0.9302  1.6470
   35MOL   H27017338   6.703   0.202   1.720 -0.0372 -0.0075  2.6209
   35MOL   H27117339   6.552   0.163   1.786 -0.1999  0.8667  0.9086
   35MOL   H27217340   6.741   0.302   1.486 -0.9798  2.4961 -0.3904
   35MOL   H27317341   6.661   0.297   1.255 -1.1326  0.0890 -0.4895
   35MOL   H27417342   6.451   0.180   1.194 -2.5354 -1.8969  0.7938
   35MOL   H27517343   6.313   0.076   1.384  0.1082 -0.6192  1.4962
   35MOL   H27617344   6.375   0.104   1.609 -0.2449 -0.8038 -0.5085
   35MOL   C27717345   6.499   0.626   1.934  0.6057  0.1365 -0.0490
   35MOL   C27817346   6.364   0.629   1.848 -0.3489 -0.0185 -0.2447
   35MOL   C27917347   6.302   0.493   1.852  0.9228 -0.1515 -0.6902
   35MOL   C28017348   6.377   0.658   1.692 -0.4556 -1.1425  0.0877
   35MOL   O28117349   6.364   0.571   1.607 -0.2798  0.8411 -0.4840
   35MOL   O28217350   6.416   0.778   1.666  0.4383 -0.0886  0.9476
   35MOL   C28317351   6.431   0.816   1.531 -0.4031  0.0700 -0.8933
   35MOL   C28417352   6.462   0.966   1.527 -0.1362  0.4890 -1.2367
   35MOL   C28517353   6.528   1.037   1.630  0.4762 -0.4650  0.5676
   35MOL   C28617354   6.564   1.173   1.617  0.8527  0.2128 -0.6245
   35MOL   C28717355   6.514   1.243   1.502 -0.4565  0.2978 -0.0001
   35MOL   C28817356   6.438   1.178   1.400 -0.5909  0.1582  0.3888
   35MOL   C28917357   6.416   1.040   1.416 -0.0423  0.1607 -0.7222
   35MOL   H29017358   6.509   0.728   1.971 -0.7061 -0.3430  1.7053
   35MOL   H29117359   6.469   0.585   2.030 -0.5825  1.7719  0.2853
   35MOL   H29217360   6.215   0.499   1.786  1.5609 -0.8229 -1.6060
   35MOL   H29317361   6.280   0.464   1.955 -1.2340 -0.0992 -1.1217
   35MOL   H29417362   6.355   0.416   1.796  0.8013 -0.8860  0.2036
   35MOL   H29517363   6.521   0.762   1.501 -0.7437 -0.8135 -0.3341
   35MOL   H29617364   6.356   0.798   1.454  2.2626 -1.9628 -3.1547
   35MOL   H29717365   6.557   0.983   1.719 -1.4371  1.1877  2.2520
   35MOL   H29817366   6.628   1.227   1.686  0.3621 -0.2887  0.2362
   35MOL   H29917367   6.543   1.345   1.484 -3.0402  1.2035  0.7997
   35MOL   H30017368   6.393   1.226   1.315 -0.1397  0.1290  0.1347
   35MOL   H30117369   6.354   0.983   1.347  0.1223 -0.7460 -0.1288
   35MOL   C30217370   6.268   0.745   1.909  0.1397  0.7790  0.0547
   35MOL   C30317371   6.179   0.743   2.035 -0.2876  0.7564  0.7050
   35MOL   C30417372   6.058   0.648   2.010 -0.2477  0.8836  0.0390
   35MOL   C30517373   6.123   0.888   2.053 -0.2830  0.2071 -0.7478
   35MOL   O30617374   6.000   0.907   2.075 -0.4823 -0.2645  0.3948
   35MOL   O30717375   6.220   0.984   2.066  0.1246 -0.4580  0.1727
   35MOL   C30817376   6.194   1.114   2.119 -0.3941  0.1962 -0.8280
   35MOL   C30917377   6.309   1.217   2.118  0.0859 -0.3938 -0.0049
   35MOL   C31017378   6.434   1.186   2.051  0.0925 -0.7013  0.2002
   35MOL   C31117379   6.546   1.273   2.062  0.9384 -0.1033 -0.2455
   35MOL   C31217380   6.528   1.395   2.126  0.0541 -0.1770 -0.3045
   35MOL   C31317381   6.407   1.423   2.196 -0.4793 -0.5224 -0.0759
   35MOL   C31417382   6.292   1.338   2.188 -0.0093  0.5793  0.4050
   35MOL   H31517383   6.199   0.769   1.829 -0.2039 -1.1458 -0.2549
   35MOL   H31617384   6.335   0.830   1.923 -0.5501  1.0545  1.8413
   35MOL   H31717385   6.006   0.670   1.917  1.4008 -0.6022 -1.2686
   35MOL   H31817386   5.987   0.668   2.090 -1.2127 -0.4360 -0.4527
   35MOL   H31917387   6.082   0.542   2.019  2.7975  1.4080 -1.1604
   35MOL   H32017388   6.107   1.153   2.066 -0.2413  2.8922  0.8022
   35MOL   H32117389   6.165   1.099   2.223  2.1771  1.4129  0.1178
   35MOL   H32217390   6.435   1.094   1.994  0.8338 -1.3519  1.2577
   35MOL   H32317391   6.636   1.246   2.009  0.8085 -0.1819 -0.4233
   35MOL   H32417392   6.613   1.459   2.140  0.1771 -0.7525  1.6795
   35MOL   H32517393   6.417   1.511   2.258  0.3348  0.5209 -1.6411
   35MOL   H32617394   6.205   1.358   2.248 -0.9248  0.0215 -0.7105
   35MOL   C32717395   6.270   0.708   2.165  0.3603 -0.8640  0.3707
   35MOL   C32817396   6.222   0.724   2.316 -0.8233  0.5564 -0.5981
   35MOL   C32917397   6.077   0.667   2.338  0.2732 -1.3171 -0.4730
   35MOL   C33017398   6.228   0.866   2.361  0.3098 -0.3195 -0.3324
   35MOL   O33117399   6.317   0.946   2.335 -0.0482 -0.4809  0.2072
   35MOL   O33217400   6.121   0.905   2.435 -0.1724 -0.3503  0.3583
   35MOL   C33317401   6.101   1.041   2.485 -0.1251  0.4061 -0.1904
   35MOL   C33417402   6.006   1.129   2.407  0.2684 -0.2491  0.3345
   35MOL   C33517403   5.912   1.061   2.322  1.0720 -0.3459  0.6992
   35MOL   C33617404   5.824   1.135   2.237 -1.0508  0.0875 -0.0753
   35MOL   C33717405   5.821   1.272   2.241 -0.1975 -0.4516  0.2662
   35MOL   C33817406   5.910   1.339   2.324  0.1626  0.1371 -0.0560
   35MOL   C33917407   6.004   1.271   2.401 -0.1352  0.3566 -0.2957
   35MOL   H34017408   6.360   0.769   2.154  1.1721 -1.5702  2.7110
   35MOL   H34117409   6.304   0.604   2.164 -1.9671 -1.6536  1.0359
   35MOL   H34217410   5.995   0.719   2.289  0.7082 -1.6579 -1.5854
   35MOL   H34317411   6.043   0.681   2.440 -2.7160 -2.7058 -1.2121
   35MOL   H34417412   6.086   0.560   2.318  1.7904 -0.9672 -1.7443
   35MOL   H34517413   6.063   1.031   2.586  1.5561 -1.6828  0.2779
   35MOL   H34617414   6.193   1.099   2.495  1.0695 -1.5708  0.5645
   35MOL   H34717415   5.924   0.955   2.306  0.9458 -0.7073  2.7696
   35MOL   H34817416   5.763   1.079   2.168 -0.6735 -1.8518  1.1260
   35MOL   H34917417   5.758   1.328   2.173 -0.2349  0.1290  0.7753
   35MOL   H35017418   5.901   1.447   2.331  2.6326  0.2206  2.6040
   35MOL   H35117419   6.070   1.336   2.457 -0.6530  1.4927 -0.9756
   35MOL   C35217420   6.318   0.627   2.399  0.8474  0.0808  1.4641
   35MOL   C35317421   6.343   0.639   2.549 -0.1874  1.0407 -0.2677
   35MOL   C35417422   6.213   0.648   2.640 -0.4533 -0.0551  0.5926
   35MOL   C35517423   6.441   0.756   2.581 -0.3340 -0.4243  0.4670
   35MOL   O35617424   6.428   0.818   2.687  0.5161  0.3670 -0.4143
   35MOL   O35717425   6.523   0.792   2.483  0.0842  0.1765  0.6038
   35MOL   C35817426   6.605   0.916   2.494  0.7939  0.3877  0.6694
   35MOL   C35917427   6.754   0.889   2.498  0.0306 -0.2374 -0.6388
   35MOL   C36017428   6.837   0.973   2.572 -0.4405  0.3210 -0.1685
   35MOL   C36117429   6.982   0.955   2.559  0.4214  0.6963 -0.1685
   35MOL   C36217430   7.036   0.847   2.483  0.5930 -0.9750 -0.1443
   35MOL   C36317431   6.951   0.759   2.414  0.4316  0.0692 -0.6553
   35MOL   C36417432   6.808   0.780   2.417  0.4577  0.0552 -0.6426
   35MOL   H36517433   6.412   0.619   2.343 -0.6474 -0.0683 -1.0853
   35MOL   H36617434   6.275   0.531   2.372 -1.0278  1.3321 -0.1235
   35MOL   H36717435   6.231   0.624   2.745  1.2723 -1.4772 -0.0117
   35MOL   H36817436   6.143   0.576   2.599 -0.9974  1.3707 -1.0450
   35MOL   H36917437   6.156   0.741   2.634 -0.4706 -0.0378  1.0565
   35MOL   H37017438   6.586   0.981   2.408 -0.0093 -1.1970 -0.3590
   35MOL   H37117439   6.596   0.967   2.590 -0.9112  0.6091  0.3947
   35MOL   H37217440   6.793   1.053   2.630  0.5196 -0.0650  1.1218
   35MOL   H37317441   7.055   1.017   2.609  0.9572 -0.1254  0.0686
   35MOL   H37417442   7.140   0.820   2.480  0.3140 -2.4580  2.0664
   35MOL   H37517443   6.986   0.677   2.352 -0.3449  0.1944 -1.2645
   35MOL   H37617444   6.749   0.722   2.347  1.1126  0.9406 -1.9550
   35MOL   C37717445   6.400   0.496   2.599 -0.5507 -0.4840  0.3574
   35MOL   C37817446   6.527   0.414   2.560 -0.5897  0.1349 -0.1410
   35MOL   C37917447   6.658   0.486   2.616 -0.0191  0.3973  0.1749
   35MOL   C38017448   6.545   0.402   2.407 -0.0591 -0.0965 -0.6215
   35MOL   O38117449   6.643   0.456   2.351  0.5192  0.6053  0.4006
   35MOL   O38217450   6.446   0.327   2.348 -0.1317 -0.1156  0.0050
   35MOL   C38317451   6.447   0.296   2.209  0.4555  0.0689  0.5349
   35MOL   C38417452   6.321   0.248   2.150 -0.0796  0.4134  0.1184
   35MOL   C38517453   6.329   0.177   2.028 -0.0458 -0.1984 -0.1186
   35MOL   C38617454   6.213   0.142   1.949 -0.0752 -0.0627 -0.7110
   35MOL   C38717455   6.086   0.173   2.009 -0.2710  0.3887 -0.2046
   35MOL   C38817456   6.077   0.239   2.135 -0.2845  0.6702  0.3404
   35MOL   C38917457   6.194   0.276   2.204  0.3863  0.1935  0.5283
   35MOL   H39017458   6.313   0.430   2.596 -1.0940  0.2883 -1.1428
   35MOL   H39117459   6.403   0.516   2.706 -0.9540 -0.2035  0.3175
   35MOL   H39217460   6.750   0.434   2.585  0.1545  0.9491 -0.2358
   35MOL   H39317461   6.650   0.477   2.724  0.1107 -0.7059  0.0994
   35MOL   H39417462   6.660   0.593   2.597  0.4128 -0.0373 -2.4421
   35MOL   H39517463   6.483   0.384   2.156 -1.3357  1.1535  1.0567
   35MOL   H39617464   6.527   0.226   2.187 -0.0571 -0.3779  0.0563
   35MOL   H39717465   6.428   0.156   1.990 -0.1203 -0.0785 -0.3790
   35MOL   H39817466   6.225   0.097   1.851 -0.7981 -2.0450  0.0765
   35MOL   H39917467   5.992   0.155   1.959 -0.9902  1.7227  0.6278
   35MOL   H40017468   5.980   0.245   2.183 -0.0229 -0.2057  0.9910
   35MOL   H40117469   6.191   0.325   2.299  1.6050 -1.9236  1.6902
   35MOL   C40217470   6.502   0.267   2.617  0.2599  0.0974 -0.1534
   35MOL   C40317471   6.608   0.142   2.605  0.4832  0.0117  0.0413
   35MOL   C40417472   6.686   0.130   2.737  0.4915 -0.0127 -0.3144
   35MOL   C40517473   6.705   0.156   2.490 -0.1015  0.0050 -0.4225
   35MOL   O40617474   6.677   0.119   2.379 -0.7271  0.4617 -0.0536
   35MOL   O40717475   6.822   0.216   2.523  0.3544 -0.1054  0.0829
   35MOL   C40817476   6.929   0.232   2.432  0.1759  0.2886 -0.4911
   35MOL   C40917477   7.062   0.239   2.504 -0.3785  0.0305 -0.0725
   35MOL   C41017478   7.077   0.327   2.616 -0.0918 -0.0496 -0.2588
   35MOL   C41117479   7.194   0.322   2.695  0.4347  0.1445  0.4631
   35MOL   C41217480   7.296   0.235   2.663  0.5055  0.2130  0.3800
   35MOL   C41317481   7.289   0.160   2.543  0.4332 -0.2466  0.1200
   35MOL   C41417482   7.172   0.157   2.467  0.4359 -1.0722  0.6188
   35MOL   H41517483   6.406   0.238   2.573  0.1155  1.8795 -1.0585
   35MOL   H41617484   6.489   0.280   2.725 -1.9127 -3.3077  0.0697
   35MOL   H41717485   6.749   0.217   2.750  0.1546 -0.0557  1.7067
   35MOL   H41817486   6.751   0.042   2.744 -1.3703 -1.4178 -0.1719
   35MOL   H41917487   6.613   0.139   2.818  0.0742 -2.7287 -0.3333
   35MOL   H42017488   6.922   0.152   2.358  1.6332  0.0445 -0.3799
   35MOL   H42117489   6.914   0.329   2.384 -1.0180 -0.0019 -0.7144
   35MOL   H42217490   6.998   0.396   2.642 -0.0589  0.1774 -0.7538
   35MOL   H42317491   7.198   0.381   2.786  1.3651  1.3105 -0.3272
   35MOL   H42417492   7.380   0.232   2.731  1.3811  0.5586 -0.6818
   35MOL   H42517493   7.371   0.095   2.517  0.9580  0.1349  0.7898
   35MOL   H42617494   7.166   0.093   2.380  0.0552  0.2081 -0.3004
   35MOL   C42717495   6.524   0.002   2.584  0.2785 -0.4563 -0.8823
   35MOL   C42817496   6.420   7.959   2.687 -0.2066  0.7608  0.3243
   35MOL   C42917497   6.341   0.054   2.774 -0.5054 -0.5087 -0.6777
   35MOL   C43017498   6.498   7.861   2.781  0.0192 -0.2878  0.6282
   35MOL   O43117499   6.532   7.748   2.749  0.0600  0.0137 -0.4107
   35MOL   O43217500   6.532   7.929   2.890  0.4067 -0.4439  0.2920
   35MOL   C43317501   6.638   7.873   2.970 -0.0536  0.0473 -0.2600
   35MOL   C43417502   6.673   7.967   3.079 -0.1250  0.4619 -0.0888
   35MOL   C43517503   6.589   7.981   3.190  0.3739 -0.2814  0.2545
   35MOL   C43617504   6.628   0.069   3.284 -0.1257 -0.3067 -0.4345
   35MOL   C43717505   6.743   0.151   3.264 -0.1355 -0.4041 -0.2711
   35MOL   C43817506   6.825   0.131   3.150 -0.0694 -0.0433 -0.0058
   35MOL   C43917507   6.789   0.035   3.056 -0.1076 -0.5709  0.9601
   35MOL   H44017508   6.580   7.920   2.557  0.8221 -0.4669  0.2422
   35MOL   H44117509   6.467   0.027   2.495  0.0585 -1.5327 -1.0494
   35MOL   H44217510   6.275   0.123   2.720 -0.0393 -0.6733 -1.4661
   35MOL   H44317511   6.390   0.109   2.854 -1.4378 -1.5774  0.6365
   35MOL   H44417512   6.271   7.994   2.823  1.2078 -1.6722  0.1928
   35MOL   H44517513   6.600   7.778   3.008  0.3589 -0.6202 -1.4728
   35MOL   H44617514   6.724   7.840   2.912 -1.0814  0.6925 -2.1870
   35MOL   H44717515   6.496   7.930   3.207  0.0327 -0.1899 -1.2173
   35MOL   H44817516   6.567   0.087   3.371 -2.1862 -1.9950 -1.5015
   35MOL   H44917517   6.770   0.226   3.337 -0.2596 -0.7105  0.0888
   35MOL   H45017518   6.901   0.205   3.129 -0.7041  0.0060 -2.3021
   35MOL   H45117519   6.845   0.013   2.967  0.2790 -0.7713  1.2561
   35MOL   C45217520   6.307   7.874   2.621 -0.4842 -0.1899  0.3835
   35MOL   C45317521   6.167   7.920   2.562 -0.7669  0.2516  0.6292
   35MOL   C45417522   6.189   0.023   2.457  0.3085 -0.0410 -0.2865
   35MOL   C45517523   6.063   7.963   2.665 -0.1324  0.3869 -0.0155
   35MOL   O45617524   6.012   0.066   2.651 -0.0267  0.2044  0.1593
   35MOL   O45717525   6.042   7.882   2.780 -0.5969  0.4144 -0.0011
   35MOL   C45817526   5.935   7.916   2.866 -0.0904  0.5957 -0.1069
   35MOL   C45917527   5.794   7.861   2.836  0.1084  0.1366 -0.3905
   35MOL   C46017528   5.679   7.945   2.841 -0.2024 -0.1084 -0.2244
   35MOL   C46117529   5.553   7.893   2.802  0.2055 -0.3676  0.1103
   35MOL   C46217530   5.541   7.755   2.779 -0.5407  0.0739 -0.2918
   35MOL   C46317531   5.655   7.668   2.783 -0.0212  0.1059  0.7419
   35MOL   C46417532   5.780   7.723   2.809 -0.0743  0.2216 -0.1780
   35MOL   H46517533   6.274   7.805   2.699 -0.4714  1.1182  1.5712
   35MOL   H46617534   6.350   7.807   2.547  2.4576  2.8538 -0.8097
   35MOL   H46717535   6.217   0.112   2.513  2.0899 -1.7090  1.5801
   35MOL   H46817536   6.098   0.049   2.402  0.2507 -0.0988 -0.2176
   35MOL   H46917537   6.270   0.001   2.388 -0.9741 -0.2971 -1.7324
   35MOL   H47017538   5.972   7.877   2.960 -0.8470  1.6052  0.6249
   35MOL   H47117539   5.937   0.018   2.871  0.9953  0.4967  2.0955
   35MOL   H47217540   5.691   0.043   2.862 -0.4762 -0.6182  2.7033
   35MOL   H47317541   5.465   7.956   2.806  0.7733  0.5230 -0.9431
   35MOL   H47417542   5.448   7.712   2.745 -0.2166 -1.9846  1.2960
   35MOL   H47517543   5.641   7.561   2.775  1.5819 -0.2044  1.9046
   35MOL   H47617544   5.867   7.660   2.813  0.7192  1.3898  2.4807
   35MOL   C47717545   6.102   7.796   2.486  0.2714  0.4675  0.0306
   35MOL   C47817546   6.168   7.744   2.356  0.1772 -0.0609  0.9277
   35MOL   C47917547   6.121   7.813   2.229  0.0106 -0.2439 -0.3904
   35MOL   C48017548   6.143   7.590   2.346 -0.0781  0.6307 -0.0533
   35MOL   O48117549   6.231   7.507   2.370 -0.1868  0.4163  0.2616
   35MOL   O48217550   6.019   7.561   2.307 -0.0106  0.3293  0.3916
   35MOL   C48317551   5.967   7.433   2.307 -1.0157  0.2898 -0.2457
   35MOL   C48417552   5.933   7.381   2.167 -0.3859  0.8276 -0.0287
   35MOL   C48517553   5.923   7.243   2.135 -0.1519  0.3657  0.2346
   35MOL   C48617554   5.877   7.205   2.007  0.0499 -0.0116 -0.1376
   35MOL   C48717555   5.841   7.297   1.910 -0.2350  0.2203  0.1846
   35MOL   C48817556   5.858   7.431   1.938 -0.4852  0.4761  0.0320
   35MOL   C48917557   5.905   7.474   2.062  0.6972  0.5600  0.1790
   35MOL   H49017558   5.996   7.809   2.464  0.0894 -2.3596 -0.9060
   35MOL   H49117559   6.103   7.722   2.565 -0.8751 -0.0709 -0.4493
   35MOL   H49217560   6.044   7.889   2.238  1.9285  1.7847 -0.6337
   35MOL   H49317561   6.099   7.747   2.144  0.4380 -1.6800  0.6032
   35MOL   H49417562   6.206   7.873   2.197 -0.2826 -0.0728 -0.8556
   35MOL   H49517563   6.044   7.359   2.331 -2.9705 -1.5206  0.6552
   35MOL   H49617564   5.881   7.430   2.374 -0.5387  2.7096  0.5010
   35MOL   H49717565   5.949   7.170   2.210  1.5477  1.7325  1.0157
   35MOL   H49817566   5.872   7.098   1.993 -1.5814 -0.0986  0.9277
   35MOL   H49917567   5.807   7.259   1.815 -2.6165  1.8344  0.3542
   35MOL   H50017568   5.839   7.502   1.860  1.7723  0.3140 -0.7152
   35MOL   H50117569   5.909   7.580   2.084 -0.2299  0.5652  0.3781
   35MOL   H50217570   6.277   7.745   2.364  0.3065 -2.4623 -0.1438
   36MOL     C117571   7.439   2.901   2.313 -0.0976  0.3738 -0.2105
   36MOL     C217572   7.315   2.930   2.405  0.0561  0.3245 -0.0005
   36MOL     C317573   7.358   2.890   2.544 -0.7091  1.1114 -0.1754
   36MOL     C417574   7.201   2.829   2.364 -0.1620 -0.8719 -0.2470
   36MOL     O517575   7.211   2.736   2.279  0.2417  0.7421  0.0798
   36MOL     O617576   7.079   2.857   2.425  0.1792  0.5888 -0.5618
   36MOL     C717577   6.966   2.781   2.392 -0.4425  0.0978  0.0778
   36MOL     C817578   6.879   2.739   2.510  0.4859  0.4979 -0.6176
   36MOL     C917579   6.865   2.598   2.537 -0.7430 -1.4929 -0.4734
   36MOL    C1017580   6.783   2.542   2.638 -0.2187 -0.3096 -0.3003
   36MOL    C1117581   6.717   2.637   2.714  0.4736  0.0023 -0.2035
   36MOL    C1217582   6.726   2.779   2.697 -0.5123 -0.2348  0.1812
   36MOL    C1317583   6.810   2.830   2.594 -0.2540 -0.0786  0.1130
   36MOL    H1417584   7.414   2.927   2.210  0.0495 -0.8389 -0.5645
   36MOL    H1517585   7.534   2.948   2.336 -0.2720 -0.3806  2.1393
   36MOL    H1617586   7.281   2.881   2.621  0.2256 -1.6621  0.4826
   36MOL    H1717587   7.438   2.952   2.585 -0.3987 -1.3687  3.1862
   36MOL    H1817588   7.395   2.788   2.548  0.7498  1.5692 -1.4941
   36MOL    H1917589   6.899   2.832   2.322 -1.4733 -1.8809 -0.4165
   36MOL    H2017590   7.003   2.697   2.334  0.7596 -1.1472  2.6249
   36MOL    H2117591   6.925   2.526   2.483  1.7756  2.7223 -3.5626
   36MOL    H2217592   6.766   2.437   2.655 -1.5585  0.1669  1.4676
   36MOL    H2317593   6.639   2.596   2.776  0.2995 -2.3192 -1.8848
   36MOL    H2417594   6.661   2.839   2.759 -0.8612 -1.1866  0.7541
   36MOL    H2517595   6.804   2.937   2.579  2.1809  0.1879  0.7852
   36MOL    H2617596   7.458   2.794   2.309 -1.4958  0.0936  0.2981
   36MOL    C2717597   7.258   3.085   2.390 -0.3947 -0.4415 -0.3235
   36MOL    C2817598   7.240   3.164   2.260  0.2917 -0.7779 -0.2348
   36MOL    C2917599   7.153   3.080   2.163 -0.4568 -0.2209  0.1819
   36MOL    C3017600   7.373   3.196   2.196  0.1297  0.6638 -0.3761
   36MOL    O3117601   7.382   3.198   2.073 -0.3835 -0.3567  0.0692
   36MOL    O3217602   7.476   3.240   2.277  0.5355  0.3281  0.3619
   36MOL    C3317603   7.595   3.289   2.208  0.3318 -0.1296  0.0856
   36MOL    C3417604   7.706   3.314   2.314  0.6017 -0.4195  0.0449
   36MOL    C3517605   7.789   3.430   2.308 -0.1831  0.2852 -0.4178
   36MOL    C3617606   7.898   3.437   2.396  0.4495 -0.1811  0.2879
   36MOL    C3717607   7.919   3.349   2.505 -0.8159  0.8533  0.6734
   36MOL    C3817608   7.824   3.246   2.518  0.0508 -0.3517 -0.4532
   36MOL    C3917609   7.724   3.228   2.422 -0.0999 -0.0476  0.0035
   36MOL    H4017610   7.317   3.147   2.457  0.5588 -1.5295 -0.1518
   36MOL    H4117611   7.167   3.085   2.450  0.4784  0.6167  1.0289
   36MOL    H4217612   7.077   3.028   2.221  0.9294  0.0862  2.3106
   36MOL    H4317613   7.212   3.011   2.102  1.5585  0.6084  1.1331
   36MOL    H4417614   7.107   3.143   2.086 -0.8344 -1.4441 -0.6163
   36MOL    H4517615   7.638   3.208   2.149 -1.0588 -2.0286  1.5980
   36MOL    H4617616   7.573   3.380   2.153 -1.7507 -0.7577 -0.1782
   36MOL    H4717617   7.775   3.499   2.226 -1.9836 -0.9333 -1.1562
   36MOL    H4817618   7.985   3.501   2.388  0.8006 -0.7793 -0.7930
   36MOL    H4917619   8.005   3.342   2.570 -1.4885 -1.5802  1.3433
   36MOL    H5017620   7.837   3.185   2.606 -0.2423 -0.6158 -0.5931
   36MOL    H5117621   7.655   3.146   2.435  2.2092 -2.2329 -1.0463
   36MOL    C5217622   7.176   3.306   2.296 -0.1778  0.4782  0.1490
   36MOL    C5317623   7.043   3.333   2.377 -0.3373  0.2927  0.6522
   36MOL    C5417624   7.063   3.322   2.528 -0.6836  0.2380  0.5910
   36MOL    C5517625   6.937   3.229   2.325  0.1236 -0.1450  0.0160
   36MOL    O5617626   6.882   3.144   2.393 -0.0681  0.1570 -0.2018
   36MOL    O5717627   6.903   3.249   2.197 -0.1864  0.0501 -0.2756
   36MOL    C5817628   6.828   3.150   2.132 -0.1773 -0.4125 -0.5133
   36MOL    C5917629   6.755   3.204   2.008  0.3644 -0.1198  0.1545
   36MOL    C6017630   6.828   3.272   1.919  0.0441  0.2891  0.1381
   36MOL    C6117631   6.775   3.327   1.805 -0.2282 -0.4893  0.1589
   36MOL    C6217632   6.640   3.301   1.776 -0.1201  0.1843  0.4125
   36MOL    C6317633   6.557   3.242   1.866 -0.4837  0.7377  0.0690
   36MOL    C6417634   6.617   3.193   1.983  0.2990  0.0004  0.3605
   36MOL    H6517635   7.174   3.354   2.198 -0.2924  1.8309  0.8142
   36MOL    H6617636   7.249   3.357   2.358  1.4969 -1.2907 -0.3124
   36MOL    H6717637   6.980   3.355   2.591  0.6161  2.6050  1.1247
   36MOL    H6817638   7.147   3.381   2.565 -0.4235 -0.5406  1.2638
   36MOL    H6917639   7.081   3.222   2.567 -0.5487 -0.6926 -1.7514
   36MOL    H7017640   6.887   3.058   2.128  1.4862  0.6092  0.0591
   36MOL    H7117641   6.746   3.123   2.198  1.7558 -1.4167  1.5180
   36MOL    H7217642   6.935   3.273   1.932 -0.1145  2.6846  1.6764
   36MOL    H7317643   6.843   3.378   1.738  1.6730 -2.3673  0.6063
   36MOL    H7417644   6.594   3.331   1.683 -0.4280 -0.3749  0.3778
   36MOL    H7517645   6.451   3.236   1.845  0.1510 -0.2168 -3.0385
   36MOL    H7617646   6.558   3.154   2.065  1.6391  0.1150  1.3992
   36MOL    C7717647   7.013   3.480   2.332 -0.5168  0.2198  0.5010
   36MOL    C7817648   6.896   3.564   2.401  0.5462  0.1731  0.3128
   36MOL    C7917649   6.888   3.697   2.323 -0.4957 -0.6590  0.7490
   36MOL    C8017650   6.930   3.598   2.553 -0.1926 -0.9793  0.1852
   36MOL    O8117651   6.872   3.562   2.652 -0.4250 -0.7757  0.1349
   36MOL    O8217652   7.041   3.673   2.558 -0.8957 -0.7408  0.3170
   36MOL    C8317653   7.114   3.700   2.674 -0.4852 -0.0937 -0.5389
   36MOL    C8417654   7.208   3.823   2.667 -0.3323  0.2584 -0.3252
   36MOL    C8517655   7.152   3.949   2.696 -0.7454  0.0786  0.4954
   36MOL    C8617656   7.237   4.067   2.697  0.3763  0.1792 -0.0256
   36MOL    C8717657   7.374   4.053   2.683 -0.0127  0.5852 -0.0393
   36MOL    C8817658   7.421   3.923   2.653  0.2056 -0.1331 -0.1480
   36MOL    C8917659   7.343   3.809   2.636  0.1000  0.8238 -0.3059
   36MOL    H9017660   7.002   3.480   2.224  0.9950  0.3781  0.3368
   36MOL    H9117661   7.107   3.534   2.342 -0.9817  1.5623 -2.1430
   36MOL    H9217662   6.810   3.766   2.353  0.8643 -0.0109  2.8498
   36MOL    H9317663   6.853   3.663   2.225  2.2166 -3.1305  0.5694
   36MOL    H9417664   6.983   3.750   2.315 -0.2959 -1.1275 -0.0120
   36MOL    H9517665   7.055   3.716   2.764  1.0997  2.4125  0.0886
   36MOL    H9617666   7.175   3.611   2.692  2.6238  2.0545 -0.0884
   36MOL    H9717667   7.047   3.959   2.715 -0.7652  2.8079 -0.9356
   36MOL    H9817668   7.197   4.167   2.697  0.5422  0.2677 -1.6682
   36MOL    H9917669   7.437   4.140   2.681  0.2816  0.4100  1.2682
   36MOL   H10017670   7.526   3.913   2.630  0.3453 -0.3179  0.5824
   36MOL   H10117671   7.382   3.712   2.609 -0.2942  0.1550  1.4735
   36MOL   C10217672   6.765   3.481   2.385  0.7533 -0.7059  0.3789
   36MOL   C10317673   6.619   3.535   2.395 -0.3035 -0.0168 -0.1716
   36MOL   C10417674   6.535   3.402   2.406  0.2936  0.3607 -0.3153
   36MOL   C10517675   6.584   3.612   2.265  0.2262  0.3050  0.4257
   36MOL   O10617676   6.579   3.734   2.267 -0.1633 -0.4977 -0.0745
   36MOL   O10717677   6.577   3.540   2.153 -0.0053  0.6808  0.2323
   36MOL   C10817678   6.546   3.602   2.028 -0.5702  0.0353 -0.7099
   36MOL   C10917679   6.402   3.614   1.983 -0.0211  0.0280 -0.1837
   36MOL   C11017680   6.346   3.743   1.955  0.3279 -0.5586  0.4456
   36MOL   C11117681   6.211   3.763   1.931 -1.2643 -0.4522  0.6594
   36MOL   C11217682   6.125   3.655   1.949 -0.5498  0.4231 -0.3442
   36MOL   C11317683   6.181   3.525   1.970  0.1155  0.2318 -0.3637
   36MOL   C11417684   6.316   3.505   1.991  0.0427  0.1185 -0.0374
   36MOL   H11517685   6.765   3.397   2.454  2.9513 -0.9411  0.1290
   36MOL   H11617686   6.765   3.435   2.286  0.0866  1.0105 -0.4485
   36MOL   H11717687   6.556   3.332   2.325  0.2453  1.8843 -1.6813
   36MOL   H11817688   6.429   3.415   2.384  0.0076  0.6725  1.2055
   36MOL   H11917689   6.532   3.357   2.505  0.5180  0.8018 -0.1090
   36MOL   H12017690   6.601   3.695   2.019  0.8372 -0.5010  1.9125
   36MOL   H12117691   6.584   3.530   1.956  2.0147 -0.5083  1.1308
   36MOL   H12217692   6.416   3.825   1.949 -0.3328  0.1035  1.7349
   36MOL   H12317693   6.168   3.854   1.891 -1.3151 -0.9238 -0.3856
   36MOL   H12417694   6.019   3.669   1.938 -0.3477  1.8487 -0.6388
   36MOL   H12517695   6.127   3.432   1.982 -0.0233  0.3309 -0.2114
   36MOL   H12617696   6.346   3.407   2.025 -0.3702 -0.3214 -0.9384
   36MOL   C12717697   6.594   3.628   2.527 -0.1364 -0.9457  0.2283
   36MOL   C12817698   6.452   3.661   2.588  0.4861 -0.3076 -0.5841
   36MOL   C12917699   6.419   3.548   2.689  0.0688 -0.3846 -0.2205
   36MOL   C13017700   6.339   3.667   2.477 -0.1062  0.8568  0.4897
   36MOL   O13117701   6.262   3.570   2.466  0.1602  0.1462 -0.1231
   36MOL   O13217702   6.333   3.775   2.411  0.2619  0.0286  0.0701
   36MOL   C13317703   6.213   3.805   2.338  0.3419  0.6384 -0.0855
   36MOL   C13417704   6.215   3.933   2.261 -0.1129 -0.2178 -0.1750
   36MOL   C13517705   6.334   3.987   2.209 -0.5948  0.0281  0.3272
   36MOL   C13617706   6.333   4.097   2.123 -0.2713 -0.0935  0.3303
   36MOL   C13717707   6.214   4.165   2.102  0.4053 -0.3427  0.4371
   36MOL   C13817708   6.097   4.123   2.175  0.3024  0.4023 -0.4020
   36MOL   C13917709   6.090   3.999   2.245 -0.6003  0.5089  0.7710
   36MOL   H14017710   6.656   3.717   2.517 -1.3033 -0.0366  0.9128
   36MOL   H14117711   6.634   3.567   2.609  1.9478  2.5465  1.9419
   36MOL   H14217712   6.495   3.531   2.764  0.8071 -2.4260 -1.3835
   36MOL   H14317713   6.403   3.452   2.640  0.4221 -0.8782  0.6207
   36MOL   H14417714   6.321   3.565   2.734 -0.0212 -0.3040 -0.4445
   36MOL   H14517715   6.169   3.723   2.282  2.0458 -1.2460  1.3011
   36MOL   H14617716   6.136   3.818   2.414 -0.0636  1.0665 -0.5593
   36MOL   H14717717   6.420   3.925   2.231  0.5379  1.4032 -0.1315
   36MOL   H14817718   6.423   4.126   2.071 -0.2887  1.2868  1.0674
   36MOL   H14917719   6.210   4.258   2.047 -0.5556 -0.3080  0.5546
   36MOL   H15017720   6.006   4.182   2.175 -0.2249 -0.3736 -2.1384
   36MOL   H15117721   5.997   3.967   2.289 -0.7828 -2.9187 -1.9674
   36MOL   C15217722   6.456   3.806   2.659  0.4280 -0.3522 -0.1194
   36MOL   C15317723   6.523   3.841   2.797  0.4401  0.1213  0.6015
   36MOL   C15417724   6.671   3.785   2.797  0.2813 -0.0897  0.0959
   36MOL   C15517725   6.444   3.767   2.912 -0.2764  0.3197 -0.1963
   36MOL   O15617726   6.502   3.721   3.010  0.7057 -0.4494 -0.0275
   36MOL   O15717727   6.307   3.766   2.899 -0.4426 -0.1980  1.1974
   36MOL   C15817728   6.219   3.702   2.998  1.0490  0.3058  0.1358
   36MOL   C15917729   6.070   3.738   2.987 -0.6358 -0.7389  0.0765
   36MOL   C16017730   5.990   3.719   2.874  0.4451  0.5031 -0.5015
   36MOL   C16117731   5.858   3.768   2.874  0.1091  0.2855  0.5266
   36MOL   C16217732   5.805   3.825   2.985 -0.1734  0.4411 -0.8156
   36MOL   C16317733   5.876   3.827   3.106  0.3759  0.2384  0.1315
   36MOL   C16417734   6.014   3.786   3.103 -0.1492  1.1902  0.1898
   36MOL   H16517735   6.350   3.832   2.666  0.2437 -0.9677 -0.6788
   36MOL   H16617736   6.491   3.882   2.589  0.1828  1.1777  1.3909
   36MOL   H16717737   6.714   3.810   2.894 -3.5567 -0.9853  2.1313
   36MOL   H16817738   6.742   3.827   2.725  1.7549  0.2362  1.6992
   36MOL   H16917739   6.687   3.679   2.778  3.1135  0.2468  0.3881
   36MOL   H17017740   6.234   3.594   3.001  1.7766  0.3864 -0.3698
   36MOL   H17117741   6.257   3.732   3.095 -0.9623 -1.1302  1.3981
   36MOL   H17217742   6.035   3.671   2.789  0.1129  0.7959 -0.8428
   36MOL   H17317743   5.792   3.758   2.789  0.8752  2.0862 -0.2908
   36MOL   H17417744   5.699   3.845   2.986 -0.3171 -0.3294 -0.2753
   36MOL   H17517745   5.831   3.874   3.193 -3.5932 -1.2988 -0.9701
   36MOL   H17617746   6.084   3.809   3.183 -0.4518  3.2336 -0.0857
   36MOL   C17717747   6.522   3.995   2.812  0.3304 -0.6076  0.2649
   36MOL   C17817748   6.467   4.091   2.926 -0.5601  0.5676 -0.0961
   36MOL   C17917749   6.547   4.056   3.062  0.1645  0.6316 -0.1837
   36MOL   C18017750   6.316   4.069   2.945  0.9870  0.3966 -0.4175
   36MOL   O18117751   6.257   4.031   3.048  0.1163  0.1063 -0.6058
   36MOL   O18217752   6.252   4.092   2.828  0.0828 -0.2926  0.0061
   36MOL   C18317753   6.116   4.071   2.826 -0.7691  0.2942 -0.4880
   36MOL   C18417754   6.052   4.109   2.693  0.7635  0.5141  0.1186
   36MOL   C18517755   5.941   4.029   2.637 -0.6346  0.7971  0.2829
   36MOL   C18617756   5.887   4.071   2.513  0.4058 -0.0997  0.3373
   36MOL   C18717757   5.926   4.197   2.458 -0.1071  0.5557 -0.0532
   36MOL   C18817758   6.025   4.278   2.515 -0.3544  0.7318  0.1458
   36MOL   C18917759   6.086   4.235   2.633  0.4037 -0.2436 -0.0506
   36MOL   H19017760   6.476   4.028   2.718  0.6814  0.7182  0.5490
   36MOL   H19117761   6.622   4.026   2.782  1.1285 -3.6851 -0.3788
   36MOL   H19217762   6.653   4.081   3.053  0.2506  0.9366  1.6109
   36MOL   H19317763   6.543   3.954   3.098 -0.7431  0.7224 -0.0163
   36MOL   H19417764   6.506   4.123   3.138  0.4749  1.5592 -0.8246
   36MOL   H19517765   6.095   3.964   2.830  2.1570 -0.3809 -1.8375
   36MOL   H19617766   6.063   4.119   2.908 -1.4024  0.2342 -0.8489
   36MOL   H19717767   5.908   3.934   2.675 -0.4206  0.2568 -0.8614
   36MOL   H19817768   5.809   4.016   2.462 -0.8180  1.7827  0.1455
   36MOL   H19917769   5.887   4.231   2.363  0.5740 -1.6417 -1.1335
   36MOL   H20017770   6.063   4.361   2.457  1.6705 -2.3305 -3.1277
   36MOL   H20117771   6.166   4.290   2.680 -0.2938  0.7972 -0.0819
   36MOL   C20217772   6.500   4.242   2.891  0.3156  0.1096 -0.0192
   36MOL   C20317773   6.505   4.364   3.001 -0.0426 -0.3439  0.5108
   36MOL   C20417774   6.641   4.368   3.074 -0.2449 -0.4824 -0.3089
   36MOL   C20517775   6.392   4.358   3.097  0.7560 -0.2592 -0.4193
   36MOL   O20617776   6.402   4.356   3.222  0.1023 -0.0914  0.4257
   36MOL   O20717777   6.270   4.355   3.022  0.5522 -0.0220 -0.0282
   36MOL   C20817778   6.156   4.411   3.082 -0.9149 -0.7356 -0.7481
   36MOL   C20917779   6.109   4.543   3.021 -0.6198 -0.5214  0.5883
   36MOL   C21017780   6.145   4.578   2.889 -0.4015 -0.5874 -0.3735
   36MOL   C21117781   6.116   4.708   2.838  0.1309  0.3440  0.5205
   36MOL   C21217782   6.051   4.800   2.918 -1.1220 -0.7256 -0.4173
   36MOL   C21317783   6.009   4.767   3.050 -0.5919  0.1030  0.1171
   36MOL   C21417784   6.047   4.636   3.103  0.6989  0.0152 -0.9807
   36MOL   H21517785   6.445   4.276   2.804  0.9477  0.0915 -0.4273
   36MOL   H21617786   6.598   4.228   2.845  0.1214 -0.2344 -0.3302
   36MOL   H21717787   6.652   4.281   3.140 -0.4414 -2.7331 -3.1652
   36MOL   H21817788   6.651   4.451   3.143 -2.0160  0.8248 -1.5787
   36MOL   H21917789   6.731   4.367   3.013  1.3512  1.0279  1.9179
   36MOL   H22017790   6.079   4.335   3.068 -1.7284 -0.9234  4.0135
   36MOL   H22117791   6.166   4.428   3.189 -2.2512  3.3279 -1.1696
   36MOL   H22217792   6.193   4.501   2.830  0.3118 -0.5698  0.1776
   36MOL   H22317793   6.134   4.718   2.732 -1.2547  1.4613  0.3720
   36MOL   H22417794   6.021   4.896   2.879  1.1854 -1.5414 -4.3722
   36MOL   H22517795   5.947   4.837   3.104 -1.5718 -2.3515  2.2587
   36MOL   H22617796   6.019   4.611   3.204 -0.9380 -0.2565 -1.4758
   36MOL   C22717797   6.489   4.503   2.916 -0.2854 -0.4353  0.2929
   36MOL   C22817798   6.598   4.576   2.830  0.0113 -0.4460 -0.5329
   36MOL   C22917799   6.660   4.477   2.737  0.5607  0.4493  0.6272
   36MOL   C23017800   6.699   4.638   2.934 -0.2285 -0.2269  0.2698
   36MOL   O23117801   6.670   4.704   3.037  0.2580 -0.7310 -0.2718
   36MOL   O23217802   6.829   4.619   2.892  0.2485  0.6713  0.4708
   36MOL   C23317803   6.943   4.672   2.951  0.3069 -0.3078 -0.7821
   36MOL   C23417804   7.045   4.730   2.857  1.1282  0.4010  0.1420
   36MOL   C23517805   7.101   4.857   2.887 -0.0141  0.8857 -0.7090
   36MOL   C23617806   7.197   4.917   2.798  0.3619  1.0545 -0.2342
   36MOL   C23717807   7.243   4.850   2.682  0.7782  0.4195  0.6267
   36MOL   C23817808   7.175   4.731   2.648 -0.7657 -0.2838 -0.5678
   36MOL   C23917809   7.082   4.668   2.732 -0.1832  0.6539  0.0775
   36MOL   H24017810   6.454   4.582   2.982  0.6649  0.8014 -0.6607
   36MOL   H24117811   6.400   4.485   2.855  0.3839  1.0742 -1.1698
   36MOL   H24217812   6.707   4.550   2.671  2.5470  1.5931  3.1695
   36MOL   H24317813   6.590   4.419   2.678  0.6047  2.6796 -1.6811
   36MOL   H24417814   6.740   4.417   2.780 -0.7268 -1.9076 -0.2183
   36MOL   H24517815   6.914   4.738   3.033  0.7525  1.1150 -1.7638
   36MOL   H24617816   7.003   4.595   3.001 -2.5663 -0.6682  2.2804
   36MOL   H24717817   7.065   4.914   2.971  0.4889  0.3131 -0.0972
   36MOL   H24817818   7.236   5.016   2.819  1.4523  0.2485  1.6491
   36MOL   H24917819   7.315   4.895   2.616  0.6732 -0.3833 -0.0388
   36MOL   H25017820   7.197   4.679   2.556 -0.3652  0.1248 -0.7044
   36MOL   H25117821   7.030   4.576   2.708  0.9488 -0.1304  0.5882
   36MOL   C25217822   6.527   4.698   2.759  1.0146 -0.5541  0.1484
   36MOL   C25317823   6.583   4.801   2.647  0.1305 -0.2743  0.0988
   36MOL   C25417824   6.738   4.830   2.673 -0.6676 -0.1987  0.4665
   36MOL   C25517825   6.520   4.943   2.660  1.1876  0.4948  0.0204
   36MOL   O25617826   6.515   5.015   2.557 -0.1851 -0.0922 -0.1867
   36MOL   O25717827   6.490   4.986   2.779  0.3079  0.2885 -0.7672
   36MOL   C25817828   6.435   5.115   2.799 -0.2272 -0.8597 -0.4469
   36MOL   C25917829   6.424   5.163   2.945  0.0872 -0.1381 -0.2896
   36MOL   C26017830   6.407   5.303   2.968 -0.0358  0.3567  0.3930
   36MOL   C26117831   6.404   5.350   3.099  0.3387 -1.0026  0.0041
   36MOL   C26217832   6.404   5.265   3.211 -0.1110  0.4236 -0.0429
   36MOL   C26317833   6.428   5.127   3.191  0.0604 -0.2841 -0.0547
   36MOL   C26417834   6.432   5.080   3.058 -0.3119 -0.2528  0.5442
   36MOL   H26517835   6.497   4.762   2.842 -0.9472  2.0288 -2.4310
   36MOL   H26617836   6.429   4.666   2.721  1.4843  1.1097 -2.5957
   36MOL   H26717837   6.769   4.918   2.618  0.6009 -0.9891 -0.1008
   36MOL   H26817838   6.812   4.750   2.662  2.4142  2.7924 -1.2616
   36MOL   H26917839   6.732   4.867   2.775 -0.1476  1.4555 -0.0995
   36MOL   H27017840   6.507   5.183   2.754 -1.1259  2.5619  3.0142
   36MOL   H27117841   6.343   5.128   2.741 -0.1629  0.8428 -0.1736
   36MOL   H27217842   6.404   5.371   2.884 -1.5569 -0.9134 -0.6268
   36MOL   H27317843   6.375   5.451   3.126  2.6010 -0.4403  0.4541
   36MOL   H27417844   6.415   5.310   3.309  1.5213  3.8373 -1.6901
   36MOL   H27517845   6.447   5.059   3.273 -0.4060  0.0106  0.3025
   36MOL   H27617846   6.428   4.975   3.034 -1.9885 -0.2450  0.7193
   36MOL   C27717847   6.566   4.753   2.494 -0.0878  0.4379  0.0937
   36MOL   C27817848   6.431   4.708   2.434  0.2480  0.7248 -0.4653
   36MOL   C27917849   6.314   4.798   2.485 -0.0360  0.4168 -0.1339
   36MOL   C28017850   6.413   4.559   2.469  0.4619  0.1113 -0.2320
   36MOL   O28117851   6.322   4.518   2.541 -0.1857 -0.3282  0.7341
   36MOL   O28217852   6.511   4.483   2.416 -0.4213  0.0988 -0.0152
   36MOL   C28317853   6.502   4.347   2.416  0.3530  0.1996  0.4544
   36MOL   C28417854   6.643   4.278   2.424 -0.0696 -0.5737 -0.4443
   36MOL   C28517855   6.753   4.338   2.360  1.0713 -0.0668 -0.4208
   36MOL   C28617856   6.878   4.271   2.351  0.2363  0.0195 -0.0286
   36MOL   C28717857   6.889   4.141   2.414  0.5449  0.2688 -0.5274
   36MOL   C28817858   6.778   4.088   2.482 -0.4888 -0.1217  0.1673
   36MOL   C28917859   6.656   4.158   2.491 -0.3818 -0.1047  0.3098
   36MOL   H29017860   6.645   4.682   2.469  1.6638  1.7763  1.6894
   36MOL   H29117861   6.598   4.831   2.425  0.8504 -1.0421 -1.1746
   36MOL   H29217862   6.320   4.901   2.452 -1.2955  0.0298 -1.6257
   36MOL   H29317863   6.293   4.799   2.592  1.2933 -2.2689  0.2044
   36MOL   H29417864   6.218   4.760   2.449  0.2415 -0.6300  0.1977
   36MOL   H29517865   6.437   4.310   2.496 -1.5419  0.0564 -1.1043
   36MOL   H29617866   6.464   4.303   2.324 -0.8968 -1.0406  1.5268
   36MOL   H29717867   6.736   4.428   2.304 -2.6132 -2.8637 -4.1565
   36MOL   H29817868   6.952   4.322   2.291  1.0131  0.7867  1.5215
   36MOL   H29917869   6.986   4.094   2.429  0.0409 -0.3952  0.7257
   36MOL   H30017870   6.786   3.987   2.519  1.5621  0.5479  1.6887
   36MOL   H30117871   6.572   4.120   2.546 -0.6369 -1.0734 -0.7371
   36MOL   C30217872   6.438   4.721   2.271 -0.3623  0.2258 -0.1458
   36MOL   C30317873   6.316   4.743   2.183 -0.6393  0.0848  0.5414
   36MOL   C30417874   6.254   4.882   2.192 -0.2568  0.9715 -0.0560
   36MOL   C30517875   6.201   4.646   2.208  0.1573  0.7011  0.5430
   36MOL   O30617876   6.210   4.535   2.261  0.6750  0.1066  0.1509
   36MOL   O30717877   6.091   4.691   2.154  0.8543  0.7294 -0.5603
   36MOL   C30817878   5.964   4.632   2.181 -0.1389 -1.1818  0.0565
   36MOL   C30917879   5.928   4.507   2.108 -0.0840  0.0592  0.7847
   36MOL   C31017880   5.840   4.409   2.162  0.8734  0.1188 -0.8536
   36MOL   C31117881   5.788   4.309   2.077 -1.0067 -0.4210 -0.2938
   36MOL   C31217882   5.834   4.301   1.945  0.7646  0.8856 -0.3434
   36MOL   C31317883   5.937   4.384   1.894 -0.1356  0.3042  0.0302
   36MOL   C31417884   5.979   4.490   1.977  0.4500  0.1858 -0.0516
   36MOL   H31517885   6.488   4.631   2.237 -1.7372  0.0554 -1.7366
   36MOL   H31617886   6.513   4.796   2.243  1.2681 -1.0277  0.7804
   36MOL   H31717887   6.325   4.964   2.183  1.7858 -0.8128 -0.6071
   36MOL   H31817888   6.192   4.904   2.279  1.5663 -0.2293  1.5985
   36MOL   H31917889   6.188   4.906   2.109 -1.3972  0.7465  0.7716
   36MOL   H32017890   5.971   4.601   2.285  0.6327 -1.0348  0.0516
   36MOL   H32117891   5.890   4.712   2.171 -1.2357 -2.3704 -1.6023
   36MOL   H32217892   5.811   4.418   2.266  0.2980 -1.2087 -0.8984
   36MOL   H32317893   5.719   4.234   2.113 -0.8658 -0.0811  0.7199
   36MOL   H32417894   5.792   4.223   1.882  2.1796 -0.3229  0.1825
   36MOL   H32517895   5.970   4.374   1.792 -0.1193 -1.0077  0.1524
   36MOL   H32617896   6.055   4.561   1.947 -0.5241  2.1990  2.0827
   36MOL   C32717897   6.362   4.733   2.030  0.8803 -0.3093 -0.6737
   36MOL   C32817898   6.446   4.607   1.961  0.5356 -1.0088 -0.0349
   36MOL   C32917899   6.401   4.471   2.017 -0.2272  0.2794  0.4771
   36MOL   C33017900   6.593   4.626   1.996  0.0370  0.6961 -0.2810
   36MOL   O33117901   6.667   4.530   2.021 -0.1482 -0.0976 -0.2900
   36MOL   O33217902   6.639   4.755   2.002  0.0049 -0.3462  0.0692
   36MOL   C33317903   6.781   4.777   2.006 -0.2898 -0.8302 -0.8271
   36MOL   C33417904   6.829   4.800   2.151 -0.4070 -0.0673  0.2270
   36MOL   C33517905   6.832   4.931   2.208 -0.3210 -0.1811  0.2268
   36MOL   C33617906   6.878   4.938   2.343  0.3562  0.4856  0.0138
   36MOL   C33717907   6.923   4.825   2.411 -0.1586 -0.1142  0.5760
   36MOL   C33817908   6.904   4.696   2.357  0.2869  0.1430 -0.2933
   36MOL   C33917909   6.864   4.682   2.224 -0.2765 -0.4305 -0.3126
   36MOL   H34017910   6.415   4.827   2.011  2.0670 -0.9817 -0.7565
   36MOL   H34117911   6.264   4.749   1.984 -0.2049 -1.8909  1.0302
   36MOL   H34217912   6.449   4.385   1.970  0.1620  0.8259 -0.1335
   36MOL   H34317913   6.295   4.447   2.008  0.4842 -2.3739 -1.6694
   36MOL   H34417914   6.412   4.455   2.124 -0.3328  1.0172  0.6002
   36MOL   H34517915   6.830   4.697   1.951  1.9388  0.1983 -0.3731
   36MOL   H34617916   6.800   4.871   1.957 -2.1531 -1.4212 -2.7573
   36MOL   H34717917   6.791   5.017   2.158 -1.5546 -0.6625  0.3710
   36MOL   H34817918   6.877   5.036   2.388 -3.8253  0.0750  1.0282
   36MOL   H34917919   6.973   4.834   2.506  0.3184  0.4982  0.2740
   36MOL   H35017920   6.930   4.598   2.394  0.1994  1.2912  2.9225
   36MOL   H35117921   6.850   4.588   2.175  4.8182  0.7959 -4.5468
   36MOL   C35217922   6.393   4.627   1.807  0.4066  0.3701  0.2462
   36MOL   C35317923   6.447   4.560   1.677  0.0344  0.2150 -0.1793
   36MOL   C35417924   6.399   4.417   1.672 -0.5264 -0.4159  0.1679
   36MOL   C35517925   6.600   4.548   1.679  0.8483 -0.3857  0.1793
   36MOL   O35617926   6.658   4.444   1.663  0.8128 -0.1453  0.1816
   36MOL   O35717927   6.659   4.665   1.702  0.6518  0.3387 -0.3482
   36MOL   C35817928   6.798   4.679   1.686 -0.1563 -0.0715  0.0432
   36MOL   C35917929   6.843   4.822   1.667 -0.2359  0.1703  0.9218
   36MOL   C36017930   6.979   4.853   1.698 -0.5877 -1.0285 -0.5535
   36MOL   C36117931   7.017   4.988   1.703  0.0287 -0.0543 -0.2291
   36MOL   C36217932   6.919   5.086   1.668  0.7184 -0.4902 -0.2183
   36MOL   C36317933   6.791   5.056   1.632 -0.1454 -0.2545 -0.4882
   36MOL   C36417934   6.750   4.923   1.630  0.4644 -0.2086 -0.1592
   36MOL   H36517935   6.402   4.735   1.793  2.1807  0.1701 -0.2331
   36MOL   H36617936   6.287   4.601   1.807  0.4777 -0.0086 -1.8963
   36MOL   H36717937   6.295   4.400   1.699 -0.6857 -0.2214 -0.3172
   36MOL   H36817938   6.441   4.359   1.754  0.4317  1.0702  0.7241
   36MOL   H36917939   6.426   4.358   1.584 -1.2064 -2.8984  1.5602
   36MOL   H37017940   6.857   4.632   1.764  1.8136  1.7522 -0.2996
   36MOL   H37117941   6.817   4.648   1.584  0.4442  1.5871 -0.3711
   36MOL   H37217942   7.058   4.782   1.717  1.5526  0.8049 -2.2905
   36MOL   H37317943   7.115   5.026   1.727 -0.7651  2.7968 -1.2625
   36MOL   H37417944   6.949   5.189   1.678 -2.4683  0.3753  0.8849
   36MOL   H37517945   6.715   5.131   1.615  1.4151  1.7330  1.0239
   36MOL   H37617946   6.648   4.892   1.614  0.0503  1.2248 -0.3549
   36MOL   C37717947   6.414   4.650   1.553 -0.4264  0.1512 -0.6014
   36MOL   C37817948   6.262   4.675   1.500 -1.2371 -0.4525  0.0953
   36MOL   C37917949   6.284   4.776   1.378  0.0175 -0.0686 -0.5049
   36MOL   C38017950   6.179   4.755   1.602 -0.6098  0.1258 -0.1446
   36MOL   O38117951   6.076   4.706   1.652 -0.1513 -0.3710  0.1615
   36MOL   O38217952   6.233   4.874   1.637 -0.5935 -0.0016 -0.7213
   36MOL   C38317953   6.168   4.936   1.744  0.4306  0.1252 -0.0154
   36MOL   C38417954   6.259   5.030   1.814  0.7102 -0.8257  0.5931
   36MOL   C38517955   6.207   5.120   1.915  0.6635  0.2185  0.0144
   36MOL   C38617956   6.290   5.217   1.975 -0.0291  0.0924  0.8685
   36MOL   C38717957   6.425   5.215   1.937 -0.5157  0.3704  0.5346
   36MOL   C38817958   6.481   5.127   1.837 -0.4503  0.3079  0.1743
   36MOL   C38917959   6.394   5.038   1.777 -0.4841 -0.9241  0.3833
   36MOL   H39017960   6.487   4.632   1.474 -1.4642  1.8073 -1.9798
   36MOL   H39117961   6.438   4.753   1.582 -2.3385  0.2864  0.6088
   36MOL   H39217962   6.196   4.837   1.355  0.7898  0.8335 -1.1007
   36MOL   H39317963   6.328   4.729   1.290 -0.9335  2.3126 -2.3073
   36MOL   H39417964   6.360   4.848   1.405 -0.8081  0.6966 -0.1964
   36MOL   H39517965   6.083   4.993   1.705 -0.6463 -0.7546  0.9906
   36MOL   H39617966   6.126   4.863   1.814  0.2705  0.6670  0.4570
   36MOL   H39717967   6.107   5.113   1.955 -0.0079 -0.5821 -1.7496
   36MOL   H39817968   6.255   5.269   2.063 -0.4584  0.8367  0.2628
   36MOL   H39917969   6.504   5.280   1.973  0.1176 -0.3454  0.4504
   36MOL   H40017970   6.587   5.132   1.814 -0.7100  2.1198 -0.7425
   36MOL   H40117971   6.442   4.975   1.704  1.4422  1.8832 -0.8955
   36MOL   C40217972   6.194   4.544   1.460 -0.4082 -0.7097 -0.1570
   36MOL   C40317973   6.077   4.520   1.362 -0.3764  0.1390  0.2363
   36MOL   C40417974   6.128   4.439   1.243 -0.0196  0.3583 -0.0700
   36MOL   C40517975   6.015   4.652   1.302 -0.8987 -0.3582  0.0207
   36MOL   O40617976   6.016   4.675   1.180 -0.3452  0.6484  0.4473
   36MOL   O40717977   5.966   4.734   1.394 -0.0955  0.5508 -0.8716
   36MOL   C40817978   5.884   4.837   1.345  0.1467 -0.7687 -0.1893
   36MOL   C40917979   5.816   4.913   1.457  0.3844 -0.1445 -0.4224
   36MOL   C41017980   5.867   5.038   1.489  0.2955  0.7004  0.1819
   36MOL   C41117981   5.826   5.102   1.604  0.8575  0.4190  0.3804
   36MOL   C41217982   5.706   5.060   1.675 -0.4264  0.1836 -0.2944
   36MOL   C41317983   5.645   4.943   1.627 -0.4207  0.2551 -0.3079
   36MOL   C41417984   5.706   4.864   1.525 -0.3477 -0.8897 -1.4781
   36MOL   H41517985   6.174   4.503   1.559 -0.0787 -1.2976 -0.3281
   36MOL   H41617986   6.267   4.470   1.427 -0.0233 -0.9015  1.1017
   36MOL   H41717987   6.055   4.441   1.162 -0.2494  1.2201  0.1455
   36MOL   H41817988   6.150   4.334   1.259  0.4230  0.4036 -0.3647
   36MOL   H41917989   6.220   4.479   1.201  2.2469 -2.6833  1.7752
   36MOL   H42017990   5.939   4.909   1.285 -0.4463  0.0023  0.1761
   36MOL   H42117991   5.808   4.809   1.272 -0.9284  0.3209  0.4808
   36MOL   H42217992   5.955   5.073   1.436 -1.1362  1.0656 -2.0131
   36MOL   H42317993   5.882   5.190   1.630 -0.2618  0.9277  1.0917
   36MOL   H42417994   5.671   5.125   1.753  3.0948  2.0197 -0.1388
   36MOL   H42517995   5.550   4.909   1.666 -0.5033  0.3095 -0.4627
   36MOL   H42617996   5.657   4.774   1.493 -0.9455 -0.6259 -1.3176
   36MOL   C42717997   5.967   4.434   1.450 -0.3849  0.7538  0.0585
   36MOL   C42817998   5.835   4.367   1.392  0.0433  0.7872 -0.7246
   36MOL   C42917999   5.879   4.241   1.309 -0.6713 -0.6054 -0.6254
   36MOL   C43018000   5.756   4.473   1.308  0.6362  0.1950  0.7296
   36MOL   O43118001   5.702   4.567   1.363  0.3527 -0.2493 -0.3999
   36MOL   O43218002   5.750   4.448   1.182 -0.2172 -0.4733 -0.6723
   36MOL   C43318003   5.710   4.544   1.093 -0.4548 -0.2719  0.0551
   36MOL   C43418004   5.739   4.507   0.950 -0.3485  0.4379 -0.6227
   36MOL   C43518005   5.853   4.571   0.897 -0.5850 -0.3225  0.5049
   36MOL   C43618006   5.897   4.545   0.765 -0.4862 -0.5559 -0.1751
   36MOL   C43718007   5.827   4.449   0.689 -0.6625 -0.6137  0.4621
   36MOL   C43818008   5.703   4.401   0.737  0.0073 -0.2802 -0.3225
   36MOL   C43918009   5.664   4.415   0.871  0.3067 -0.6846  0.0423
   36MOL   H44018010   5.933   4.512   1.518 -3.5300 -0.3537 -0.1387
   36MOL   H44118011   6.017   4.363   1.515  0.7866  0.9445 -0.6171
   36MOL   H44218012   5.797   4.178   1.275  0.2762 -2.9513  1.3213
   36MOL   H44318013   5.949   4.184   1.368 -1.1061  1.2158  1.7285
   36MOL   H44418014   5.939   4.266   1.221  0.4949  0.8937  0.5902
   36MOL   H44518015   5.602   4.560   1.098 -0.5819 -1.4754  1.5861
   36MOL   H44618016   5.764   4.633   1.123  0.5823 -1.2184  1.0169
   36MOL   H44718017   5.902   4.641   0.964 -1.9253  0.5285  0.6119
   36MOL   H44818018   5.984   4.597   0.727 -0.1503  0.9959  2.5794
   36MOL   H44918019   5.857   4.429   0.587  1.0725 -1.6557  1.1585
   36MOL   H45018020   5.650   4.322   0.685 -0.7304  0.2115 -0.3143
   36MOL   H45118021   5.572   4.374   0.910  0.1220  2.1898  2.7944
   36MOL   C45218022   5.756   4.320   1.517  0.1696 -0.4413 -0.0236
   36MOL   C45318023   5.612   4.259   1.518 -0.0287  0.1616  0.0783
   36MOL   C45418024   5.593   4.152   1.411  0.1565  0.4871  0.5587
   36MOL   C45518025   5.504   4.369   1.507 -0.3621  0.2096 -0.5455
   36MOL   O45618026   5.437   4.386   1.397  0.4276 -0.2339  0.2849
   36MOL   O45718027   5.499   4.459   1.605 -0.2307 -0.2438  0.2101
   36MOL   C45818028   5.431   4.579   1.589 -0.3806  0.0167 -0.4386
   36MOL   C45918029   5.303   4.572   1.660  0.1119 -0.4735 -0.5288
   36MOL   C46018030   5.207   4.472   1.635  0.3356 -0.9002 -0.4112
   36MOL   C46118031   5.082   4.472   1.710  0.1215 -0.4546  0.1018
   36MOL   C46218032   5.060   4.571   1.805  0.6671  0.6768 -0.6192
   36MOL   C46318033   5.153   4.675   1.829 -0.8909  0.0017  0.9417
   36MOL   C46418034   5.273   4.663   1.762  0.7585  0.0165 -0.3328
   36MOL   H46518035   5.749   4.403   1.586  1.9745 -2.3450  2.5167
   36MOL   H46618036   5.822   4.242   1.555 -2.1356 -2.9776 -1.0417
   36MOL   H46718037   5.605   4.193   1.311  0.5833 -0.8420  0.0545
   36MOL   H46818038   5.492   4.111   1.409 -1.0140  3.2238  0.8015
   36MOL   H46918039   5.654   4.062   1.412 -0.9660 -0.2902  1.2424
   36MOL   H47018040   5.499   4.652   1.632 -0.4125  0.5425 -1.2814
   36MOL   H47118041   5.419   4.620   1.489 -2.5152  0.4141 -0.0248
   36MOL   H47218042   5.217   4.389   1.567  0.6375 -0.5954 -0.7390
   36MOL   H47318043   5.015   4.388   1.700 -1.5683  0.8783  0.0636
   36MOL   H47418044   4.966   4.574   1.858  0.2240 -0.5708 -1.3313
   36MOL   H47518045   5.143   4.749   1.907  1.2699 -0.5687  1.7877
   36MOL   H47618046   5.358   4.725   1.787  1.1908  0.0001 -1.6787
   36MOL   C47718047   5.598   4.199   1.666 -0.0395 -0.0345  0.4819
   36MOL   C47818048   5.472   4.115   1.691 -0.1250  0.6675  0.1606
   36MOL   C47918049   5.387   4.185   1.806  0.5193  0.6304 -0.5657
   36MOL   C48018050   5.505   3.973   1.742  0.3116 -0.2289  0.1788
   36MOL   O48118051   5.517   3.942   1.859 -0.2205 -0.2334  0.1715
   36MOL   O48218052   5.510   3.883   1.639  0.5362 -0.0005 -0.3682
   36MOL   C48318053   5.522   3.741   1.664 -0.2913  0.1221 -0.9651
   36MOL   C48418054   5.606   3.663   1.569 -0.5591  0.5276 -0.4017
   36MOL   C48518055   5.637   3.531   1.594 -0.1776  0.2195 -0.1495
   36MOL   C48618056   5.708   3.455   1.496 -0.0215 -0.1897 -0.4340
   36MOL   C48718057   5.743   3.514   1.373 -0.0855 -0.2604 -0.1276
   36MOL   C48818058   5.716   3.650   1.354  0.3197 -0.3994  0.2792
   36MOL   C48918059   5.641   3.725   1.448  0.1371 -0.4824  0.5513
   36MOL   H49018060   5.597   4.279   1.740  0.5171 -1.6618  2.3348
   36MOL   H49118061   5.697   4.155   1.680 -0.3773 -0.6714  0.9150
   36MOL   H49218062   5.305   4.124   1.845 -1.6619  4.0101  0.3252
   36MOL   H49318063   5.348   4.279   1.767 -0.6669 -0.1745 -1.3590
   36MOL   H49418064   5.449   4.214   1.891  1.9198 -0.6059 -1.1439
   36MOL   H49518065   5.578   3.731   1.757  2.2486 -1.2615 -2.5528
   36MOL   H49618066   5.423   3.698   1.676 -0.5214  0.5224 -1.4112
   36MOL   H49718067   5.615   3.488   1.691 -0.4619  1.9900  0.5894
   36MOL   H49818068   5.735   3.352   1.514  1.3866  0.3026  0.3509
   36MOL   H49918069   5.783   3.450   1.296  0.9636 -0.1149  0.2938
   36MOL   H50018070   5.750   3.700   1.265  2.6389  0.6626  1.7028
   36MOL   H50118071   5.607   3.825   1.423  0.1022 -0.5837  0.1869
   36MOL   H50218072   5.409   4.123   1.602 -0.5410  0.2832  0.4200
   37MOL     C118073   6.421   5.396   6.707 -0.4455  0.2580 -0.2005
   37MOL     C218074   6.562   5.332   6.683  0.4970  0.3631 -0.3049
   37MOL     C318075   6.534   5.193   6.620 -0.7934 -0.4509 -0.0026
   37MOL     C418076   6.633   5.325   6.814 -0.0843  0.4371  0.1651
   37MOL     O518077   6.689   5.222   6.862 -0.2031  0.0136  0.4147
   37MOL     O618078   6.630   5.438   6.886 -0.7259  0.2478  0.0791
   37MOL     C718079   6.709   5.441   7.009  0.2423  0.6279 -0.4327
   37MOL     C818080   6.722   5.576   7.071 -0.4845 -0.7408 -0.1442
   37MOL     C918081   6.822   5.593   7.170  0.8457  0.5312  0.3089
   37MOL    C1018082   6.844   5.718   7.242  0.1706 -0.0510 -0.1799
   37MOL    C1118083   6.760   5.827   7.199 -0.4022 -0.5459 -0.3899
   37MOL    C1218084   6.660   5.807   7.101  0.4770  0.0292  0.4504
   37MOL    C1318085   6.647   5.684   7.029 -0.1512  0.6857 -0.3840
   37MOL    H1418086   6.370   5.413   6.613 -1.5223  2.3510  0.7271
   37MOL    H1518087   6.359   5.324   6.761 -0.6372  1.5100  1.2981
   37MOL    H1618088   6.625   5.172   6.564 -0.1124  2.3262 -0.0142
   37MOL    H1718089   6.455   5.180   6.546 -0.3108 -1.1063 -0.3974
   37MOL    H1818090   6.523   5.118   6.698 -1.3902 -0.7648 -0.3817
   37MOL    H1918091   6.660   5.378   7.083  0.7821  1.7050  0.8576
   37MOL    H2018092   6.806   5.394   6.998  0.8774  2.0951 -1.2508
   37MOL    H2118093   6.872   5.498   7.181 -0.9569 -1.0741 -4.2076
   37MOL    H2218094   6.927   5.733   7.310 -0.3638 -0.1784  0.5012
   37MOL    H2318095   6.766   5.920   7.253 -0.3903 -0.7150 -0.0980
   37MOL    H2418096   6.604   5.887   7.056  2.6218  1.4565  0.2396
   37MOL    H2518097   6.580   5.665   6.947 -0.9946  1.6701  0.0754
   37MOL    H2618098   6.411   5.488   6.764 -1.5723 -0.5957  1.0289
   37MOL    C2718099   6.638   5.431   6.583  0.4886 -0.2166 -0.0309
   37MOL    C2818100   6.789   5.425   6.551 -0.1739 -0.1473 -0.7155
   37MOL    C2918101   6.848   5.285   6.544 -0.7368 -0.3987 -0.0709
   37MOL    C3018102   6.875   5.495   6.660 -0.2575  1.1348  0.0209
   37MOL    O3118103   6.947   5.433   6.737  0.1029 -0.6390  0.9597
   37MOL    O3218104   6.850   5.622   6.667  0.2038  0.5998  0.2713
   37MOL    C3318105   6.897   5.681   6.785  0.5649  0.0975 -0.0624
   37MOL    C3418106   6.845   5.823   6.802 -0.3361  0.2219  0.6158
   37MOL    C3518107   6.726   5.859   6.745  0.3221 -0.5993 -0.2515
   37MOL    C3618108   6.666   5.985   6.771 -0.0208  0.2225 -0.0214
   37MOL    C3718109   6.722   6.072   6.864  0.4160 -0.5482  0.9450
   37MOL    C3818110   6.841   6.039   6.923 -0.5295 -0.3125  0.4112
   37MOL    C3918111   6.908   5.921   6.887 -0.2619 -0.5546  0.5228
   37MOL    H4018112   6.617   5.534   6.612  2.3777 -0.1807  1.2562
   37MOL    H4118113   6.585   5.401   6.492 -0.3424  0.2016  0.3047
   37MOL    H4218114   6.789   5.219   6.481 -1.8562  0.7525 -0.2414
   37MOL    H4318115   6.843   5.239   6.642 -2.7392  0.3239  0.1793
   37MOL    H4418116   6.952   5.288   6.510 -0.7831  0.1502 -0.1769
   37MOL    H4518117   6.873   5.613   6.867  0.2950 -1.6321 -1.5486
   37MOL    H4618118   7.005   5.695   6.791  0.3888  1.3518  0.3070
   37MOL    H4718119   6.665   5.790   6.688  0.1344  0.9022 -1.9203
   37MOL    H4818120   6.573   6.017   6.728 -0.0344 -0.7634 -0.7469
   37MOL    H4918121   6.674   6.166   6.887  0.9761 -0.2479  0.8939
   37MOL    H5018122   6.890   6.100   6.997 -1.2039  0.5883  0.1315
   37MOL    H5118123   7.004   5.902   6.933 -0.4405  1.9742  2.0732
   37MOL    C5218124   6.813   5.510   6.413 -0.1382 -0.2719 -0.6514
   37MOL    C5318125   6.818   5.452   6.272 -0.1222  0.2160  0.0339
   37MOL    C5418126   6.686   5.376   6.241  0.5032  0.1158 -0.4614
   37MOL    C5518127   6.944   5.355   6.259 -0.4463  0.1566  0.0551
   37MOL    O5618128   6.933   5.238   6.233 -0.0109  0.0796  0.2564
   37MOL    O5718129   7.055   5.417   6.281  0.0696  0.4540 -0.2438
   37MOL    C5818130   7.178   5.344   6.271  0.5286  0.8441  0.4509
   37MOL    C5918131   7.301   5.424   6.300 -1.3175  0.6743 -0.1757
   37MOL    C6018132   7.349   5.512   6.204 -0.2013  0.4435  0.8416
   37MOL    C6118133   7.460   5.594   6.236 -0.3221 -0.7688  0.1919
   37MOL    C6218134   7.525   5.578   6.364 -0.7063  0.0389 -0.2440
   37MOL    C6318135   7.469   5.496   6.463  0.4782  0.6678 -0.1214
   37MOL    C6418136   7.355   5.423   6.426  0.8218  0.3842  0.0980
   37MOL    H6518137   6.903   5.568   6.433 -1.6726  1.3559  1.8356
   37MOL    H6618138   6.727   5.576   6.407 -0.2818 -0.1511  2.1255
   37MOL    H6718139   6.661   5.290   6.303 -2.9566 -0.0082 -1.9112
   37MOL    H6818140   6.671   5.340   6.139 -0.0279  0.3919 -0.4850
   37MOL    H6918141   6.605   5.447   6.255 -0.7126 -1.4513  0.6136
   37MOL    H7018142   7.165   5.258   6.335 -1.9043  1.1154  0.3431
   37MOL    H7118143   7.181   5.312   6.167  0.0403  2.2482 -0.0108
   37MOL    H7218144   7.284   5.541   6.122 -2.6719  0.9070  2.9026
   37MOL    H7318145   7.490   5.674   6.170  1.1361 -0.7274  0.8706
   37MOL    H7418146   7.597   5.654   6.389  0.1323 -0.7389 -0.2772
   37MOL    H7518147   7.498   5.499   6.567 -1.7207  0.7115  0.5036
   37MOL    H7618148   7.313   5.354   6.497 -2.7000 -0.3283 -2.5465
   37MOL    C7718149   6.836   5.583   6.187 -0.2973  0.5919 -0.2452
   37MOL    C7818150   6.830   5.595   6.032 -0.4651  0.1432 -0.0392
   37MOL    C7918151   6.881   5.735   6.002 -0.3218 -0.0116 -0.1654
   37MOL    C8018152   6.683   5.588   5.985  0.8598 -0.3293  0.3567
   37MOL    O8118153   6.615   5.690   5.987  1.0186  0.3963  0.3607
   37MOL    O8218154   6.637   5.477   5.941  0.2248  0.3843  0.3290
   37MOL    C8318155   6.497   5.454   5.925  0.2960 -0.0103 -0.0032
   37MOL    C8418156   6.468   5.303   5.903  0.0569  0.0723 -0.0955
   37MOL    C8518157   6.557   5.218   5.827 -0.0013  0.2462 -0.3129
   37MOL    C8618158   6.529   5.080   5.806  0.0902 -1.0489 -0.4455
   37MOL    C8718159   6.407   5.032   5.860 -0.5298 -0.1185  0.4158
   37MOL    C8818160   6.315   5.114   5.927 -0.6485  0.5530 -0.5801
   37MOL    C8918161   6.353   5.244   5.960 -0.0033 -0.6703 -0.1649
   37MOL    H9018162   6.923   5.636   6.227  1.1211 -0.9591 -1.2058
   37MOL    H9118163   6.773   5.668   6.213 -0.2149  0.4084  0.5741
   37MOL    H9218164   6.821   5.815   6.045 -1.1847 -1.4064  1.2707
   37MOL    H9318165   6.886   5.750   5.894 -0.3801 -0.6399 -0.2556
   37MOL    H9418166   6.980   5.751   6.047 -0.9504 -0.1035  1.2860
   37MOL    H9518167   6.443   5.500   6.008 -0.0206 -1.7695  0.7851
   37MOL    H9618168   6.462   5.522   5.846 -0.1851 -1.7745 -1.3288
   37MOL    H9718169   6.642   5.268   5.784 -0.1511 -0.3494 -1.2953
   37MOL    H9818170   6.593   5.010   5.755  1.2311 -1.6512  1.7335
   37MOL    H9918171   6.387   4.927   5.843  0.8999 -0.0978 -1.5717
   37MOL   H10018172   6.217   5.085   5.961 -0.8447  0.7813 -0.9466
   37MOL   H10118173   6.288   5.313   6.012  1.3482  0.8003 -0.3824
   37MOL   C10218174   6.924   5.478   5.970  0.1264  0.3834 -0.3927
   37MOL   C10318175   6.988   5.477   5.823  0.1713  0.5604 -0.2205
   37MOL   C10418176   6.883   5.513   5.709 -0.8136 -0.5285 -0.0016
   37MOL   C10518177   7.032   5.327   5.804 -0.0093  0.2624  0.2174
   37MOL   O10618178   6.996   5.257   5.710 -0.1659 -0.2185 -0.2517
   37MOL   O10718179   7.120   5.294   5.900  0.0098 -0.1944 -0.5353
   37MOL   C10818180   7.171   5.159   5.907  0.5575  0.6632 -0.1144
   37MOL   C10918181   7.287   5.136   6.010  0.5672 -0.0786  0.2757
   37MOL   C11018182   7.264   5.059   6.122  0.0462 -0.2988  0.0804
   37MOL   C11118183   7.371   5.045   6.218  0.1214 -0.3123  0.2266
   37MOL   C11218184   7.497   5.100   6.188  0.2435 -0.7839  0.1168
   37MOL   C11318185   7.522   5.168   6.070  0.5037 -0.3059 -0.4463
   37MOL   C11418186   7.413   5.192   5.977  0.1829  0.3516  0.4665
   37MOL   H11518187   6.877   5.382   5.991 -1.3082  0.8761 -1.2721
   37MOL   H11618188   7.018   5.475   6.024  0.8601 -0.6087 -1.7058
   37MOL   H11718189   6.832   5.609   5.725 -0.5794 -0.4411  0.2135
   37MOL   H11818190   6.811   5.431   5.704  0.2757 -1.4125 -1.6540
   37MOL   H11918191   6.929   5.513   5.610 -0.5306 -1.8396  0.1225
   37MOL   H12018192   7.092   5.086   5.925 -1.0367  2.0064 -1.5567
   37MOL   H12118193   7.218   5.132   5.813 -0.4867 -2.1296  0.1199
   37MOL   H12218194   7.173   5.007   6.146  0.5596 -1.1875  0.1328
   37MOL   H12318195   7.365   4.977   6.302 -0.2813 -1.8361 -1.0028
   37MOL   H12418196   7.582   5.097   6.254 -0.2482  0.6995  0.8220
   37MOL   H12518197   7.626   5.194   6.060  0.5630 -0.0922  0.7023
   37MOL   H12618198   7.448   5.234   5.884 -0.2569  1.0356  0.6037
   37MOL   C12718199   7.109   5.577   5.824 -0.0141  0.9195 -0.4254
   37MOL   C12818200   7.183   5.637   5.704 -0.6397 -0.3701 -1.1125
   37MOL   C12918201   7.308   5.711   5.773 -0.1042  0.6082  0.1224
   37MOL   C13018202   7.092   5.735   5.628  0.2970  0.4363 -0.3407
   37MOL   O13118203   7.037   5.716   5.521 -0.0799 -0.0764  0.2095
   37MOL   O13218204   7.059   5.833   5.711 -0.3147 -0.0745 -0.1199
   37MOL   C13318205   6.973   5.937   5.678 -0.7168  0.5397  0.2753
   37MOL   C13418206   7.044   6.067   5.640  0.1391  0.3625  0.4046
   37MOL   C13518207   6.996   6.192   5.703 -0.3776  0.3186 -0.0186
   37MOL   C13618208   7.062   6.312   5.665  0.0541 -0.5053  0.2527
   37MOL   C13718209   7.172   6.319   5.581  0.8065  0.0809  0.6658
   37MOL   C13818210   7.216   6.198   5.526 -0.3354  0.2115 -0.3821
   37MOL   C13918211   7.160   6.073   5.556 -0.2731  0.2237 -0.1656
   37MOL   H14018212   7.184   5.522   5.880 -1.0295 -0.0875 -0.0418
   37MOL   H14118213   7.077   5.665   5.881 -2.4937 -0.1236 -0.1156
   37MOL   H14218214   7.272   5.780   5.850 -0.0924  2.1409 -1.2238
   37MOL   H14318215   7.353   5.773   5.696  2.0898 -1.0396  0.0426
   37MOL   H14418216   7.379   5.639   5.812 -0.9145 -0.1446  0.2294
   37MOL   H14518217   6.912   5.914   5.590  0.8880  1.9831 -1.2645
   37MOL   H14618218   6.906   5.963   5.760  0.5614  0.4246  1.3603
   37MOL   H14718219   6.911   6.194   5.769 -2.7721 -0.1140 -2.9798
   37MOL   H14818220   7.042   6.413   5.699  1.3988 -0.4777  0.9904
   37MOL   H14918221   7.217   6.412   5.550  0.1853  0.3210  0.4776
   37MOL   H15018222   7.290   6.198   5.447 -1.3794  0.4256 -1.3674
   37MOL   H15118223   7.201   5.985   5.507 -1.2952  0.4367 -1.4480
   37MOL   C15218224   7.242   5.515   5.616  0.2458 -0.1121  0.3927
   37MOL   C15318225   7.362   5.530   5.507  0.3223 -1.0541  0.3412
   37MOL   C15418226   7.343   5.664   5.437 -0.1597 -0.2562  0.0191
   37MOL   C15518227   7.351   5.407   5.416  0.1680 -0.2150  0.1481
   37MOL   O15618228   7.335   5.430   5.298  0.1056 -0.7104  0.2030
   37MOL   O15718229   7.357   5.285   5.477  0.3911  0.2704 -0.2302
   37MOL   C15818230   7.362   5.166   5.397  0.1886 -0.2150  0.5639
   37MOL   C15918231   7.228   5.143   5.343  0.3344  0.2124  0.3363
   37MOL   C16018232   7.115   5.129   5.430 -0.1265 -0.0231 -0.1282
   37MOL   C16118233   6.990   5.098   5.374 -0.0508  0.7981 -0.7351
   37MOL   C16218234   6.973   5.091   5.232 -0.4095  0.0396 -0.1985
   37MOL   C16318235   7.083   5.107   5.146  0.2328 -0.7905 -1.4901
   37MOL   C16418236   7.207   5.137   5.204 -0.8244 -0.4619 -0.0538
   37MOL   H16518237   7.148   5.490   5.565 -0.0350  0.2536  0.7330
   37MOL   H16618238   7.267   5.430   5.679 -0.0065  1.5397  2.7476
   37MOL   H16718239   7.237   5.681   5.417  0.0153 -1.0810 -1.8278
   37MOL   H16818240   7.406   5.681   5.349  2.0445 -3.1606  0.9664
   37MOL   H16918241   7.376   5.744   5.503 -2.4025  1.1005 -0.4655
   37MOL   H17018242   7.426   5.186   5.311 -1.0461  0.6521 -0.1664
   37MOL   H17118243   7.404   5.075   5.441  1.2997 -0.4267 -0.9023
   37MOL   H17218244   7.133   5.123   5.537  0.8817  0.4292 -0.2676
   37MOL   H17318245   6.905   5.101   5.440 -0.7810 -1.1232 -1.5501
   37MOL   H17418246   6.876   5.092   5.185 -0.0829 -1.5887 -0.9624
   37MOL   H17518247   7.077   5.107   5.038  0.2215  0.3946 -1.5051
   37MOL   H17618248   7.293   5.149   5.141 -0.2928 -0.0597  0.7433
   37MOL   C17718249   7.499   5.527   5.583  0.4121  0.4049  0.6766
   37MOL   C17818250   7.641   5.498   5.517 -0.3732  0.3083  0.3221
   37MOL   C17918251   7.642   5.545   5.365 -0.4332 -0.6667 -0.1913
   37MOL   C18018252   7.672   5.346   5.522 -0.0368 -0.0412  0.3258
   37MOL   O18118253   7.608   5.264   5.586  0.4414  0.4016  0.6141
   37MOL   O18218254   7.784   5.316   5.455 -0.1390 -0.0708 -0.1306
   37MOL   C18318255   7.824   5.182   5.442 -0.7236 -0.1862  0.3449
   37MOL   C18418256   7.741   5.109   5.331 -0.4184 -0.2396 -0.4130
   37MOL   C18518257   7.705   4.972   5.344 -0.6798 -0.8682 -0.3041
   37MOL   C18618258   7.622   4.909   5.253 -0.0386  0.0553  0.1661
   37MOL   C18718259   7.569   4.980   5.148  0.8517  0.2901  0.1006
   37MOL   C18818260   7.601   5.117   5.138  0.3236  0.5008  0.5111
   37MOL   C18918261   7.689   5.179   5.222  0.3021  0.8562 -0.2927
   37MOL   H19018262   7.486   5.462   5.670 -2.0658 -0.4838 -0.3166
   37MOL   H19118263   7.489   5.624   5.632  1.3372  1.5970 -1.4258
   37MOL   H19218264   7.738   5.529   5.317 -0.0577  0.4974  0.1371
   37MOL   H19318265   7.626   5.653   5.371  0.5422 -0.4229 -1.8168
   37MOL   H19418266   7.564   5.513   5.297  2.1135 -1.8846 -2.6331
   37MOL   H19518267   7.922   5.181   5.395 -0.9689  0.6062 -0.2024
   37MOL   H19618268   7.812   5.142   5.542 -2.6121 -0.4174  0.0651
   37MOL   H19718269   7.760   4.918   5.419  0.8499 -0.5888 -1.2036
   37MOL   H19818270   7.599   4.806   5.279 -0.7258  0.1578 -0.0316
   37MOL   H19918271   7.522   4.922   5.070  2.3177 -2.7877  1.4047
   37MOL   H20018272   7.549   5.175   5.063 -1.2179 -1.0025  0.3746
   37MOL   H20118273   7.711   5.284   5.205 -1.2442  1.3950  0.9565
   37MOL   C20218274   7.745   5.572   5.611  0.0183 -0.0476 -0.3716
   37MOL   C20318275   7.793   5.717   5.576 -0.3342 -0.0713  0.1231
   37MOL   C20418276   7.891   5.716   5.454  0.3939 -0.2603 -0.7864
   37MOL   C20518277   7.879   5.749   5.706  0.1117  0.1851  0.0537
   37MOL   O20618278   8.001   5.751   5.710 -0.3455  0.3522  0.3339
   37MOL   O20718279   7.808   5.782   5.811  0.4666 -0.4005  0.2131
   37MOL   C20818280   7.868   5.802   5.940  0.4718 -0.3850 -0.4113
   37MOL   C20918281   7.784   5.858   6.053 -0.4686  0.4950 -0.7731
   37MOL   C21018282   7.836   5.872   6.187 -0.3414 -0.5460  0.2897
   37MOL   C21118283   7.757   5.940   6.284 -0.5615  0.0000 -0.0328
   37MOL   C21218284   7.639   6.008   6.251 -0.2601  0.5950 -0.5225
   37MOL   C21318285   7.589   6.001   6.118  0.2299 -0.7291  0.5985
   37MOL   C21418286   7.659   5.923   6.020 -0.2368  0.7134  0.5913
   37MOL   H21518287   7.828   5.504   5.630  0.1370  0.4113  0.8267
   37MOL   H21618288   7.687   5.578   5.703 -1.3889 -0.3509 -1.2179
   37MOL   H21718289   7.943   5.620   5.449 -0.6701 -0.7704 -2.6551
   37MOL   H21818290   7.967   5.794   5.459  0.8030 -0.7209  0.3495
   37MOL   H21918291   7.828   5.729   5.366  0.0723 -0.3322 -0.5672
   37MOL   H22018292   7.903   5.707   5.980 -0.9020 -1.2493 -1.2422
   37MOL   H22118293   7.959   5.861   5.927 -1.5471  2.8794 -0.3672
   37MOL   H22218294   7.928   5.820   6.212  0.8319  0.4724 -1.7586
   37MOL   H22318295   7.796   5.932   6.384  0.9337 -0.0809 -0.6021
   37MOL   H22418296   7.582   6.072   6.317  2.0651  2.5141 -0.2984
   37MOL   H22518297   7.498   6.052   6.088  1.1594  0.9691  0.6234
   37MOL   H22618298   7.623   5.916   5.918 -0.4962  0.1670  0.7196
   37MOL   C22718299   7.684   5.829   5.576  0.5984 -0.5496  0.6966
   37MOL   C22818300   7.720   5.983   5.537  0.7251 -0.2797  0.1177
   37MOL   C22918301   7.852   6.046   5.599  0.0728 -0.2533  0.5812
   37MOL   C23018302   7.599   6.051   5.606  0.0817 -0.3582  0.3551
   37MOL   O23118303   7.486   6.012   5.578 -0.1101 -0.6392 -0.0773
   37MOL   O23218304   7.631   6.145   5.690  0.2521 -0.4459 -0.7499
   37MOL   C23318305   7.526   6.215   5.755 -0.4615 -0.8287  0.0981
   37MOL   C23418306   7.568   6.301   5.871 -0.1890 -0.2729  0.6154
   37MOL   C23518307   7.467   6.335   5.967  0.1063  0.2895 -0.2557
   37MOL   C23618308   7.506   6.406   6.085  1.2853 -0.5261  0.4703
   37MOL   C23718309   7.636   6.456   6.097 -0.7245  0.2721  0.0643
   37MOL   C23818310   7.732   6.434   5.998 -0.1062  0.6931  0.4778
   37MOL   C23918311   7.704   6.344   5.890  0.1689 -0.3184 -0.5437
   37MOL   H24018312   7.630   5.814   5.670 -1.0127  2.9568  0.4175
   37MOL   H24118313   7.610   5.803   5.500 -0.0417  1.7186  0.5228
   37MOL   H24218314   7.855   6.048   5.708 -1.2719 -1.5912  0.6740
   37MOL   H24318315   7.860   6.152   5.577  1.3032 -0.1408  1.5373
   37MOL   H24418316   7.939   5.995   5.557 -0.0516 -1.3306  1.5932
   37MOL   H24518317   7.476   6.272   5.677 -0.1840  0.6774  1.0100
   37MOL   H24618318   7.460   6.139   5.798  0.6807 -2.3380 -0.7589
   37MOL   H24718319   7.370   6.290   5.960 -1.1789  2.8927  0.3176
   37MOL   H24818320   7.437   6.435   6.163 -0.0783 -1.0755 -0.5149
   37MOL   H24918321   7.655   6.520   6.181 -0.3324  1.2909 -0.7817
   37MOL   H25018322   7.832   6.475   6.001  0.0657  0.6460 -2.5364
   37MOL   H25118323   7.777   6.310   5.818  1.2827  0.6570  0.1120
   37MOL   C25218324   7.725   6.006   5.379  0.1647  0.1752 -0.1533
   37MOL   C25318325   7.744   6.145   5.307  0.4110  0.0406 -1.0291
   37MOL   C25418326   7.668   6.252   5.381 -0.6968 -0.5228  0.3482
   37MOL   C25518327   7.681   6.132   5.169 -0.2472  0.4038 -0.1162
   37MOL   O25618328   7.607   6.220   5.116  0.3212 -0.0831  0.5378
   37MOL   O25718329   7.709   6.013   5.112  0.2980  0.0991  0.1868
   37MOL   C25818330   7.665   5.990   4.973  0.5039 -0.3915  0.1286
   37MOL   C25918331   7.549   5.891   4.978 -0.2129  0.5097 -0.0611
   37MOL   C26018332   7.556   5.766   5.046 -0.6996 -0.1962  0.3525
   37MOL   C26118333   7.441   5.681   5.042  0.1063 -0.2130 -0.0250
   37MOL   C26218334   7.330   5.714   4.959  0.1639  0.1694  0.5544
   37MOL   C26318335   7.325   5.838   4.894  0.2261 -0.3731  0.5232
   37MOL   C26418336   7.432   5.924   4.911 -0.2903 -0.1593 -0.3144
   37MOL   H26518337   7.623   5.980   5.350  0.2683 -0.4603  0.0267
   37MOL   H26618338   7.795   5.939   5.329  0.7289 -0.3587  1.3099
   37MOL   H26718339   7.736   6.281   5.461 -2.5890 -0.2469  1.8702
   37MOL   H26818340   7.569   6.228   5.419 -1.1751  2.0447  0.8643
   37MOL   H26918341   7.655   6.341   5.319  0.7785 -0.5754 -0.0628
   37MOL   H27018342   7.628   6.075   4.916 -1.5674 -0.6578  1.0344
   37MOL   H27118343   7.742   5.945   4.910  0.8712  2.3612 -1.4847
   37MOL   H27218344   7.649   5.733   5.088 -0.3358  0.0570 -0.2424
   37MOL   H27318345   7.451   5.589   5.098  0.4105 -0.9008 -1.1951
   37MOL   H27418346   7.246   5.649   4.939  0.9366 -1.0308  1.1307
   37MOL   H27518347   7.236   5.865   4.838 -0.0260 -1.8917  0.1527
   37MOL   H27618348   7.425   6.023   4.867  3.1612  0.2248 -0.0990
   37MOL   C27718349   7.908   6.180   5.294 -0.2457  0.4164 -0.7786
   37MOL   C27818350   7.974   6.314   5.245 -0.6180  0.0164  0.1908
   37MOL   C27918351   7.897   6.439   5.310 -0.4536 -0.1313  0.2581
   37MOL   C28018352   7.971   6.322   5.092  0.0576  0.2423  0.4638
   37MOL   O28118353   7.944   6.432   5.041  0.1126  0.1752 -0.8304
   37MOL   O28218354   0.009   6.213   5.026  0.4068  0.2999  0.3893
   37MOL   C28318355   0.056   6.227   4.897  0.3058  0.6142  0.2531
   37MOL   C28418356   0.205   6.216   4.895  0.0648 -0.2138 -0.6772
   37MOL   C28518357   0.267   6.092   4.876 -0.0104 -0.3308 -0.1949
   37MOL   C28618358   0.408   6.083   4.884  0.5649 -0.1955 -0.2350
   37MOL   C28718359   0.491   6.198   4.905  0.2956 -0.3834 -0.4714
   37MOL   C28818360   0.430   6.321   4.925  0.5156 -0.2977 -0.1848
   37MOL   C28918361   0.286   6.322   4.923 -0.3848 -0.6703  0.5538
   37MOL   H29018362   7.953   6.092   5.247 -0.1882 -0.0974  0.2266
   37MOL   H29118363   7.952   6.165   5.392  0.1944  1.5330 -0.7987
   37MOL   H29218364   7.805   6.472   5.263 -0.5224  0.6122  0.9042
   37MOL   H29318365   7.960   6.525   5.286  1.0138 -0.3449  3.1500
   37MOL   H29418366   7.878   6.436   5.418 -1.8302  0.5464  0.0424
   37MOL   H29518367   0.032   6.136   4.843 -1.4769  0.8909  0.5627
   37MOL   H29618368   0.012   6.315   4.849 -0.1448  1.2056  1.7196
   37MOL   H29718369   0.210   6.001   4.873  0.0019 -0.3642  0.4264
   37MOL   H29818370   0.453   5.985   4.888  0.1552 -0.3912 -0.3627
   37MOL   H29918371   0.597   6.175   4.910 -0.2047 -2.7548 -0.2068
   37MOL   H30018372   0.492   6.407   4.945 -0.4368  0.0677  1.1969
   37MOL   H30118373   0.237   6.415   4.946 -0.5586 -1.0367  1.6885
   37MOL   C30218374   0.126   6.314   5.273 -0.5356  0.2001  0.1212
   37MOL   C30318375   0.201   6.345   5.406 -0.4272 -0.6385  0.0005
   37MOL   C30418376   0.112   6.336   5.540 -0.6133  0.1392 -0.2478
   37MOL   C30518377   0.242   6.502   5.398 -0.3889  0.1646 -0.1931
   37MOL   O30618378   0.176   6.591   5.449 -0.5688  0.2368  0.3280
   37MOL   O30718379   0.354   6.516   5.318  0.2672 -0.0557  0.1288
   37MOL   C30818380   0.417   6.647   5.312  0.0205 -0.2589 -0.0389
   37MOL   C30918381   0.525   6.651   5.209 -0.4864  0.5411 -0.2816
   37MOL   C31018382   0.541   6.757   5.114  0.1026 -0.4670 -0.5291
   37MOL   C31118383   0.651   6.759   5.030  0.3284 -0.6651  0.4162
   37MOL   C31218384   0.749   6.651   5.035 -0.2346 -0.3137 -0.2372
   37MOL   C31318385   0.727   6.546   5.126  0.7795 -0.1869  0.4511
   37MOL   C31418386   0.616   6.546   5.214 -0.3599  0.0053 -0.0829
   37MOL   H31518387   0.178   6.381   5.206 -1.0918 -2.3516 -3.0117
   37MOL   H31618388   0.161   6.218   5.234 -2.2475  0.0172 -1.0254
   37MOL   H31718389   0.175   6.350   5.628  1.5335 -0.0677 -1.7209
   37MOL   H31818390   0.071   6.235   5.544  2.3963 -1.1931 -1.3991
   37MOL   H31918391   0.035   6.413   5.547 -0.1816  0.6806 -1.4103
   37MOL   H32018392   0.337   6.714   5.281  1.5868  1.9709  0.6436
   37MOL   H32118393   0.455   6.672   5.410 -0.6555 -1.3750  0.5198
   37MOL   H32218394   0.468   6.835   5.128  0.0392 -1.0411  2.6857
   37MOL   H32318395   0.668   6.850   4.974 -1.8979 -1.1829 -1.1825
   37MOL   H32418396   0.845   6.665   4.988 -1.6097  3.5338 -2.1815
   37MOL   H32518397   0.798   6.465   5.140  0.9206 -0.2898 -0.7479
   37MOL   H32618398   0.603   6.461   5.279 -0.0250  0.7599  0.9855
   37MOL   C32718399   0.341   6.259   5.431  0.7515 -0.2704  0.3292
   37MOL   C32818400   0.355   6.111   5.479 -0.1526  0.1805  0.3754
   37MOL   C32918401   0.283   6.006   5.382 -0.3252  0.4723  0.2084
   37MOL   C33018402   0.282   6.090   5.618  0.6664  0.0781  0.0818
   37MOL   O33118403   0.174   6.030   5.626 -0.5186 -0.2092 -0.1146
   37MOL   O33218404   0.350   6.152   5.712  0.6059  0.2402  0.7751
   37MOL   C33318405   0.304   6.165   5.844 -0.0752  0.1805  0.3141
   37MOL   C33418406   0.332   6.050   5.935  0.0102 -0.5032 -0.0773
   37MOL   C33518407   0.274   5.923   5.922  0.2955 -0.3182 -0.7214
   37MOL   C33618408   0.280   5.826   6.028  0.4690  0.4223  0.4665
   37MOL   C33718409   0.365   5.848   6.139  0.1958 -0.2806 -0.2924
   37MOL   C33818410   0.430   5.970   6.146  0.1780 -0.0398 -0.1997
   37MOL   C33918411   0.404   6.074   6.053 -0.7547  0.3951 -0.1039
   37MOL   H34018412   0.407   6.316   5.496  0.8153  0.1573 -0.1027
   37MOL   H34118413   0.398   6.272   5.338  0.0088  1.7753  0.1250
   37MOL   H34218414   0.175   6.017   5.376 -0.3639  0.3901  0.7793
   37MOL   H34318415   0.304   5.901   5.404 -0.6307  0.3141 -0.2281
   37MOL   H34418416   0.322   6.012   5.280  1.5934 -0.2248  0.8759
   37MOL   H34518417   0.350   6.254   5.887 -0.8256  0.4308  0.6094
   37MOL   H34618418   0.197   6.187   5.842 -0.6706 -2.6695 -0.0730
   37MOL   H34718419   0.216   5.895   5.835 -1.2257  1.2549 -0.2631
   37MOL   H34818420   0.238   5.727   6.018 -1.9317  1.4082  0.5896
   37MOL   H34918421   0.384   5.767   6.207 -0.6569  0.0224  0.3131
   37MOL   H35018422   0.499   5.983   6.228 -0.4699 -2.4687  0.7804
   37MOL   H35118423   0.447   6.170   6.076  0.8022 -0.3361  0.1191
   37MOL   C35218424   0.510   6.087   5.500 -0.5535  0.0703  0.4222
   37MOL   C35318425   0.608   6.033   5.385  0.0340 -0.4247  0.2906
   37MOL   C35418426   0.592   6.111   5.249  0.5965 -0.1135  0.5145
   37MOL   C35518427   0.583   5.888   5.352  0.3917 -0.7603  0.2611
   37MOL   O35618428   0.600   5.841   5.238  0.0774  0.1933 -0.0557
   37MOL   O35718429   0.530   5.821   5.450  0.6272 -0.3070  0.2055
   37MOL   C35818430   0.506   5.678   5.436  0.6615 -0.4616 -0.4936
   37MOL   C35918431   0.466   5.615   5.574 -0.2416  0.8610 -0.2141
   37MOL   C36018432   0.361   5.665   5.641  1.2120 -0.1657  0.1559
   37MOL   C36118433   0.315   5.594   5.759  0.6758  0.2361 -0.4167
   37MOL   C36218434   0.383   5.488   5.818 -0.7172 -0.4507 -0.1006
   37MOL   C36318435   0.505   5.452   5.752 -0.0759  0.0526  0.3445
   37MOL   C36418436   0.541   5.513   5.625 -0.4881  0.0688 -0.0248
   37MOL   H36518437   0.527   6.017   5.582 -2.1902 -0.2457  0.5130
   37MOL   H36618438   0.551   6.182   5.532 -0.3914 -0.2807  1.2545
   37MOL   H36718439   0.641   6.081   5.157 -1.2135  0.2191 -0.5865
   37MOL   H36818440   0.616   6.217   5.259 -2.3724  0.6624 -0.0437
   37MOL   H36918441   0.487   6.110   5.219  0.7504 -0.2521 -0.0118
   37MOL   H37018442   0.415   5.661   5.378  0.6894 -0.4259 -0.5461
   37MOL   H37118443   0.593   5.630   5.391  0.6729 -0.2670 -0.6770
   37MOL   H37218444   0.307   5.751   5.602  1.8342 -0.3509 -1.1385
   37MOL   H37318445   0.219   5.615   5.805 -0.6814 -0.6599 -2.7190
   37MOL   H37418446   0.356   5.434   5.907 -0.9260  0.8024  0.6020
   37MOL   H37518447   0.565   5.374   5.796  1.0474  0.4798 -0.4064
   37MOL   H37618448   0.617   5.467   5.565 -0.3579  1.1251 -0.6814
   37MOL   C37718449   0.750   6.059   5.456  0.1241  0.5023 -0.1332
   37MOL   C37818450   0.896   5.998   5.415 -0.2719  0.2067  0.2663
   37MOL   C37918451   0.919   5.991   5.269  0.5570  0.1325 -0.2128
   37MOL   C38018452   0.908   5.854   5.469  0.3601  0.1741 -0.3548
   37MOL   O38118453   0.968   5.762   5.409 -0.3553 -0.2104 -0.1995
   37MOL   O38218454   0.848   5.831   5.587 -0.2044 -0.1248  0.0859
   37MOL   C38318455   0.862   5.708   5.657  0.3304 -0.7673  0.1775
   37MOL   C38418456   0.991   5.707   5.737 -0.0937 -0.7878 -0.1814
   37MOL   C38518457   1.006   5.790   5.844 -0.1973  0.5055  0.6514
   37MOL   C38618458   1.128   5.790   5.917  0.2706 -0.6396 -0.4643
   37MOL   C38718459   1.229   5.691   5.899  0.3394  0.5085 -1.0287
   37MOL   C38818460   1.212   5.609   5.793 -0.5595  0.2262  0.0884
   37MOL   C38918461   1.102   5.622   5.706 -0.1137 -0.3621 -0.0852
   37MOL   H39018462   0.736   6.047   5.563  1.3008 -1.4828 -0.1726
   37MOL   H39118463   0.747   6.167   5.448 -1.4168  0.2921 -2.8497
   37MOL   H39218464   0.912   6.084   5.212 -1.1202  1.0737  1.5043
   37MOL   H39318465   0.858   5.919   5.215  2.3452 -0.9561 -0.8280
   37MOL   H39418466   1.025   5.968   5.253 -0.3965 -3.4608 -1.8003
   37MOL   H39518467   0.763   5.703   5.702  0.4009  0.1526  0.4521
   37MOL   H39618468   0.865   5.620   5.593 -1.0138 -0.7861  0.1161
   37MOL   H39718469   0.925   5.858   5.867 -0.5330  0.1324  0.5933
   37MOL   H39818470   1.126   5.851   6.006  1.4412  0.9731 -1.5102
   37MOL   H39918471   1.307   5.676   5.973  1.1060 -0.9894 -2.1228
   37MOL   H40018472   1.284   5.532   5.769  0.5230  1.1721  0.2428
   37MOL   H40118473   1.106   5.563   5.616  0.3074 -0.1042 -0.2362
   37MOL   C40218474   0.999   6.084   5.487 -0.7620 -0.7837 -0.5546
   37MOL   C40318475   1.063   6.224   5.446 -0.1266  0.2726  0.1853
   37MOL   C40418476   0.956   6.321   5.379  0.1699 -0.3013  0.1487
   37MOL   C40518477   1.174   6.203   5.339 -0.3710  0.2029 -0.2901
   37MOL   O40618478   1.166   6.240   5.225  0.2940  0.4572  0.3273
   37MOL   O40718479   1.284   6.143   5.392 -0.5468 -0.2109 -0.1200
   37MOL   C40818480   1.411   6.135   5.337  0.2876  0.0584 -0.2099
   37MOL   C40918481   1.512   6.201   5.425 -0.5429  0.2252  0.2773
   37MOL   C41018482   1.476   6.234   5.561 -0.6342 -0.0079 -0.2307
   37MOL   C41118483   1.571   6.284   5.650  0.3882 -0.2408  0.3095
   37MOL   C41218484   1.696   6.321   5.601 -0.6589 -0.4449  0.1898
   37MOL   C41318485   1.728   6.306   5.467  0.2873 -0.1452 -0.4791
   37MOL   C41418486   1.640   6.242   5.379  0.2510 -0.2115  0.5828
   37MOL   H41518487   1.082   6.018   5.514 -0.2793  0.6697  1.5962
   37MOL   H41618488   0.947   6.106   5.580  1.7030  0.6514  0.5355
   37MOL   H41718489   0.890   6.273   5.307  1.3632  0.9046 -1.7845
   37MOL   H41818490   1.001   6.398   5.316  0.5440 -0.8304 -0.2318
   37MOL   H41918491   0.891   6.361   5.457 -0.3110 -1.2937  0.2586
   37MOL   H42018492   1.434   6.030   5.327 -1.8700 -0.3733 -0.9453
   37MOL   H42118493   1.408   6.171   5.234  2.8765 -0.2988 -0.4389
   37MOL   H42218494   1.380   6.210   5.606 -1.6302  2.0549 -1.2000
   37MOL   H42318495   1.543   6.311   5.751 -0.2002  2.8088 -0.6035
   37MOL   H42418496   1.773   6.355   5.669  1.1646  0.0392 -2.0372
   37MOL   H42518497   1.826   6.334   5.432 -0.6957  1.7278 -1.7708
   37MOL   H42618498   1.665   6.234   5.274  1.1760  0.7590  0.7189
   37MOL   C42718499   1.117   6.314   5.572 -0.8651 -0.0475 -0.7218
   37MOL   C42818500   1.088   6.281   5.721  0.7554  0.2293 -0.8816
   37MOL   C42918501   1.138   6.137   5.749  0.2489 -0.2296 -0.1583
   37MOL   C43018502   0.949   6.288   5.771  0.3181  0.0666 -0.3086
   37MOL   O43118503   0.857   6.312   5.696  0.3281  0.1385 -0.3289
   37MOL   O43218504   0.938   6.258   5.903 -0.1184  0.0647 -0.5903
   37MOL   C43318505   0.810   6.249   5.962 -0.1574  0.4863 -0.0150
   37MOL   C43418506   0.762   6.103   5.970 -0.0356  0.5644  0.1071
   37MOL   C43518507   0.807   6.017   6.071 -0.2925 -0.3108 -0.0125
   37MOL   C43618508   0.781   5.880   6.080  0.6626 -0.0361 -0.5523
   37MOL   C43718509   0.689   5.830   5.980  0.1020 -0.3247 -0.4710
   37MOL   C43818510   0.639   5.911   5.875  0.1503 -0.5667 -0.3864
   37MOL   C43918511   0.680   6.049   5.867 -0.5201  0.3946 -0.2004
   37MOL   H44018512   1.087   6.418   5.558 -0.9942  0.1992  1.3327
   37MOL   H44118513   1.223   6.331   5.554 -0.2191 -2.7862  0.3051
   37MOL   H44218514   1.054   6.072   5.774 -0.2469 -0.0405 -1.2667
   37MOL   H44318515   1.198   6.121   5.838  0.8704  0.3964 -0.4591
   37MOL   H44418516   1.196   6.094   5.667  0.9652  0.1888  0.1298
   37MOL   H44518517   0.824   6.299   6.058  1.9338  1.2258 -0.6899
   37MOL   H44618518   0.735   6.314   5.917 -0.1695  0.9157  0.6168
   37MOL   H44718519   0.865   6.055   6.153 -1.5486 -1.0531  1.2362
   37MOL   H44818520   0.828   5.817   6.154 -1.5992 -1.1436 -0.0362
   37MOL   H44918521   0.655   5.728   5.985  0.7098 -0.4288  2.0890
   37MOL   H45018522   0.577   5.875   5.795 -0.6208  0.4933 -0.2831
   37MOL   H45118523   0.647   6.110   5.784  1.1315  1.3350 -0.1997
   37MOL   C45218524   1.178   6.367   5.817  0.0081  0.1919 -0.2171
   37MOL   C45318525   1.170   6.522   5.823  0.2142  0.3797  0.1253
   37MOL   C45418526   1.034   6.577   5.831 -0.3505  0.4547  0.0816
   37MOL   C45518527   1.241   6.588   5.710  0.6480 -0.0403  0.3757
   37MOL   O45618528   1.183   6.658   5.625 -0.0477 -0.2919  0.5624
   37MOL   O45718529   1.374   6.556   5.711  0.2081  0.3615 -0.5700
   37MOL   C45818530   1.446   6.576   5.590 -0.2401  0.6245 -0.3922
   37MOL   C45918531   1.587   6.635   5.617 -0.4438 -0.6166 -0.1362
   37MOL   C46018532   1.619   6.725   5.726 -0.6524  0.1610  0.2735
   37MOL   C46118533   1.752   6.779   5.732  0.0453 -0.4751  0.4571
   37MOL   C46218534   1.843   6.749   5.633 -0.6186  1.1204  0.5505
   37MOL   C46318535   1.811   6.665   5.528 -0.1624  0.3567 -0.4575
   37MOL   C46418536   1.679   6.622   5.514  0.2782 -0.7428 -0.1451
   37MOL   H46518537   1.277   6.324   5.800  1.3159  2.6576  0.8413
   37MOL   H46618538   1.162   6.336   5.920 -2.6429  0.7683 -0.4368
   37MOL   H46718539   0.976   6.571   5.739 -0.5649 -1.6856  0.3178
   37MOL   H46818540   1.033   6.684   5.851 -0.0695  0.3430  0.7124
   37MOL   H46918541   0.986   6.531   5.918 -0.1421  1.3471  0.6744
   37MOL   H47018542   1.446   6.482   5.535  0.4974  0.4193 -0.0493
   37MOL   H47118543   1.409   6.651   5.521 -2.6500 -0.4204 -0.3049
   37MOL   H47218544   1.550   6.755   5.804  1.5702 -0.8061  2.7244
   37MOL   H47318545   1.779   6.849   5.809  1.1105 -2.2760  1.7833
   37MOL   H47418546   1.944   6.785   5.646 -0.3504  0.5593 -0.0083
   37MOL   H47518547   1.873   6.635   5.444 -0.4783  1.3586 -1.0618
   37MOL   H47618548   1.659   6.563   5.427  0.1105 -0.6341 -0.1795
   37MOL   C47718549   1.234   6.562   5.955  0.2170 -0.2671 -0.3974
   37MOL   C47818550   1.263   6.716   5.982 -0.4416 -0.2380  0.2114
   37MOL   C47918551   1.408   6.729   6.038 -0.3456  0.2509 -0.1978
   37MOL   C48018552   1.159   6.771   6.086  0.0463 -0.0263 -0.1278
   37MOL   O48118553   1.113   6.887   6.068  0.2242  0.4920  0.2068
   37MOL   O48218554   1.137   6.694   6.193 -0.4889  0.5301  0.2547
   37MOL   C48318555   1.070   6.743   6.305  0.4412 -0.4607  0.0928
   37MOL   C48418556   1.055   6.644   6.422 -0.0384  0.7112  0.2928
   37MOL   C48518557   1.168   6.574   6.455  0.1842 -0.3404 -0.3712
   37MOL   C48618558   1.165   6.488   6.571  0.3660  0.3928 -0.2864
   37MOL   C48718559   1.049   6.474   6.655  0.6448 -0.6303 -0.0970
   37MOL   C48818560   0.938   6.553   6.623  0.1400 -0.5456  0.5745
   37MOL   C48918561   0.941   6.634   6.504  0.2214 -0.3980  0.6520
   37MOL   H49018562   1.332   6.518   5.977  1.2765  2.1365 -0.1253
   37MOL   H49118563   1.177   6.517   6.037  2.3670 -1.9494  0.2517
   37MOL   H49218564   1.416   6.713   6.146 -0.0932 -1.3030 -0.4487
   37MOL   H49318565   1.438   6.834   6.029 -2.7804  0.8187 -2.2927
   37MOL   H49418566   1.487   6.667   5.995 -0.5385 -0.6861  0.7880
   37MOL   H49518567   1.121   6.833   6.341 -1.5900  0.2844  1.1981
   37MOL   H49618568   0.974   6.785   6.276  0.4540 -0.4743  0.0326
   37MOL   H49718569   1.260   6.582   6.399  0.3921  1.4607  0.2080
   37MOL   H49818570   1.257   6.443   6.604  1.2890  2.7713  0.4976
   37MOL   H49918571   1.042   6.417   6.746 -2.3828 -1.8228 -1.0030
   37MOL   H50018572   0.855   6.567   6.690 -1.5956  3.1114 -2.1292
   37MOL   H50118573   0.868   6.709   6.481 -1.2283 -2.4876 -1.8844
   37MOL   H50218574   1.257   6.772   5.889  1.5739  2.1079  1.4667
   38MOL     C118575   1.149   1.101   5.978 -0.5192  0.3307 -0.8363
   38MOL     C218576   1.031   1.016   6.034  0.4778 -0.5631 -0.4460
   38MOL     C318577   1.057   1.026   6.186  0.7678 -0.4285  0.6814
   38MOL     C418578   1.058   0.874   5.985  0.0469 -0.6855  0.1782
   38MOL     O518579   1.094   0.780   6.054  0.8080 -0.6149  0.1650
   38MOL     O618580   1.045   0.874   5.851  0.2342 -0.0444 -0.0660
   38MOL     C718581   1.041   0.751   5.776 -0.5319  0.0843  0.3007
   38MOL     C818582   0.966   0.767   5.646  0.1783 -0.4440 -0.2743
   38MOL     C918583   0.884   0.660   5.600 -0.0965 -0.4111 -0.2823
   38MOL    C1018584   0.816   0.668   5.480 -0.3781  0.6653  0.1361
   38MOL    C1118585   0.826   0.783   5.400  0.0153 -0.3491  0.5238
   38MOL    C1218586   0.913   0.889   5.441  0.3408  0.2679  0.2879
   38MOL    C1318587   0.988   0.879   5.556  0.5317  0.0326 -0.6179
   38MOL    H1418588   1.129   1.206   6.000 -0.4851  0.9906 -3.8045
   38MOL    H1518589   1.249   1.067   6.002 -0.2937  1.3047 -0.3883
   38MOL    H1618590   1.051   1.124   6.232  1.6891 -0.6686  1.3231
   38MOL    H1718591   1.151   0.989   6.226  0.7009 -0.2182  1.0326
   38MOL    H1818592   0.986   0.961   6.238 -0.5702 -0.3944 -1.0515
   38MOL    H1918593   1.143   0.717   5.759 -1.4443 -3.0528  0.6676
   38MOL    H2018594   0.997   0.668   5.832  1.8835 -0.0036  2.1385
   38MOL    H2118595   0.860   0.573   5.659 -1.6131  0.1951  0.0245
   38MOL    H2218596   0.749   0.588   5.451  1.3242 -0.8544  0.3212
   38MOL    H2318597   0.768   0.795   5.310  2.3898  2.1663 -0.7549
   38MOL    H2418598   0.942   0.959   5.363  1.7135 -1.1374 -0.4943
   38MOL    H2518599   1.064   0.953   5.575  0.2326  0.1204  0.2875
   38MOL    H2618600   1.143   1.105   5.869 -2.4808  1.6022 -0.7160
   38MOL    C2718601   0.891   1.068   5.973 -1.0996  0.1796  0.2765
   38MOL    C2818602   0.749   1.005   6.008 -0.1148  0.4658  0.6793
   38MOL    C2918603   0.644   1.075   5.907 -0.1417 -0.2782 -0.5687
   38MOL    C3018604   0.718   1.048   6.153  0.8769 -0.1098 -0.0307
   38MOL    O3118605   0.720   0.968   6.247  0.0828 -0.2007  0.7206
   38MOL    O3218606   0.675   1.169   6.160 -0.0714 -0.2331 -0.0613
   38MOL    C3318607   0.604   1.215   6.270  0.0560 -0.5055 -0.1770
   38MOL    C3418608   0.497   1.313   6.230 -0.1912 -0.1298  0.3378
   38MOL    C3518609   0.489   1.437   6.293 -0.9848 -0.5132 -0.2886
   38MOL    C3618610   0.384   1.525   6.274  0.4235 -1.0402  0.0031
   38MOL    C3718611   0.287   1.488   6.173 -0.5171 -0.4957 -0.3102
   38MOL    C3818612   0.292   1.369   6.106 -0.0727  0.1026 -0.4651
   38MOL    C3918613   0.395   1.277   6.136  0.0693  0.3245  0.2520
   38MOL    H4018614   0.900   1.073   5.865 -1.9331  1.5973  0.2647
   38MOL    H4118615   0.885   1.170   6.009  1.2983  0.9374 -1.3264
   38MOL    H4218616   0.541   1.041   5.918 -0.5854  0.9802 -0.7733
   38MOL    H4318617   0.668   1.051   5.803 -3.2446  0.8842 -1.6124
   38MOL    H4418618   0.650   1.183   5.918 -0.6854 -0.0963 -1.8914
   38MOL    H4518619   0.566   1.133   6.330  1.9129 -1.9853 -0.9817
   38MOL    H4618620   0.677   1.270   6.331  0.2518  0.8731 -1.6304
   38MOL    H4718621   0.570   1.457   6.362 -1.4214 -0.8857  0.3448
   38MOL    H4818622   0.381   1.613   6.335  0.5467 -0.2526 -1.1163
   38MOL    H4918623   0.199   1.546   6.151  1.5964  1.6007 -3.6181
   38MOL    H5018624   0.210   1.345   6.040 -0.1819  2.0355 -1.0641
   38MOL    H5118625   0.401   1.181   6.086 -1.4525  0.4168 -0.1269
   38MOL    C5218626   0.739   0.853   5.991  0.4345  0.0656  0.3740
   38MOL    C5318627   0.615   0.754   5.984 -0.3917  0.7147 -0.0054
   38MOL    C5418628   0.510   0.806   6.094  0.7620 -0.2358  0.0986
   38MOL    C5518629   0.671   0.611   6.027 -0.0091 -0.2473 -0.5779
   38MOL    O5618630   0.612   0.549   6.115  0.2253  0.6525  0.2704
   38MOL    O5718631   0.779   0.562   5.956  0.8758 -0.6085  0.1847
   38MOL    C5818632   0.840   0.444   6.008  0.3140  0.2050  0.2610
   38MOL    C5918633   0.961   0.398   5.926 -0.2332  0.3715  0.6059
   38MOL    C6018634   1.091   0.442   5.960 -0.0480 -0.1781 -0.0899
   38MOL    C6118635   1.195   0.387   5.882  0.3196  0.5620 -0.1629
   38MOL    C6218636   1.171   0.302   5.774 -0.4224  0.5730  0.4808
   38MOL    C6318637   1.041   0.259   5.738 -0.2834 -0.3362  0.1167
   38MOL    C6418638   0.939   0.308   5.816  0.6765  0.4796  0.6819
   38MOL    H6518639   0.811   0.819   6.065  0.2663  1.9562  1.4292
   38MOL    H6618640   0.796   0.827   5.902 -0.0068 -2.1454  0.7111
   38MOL    H6718641   0.553   0.782   6.191 -2.3559 -0.6748  1.4079
   38MOL    H6818642   0.427   0.737   6.099 -0.3845  1.0827 -0.3326
   38MOL    H6918643   0.476   0.909   6.106 -0.4926 -0.6740  0.4025
   38MOL    H7018644   0.863   0.473   6.110 -1.0400 -0.4993  0.7808
   38MOL    H7118645   0.778   0.354   6.013 -0.8083  1.0275  1.3971
   38MOL    H7218646   1.100   0.510   6.044  3.1040  0.3342 -0.7719
   38MOL    H7318647   1.295   0.422   5.905  0.1930  0.2441  0.9015
   38MOL    H7418648   1.255   0.263   5.718 -0.4101  0.4728  0.5671
   38MOL    H7518649   1.025   0.207   5.645 -0.4305 -1.1071  0.5664
   38MOL    H7618650   0.840   0.270   5.793  1.1236  0.6373 -1.6787
   38MOL    C7718651   0.558   0.757   5.841  0.0881 -0.1413  0.3473
   38MOL    C7818652   0.412   0.697   5.808 -0.3117  0.7456  0.1341
   38MOL    C7918653   0.302   0.803   5.840 -0.2819 -0.0895 -0.7134
   38MOL    C8018654   0.370   0.568   5.886 -0.0238  0.8960 -0.1042
   38MOL    O8118655   0.263   0.566   5.948  0.2934  0.3306 -0.3873
   38MOL    O8218656   0.455   0.462   5.875  0.8092  0.1257 -0.4928
   38MOL    C8318657   0.420   0.338   5.947  0.7710 -0.3051  0.4867
   38MOL    C8418658   0.524   0.234   5.947  0.1737 -0.1414 -0.6392
   38MOL    C8518659   0.591   0.198   6.068  0.5156  0.1641 -0.0782
   38MOL    C8618660   0.703   0.106   6.060  0.4288 -0.3789  0.1937
   38MOL    C8718661   0.740   0.053   5.937 -0.0547 -0.1272  0.2860
   38MOL    C8818662   0.666   0.079   5.819 -0.4345 -0.1728 -0.1259
   38MOL    C8918663   0.563   0.178   5.829  0.3727 -0.0191 -0.7447
   38MOL    H9018664   0.628   0.721   5.766 -1.2934  0.3546 -1.2216
   38MOL    H9118665   0.553   0.860   5.806 -1.0698 -0.3779 -0.2044
   38MOL    H9218666   0.327   0.896   5.789  1.1329 -0.9745 -1.6814
   38MOL    H9318667   0.281   0.815   5.946 -4.0645  1.2904 -1.5297
   38MOL    H9418668   0.205   0.771   5.801  0.0614 -2.0465 -0.0065
   38MOL    H9518669   0.398   0.358   6.052 -0.7718 -2.3887  0.6046
   38MOL    H9618670   0.326   0.295   5.911 -0.1450  0.5408  1.7964
   38MOL    H9718671   0.566   0.231   6.168  0.4621 -2.1351  0.6984
   38MOL    H9818672   0.764   0.084   6.146  0.8399 -1.2530 -0.3231
   38MOL    H9918673   0.829   8.001   5.919 -1.8317 -2.4659 -1.1775
   38MOL   H10018674   0.687   0.044   5.719  1.3598  0.3099  0.0801
   38MOL   H10118675   0.515   0.214   5.739  0.1775 -1.5312 -1.2686
   38MOL   C10218676   0.412   0.645   5.654 -0.1927 -0.4916  0.2929
   38MOL   C10318677   0.396   0.742   5.530 -0.3567  0.0193 -0.2638
   38MOL   C10418678   0.499   0.861   5.533 -0.0847  0.1621 -0.5534
   38MOL   C10518679   0.257   0.809   5.523 -0.0839  0.0309 -0.1398
   38MOL   O10618680   0.158   0.774   5.585  0.4067 -0.1216  0.0628
   38MOL   O10718681   0.252   0.912   5.433 -0.4012  0.3458 -0.6413
   38MOL   C10818682   0.140   1.006   5.433 -0.2468  0.5134  0.1390
   38MOL   C10918683   0.139   1.102   5.553  0.2062  0.0048 -0.5557
   38MOL   C11018684   0.061   1.072   5.669 -0.1394  0.2324 -0.7533
   38MOL   C11118685   0.049   1.164   5.771 -0.8896 -0.2439 -0.3215
   38MOL   C11218686   0.115   1.292   5.765 -0.5326  0.1636  0.5011
   38MOL   C11318687   0.197   1.327   5.649  0.3601  0.2832  0.2026
   38MOL   C11418688   0.207   1.225   5.548 -0.1799  0.3392  0.4702
   38MOL   H11518689   0.345   0.560   5.642  1.0376 -1.0461 -3.4896
   38MOL   H11618690   0.509   0.597   5.644  0.0457  0.0449 -0.0309
   38MOL   H11718691   0.494   0.899   5.431  1.2476 -2.4881 -1.6524
   38MOL   H11818692   0.598   0.817   5.541 -0.4604 -0.0536  4.0391
   38MOL   H11918693   0.475   0.931   5.613 -2.9746 -2.1520  0.7177
   38MOL   H12018694   0.143   1.058   5.338 -0.3478 -1.7172 -1.1299
   38MOL   H12118695   0.045   0.954   5.434 -1.4557  2.6565 -0.3484
   38MOL   H12218696   0.011   0.978   5.686 -0.6049  1.0794  3.0338
   38MOL   H12318697   7.995   1.146   5.857 -0.7673 -0.1781 -0.2206
   38MOL   H12418698   0.097   1.373   5.833 -1.5428 -0.7212  1.3057
   38MOL   H12518699   0.242   1.425   5.641 -0.5567  0.8700  1.8292
   38MOL   H12618700   0.264   1.243   5.458  0.1801  0.5623  0.7401
   38MOL   C12718701   0.425   0.670   5.389 -1.2053 -0.6722  0.1144
   38MOL   C12818702   0.348   0.538   5.337  0.0639  0.1774  0.1585
   38MOL   C12918703   0.196   0.550   5.348 -0.0910 -0.0259 -0.3494
   38MOL   C13018704   0.390   0.405   5.408  0.1562  0.2538  0.7798
   38MOL   O13118705   0.498   0.405   5.476 -0.5420 -0.6025 -0.0172
   38MOL   O13218706   0.306   0.306   5.387 -0.4928 -0.2722 -0.0448
   38MOL   C13318707   0.321   0.192   5.469  0.1966 -0.6452 -1.0204
   38MOL   C13418708   0.393   0.076   5.407  0.3893  0.5831 -0.3895
   38MOL   C13518709   0.404   0.064   5.267  0.2250  0.4116 -0.1507
   38MOL   C13618710   0.465   7.960   5.200  0.8416  0.2060 -0.0398
   38MOL   C13718711   0.504   7.853   5.277  0.5620  0.5037  0.2686
   38MOL   C13818712   0.487   7.852   5.417  0.4122  0.0412  0.3851
   38MOL   C13918713   0.445   7.969   5.483  0.8340 -0.1456 -0.6191
   38MOL   H14018714   0.532   0.647   5.392 -0.9160  0.2756 -2.1180
   38MOL   H14118715   0.399   0.742   5.312  1.1096 -1.8883 -1.8749
   38MOL   H14218716   0.159   0.651   5.333  0.4926  0.3519  0.6922
   38MOL   H14318717   0.153   0.512   5.441  0.4260 -0.9657 -0.4861
   38MOL   H14418718   0.143   0.484   5.279  1.0022  0.2038 -1.4300
   38MOL   H14518719   0.371   0.213   5.563  1.7492 -1.2502 -1.6982
   38MOL   H14618720   0.223   0.153   5.499 -0.2216 -0.3923 -2.0481
   38MOL   H14718721   0.362   0.145   5.211 -0.9940  1.7506  2.6275
   38MOL   H14818722   0.465   7.944   5.094 -0.4099 -2.9251  0.3686
   38MOL   H14918723   0.549   7.768   5.228  0.5614  0.6814 -0.0370
   38MOL   H15018724   0.521   7.770   5.477  1.9942 -0.8610 -1.6949
   38MOL   H15118725   0.443   7.959   5.591 -0.2713 -0.0577 -0.6160
   38MOL   C15218726   0.380   0.527   5.184 -0.1185  0.2193  0.2507
   38MOL   C15318727   0.517   0.529   5.106  0.4096  0.5523 -0.7126
   38MOL   C15418728   0.612   0.423   5.176 -0.0178  0.0496  0.2037
   38MOL   C15518729   0.585   0.671   5.107 -0.1318  0.3272 -0.0776
   38MOL   O15618730   0.706   0.684   5.109 -0.6073 -0.2178 -0.2357
   38MOL   O15718731   0.501   0.775   5.074 -0.2347 -0.2987  0.0305
   38MOL   C15818732   0.551   0.901   5.062  0.2503 -0.4763 -0.2407
   38MOL   C15918733   0.448   1.003   5.015  0.0389  0.5550 -0.3336
   38MOL   C16018734   0.384   0.992   4.890  0.8744  0.2021 -0.3269
   38MOL   C16118735   0.305   1.102   4.842  0.0704  0.2482 -0.2161
   38MOL   C16218736   0.268   1.208   4.930  0.5705 -0.2722  0.3298
   38MOL   C16318737   0.323   1.215   5.061 -1.2270 -0.0374  0.1452
   38MOL   C16418738   0.421   1.118   5.097 -0.5050  0.3370  0.2681
   38MOL   H16518739   0.319   0.601   5.133 -1.5127 -0.4550  0.9265
   38MOL   H16618740   0.327   0.437   5.152  0.2231 -0.4068  1.4192
   38MOL   H16718741   0.654   0.458   5.270  0.3181  1.4115 -0.4294
   38MOL   H16818742   0.703   0.414   5.116 -0.5292 -3.2018 -0.1558
   38MOL   H16918743   0.561   0.328   5.192  1.0378 -0.7648 -1.1127
   38MOL   H17018744   0.582   0.934   5.161 -1.4210 -2.0351  0.8196
   38MOL   H17118745   0.642   0.913   5.004  0.0272 -0.7633 -0.6589
   38MOL   H17218746   0.397   0.907   4.825  0.2062  1.4926 -2.2220
   38MOL   H17318747   0.271   1.097   4.740  0.5858 -2.3249 -0.3155
   38MOL   H17418748   0.200   1.285   4.898  2.0380  0.6299 -0.7203
   38MOL   H17518749   0.296   1.297   5.125  1.2820 -0.6808  2.1177
   38MOL   H17618750   0.464   1.127   5.196 -2.7944  0.7736  1.2693
   38MOL   C17718751   0.498   0.511   4.952 -0.6075 -0.4479  0.8859
   38MOL   C17818752   0.476   0.370   4.883  0.4681  0.2820 -0.5001
   38MOL   C17918753   0.463   0.399   4.731  0.0291  0.2693  0.5015
   38MOL   C18018754   0.330   0.318   4.923 -0.2913 -0.3253  0.2848
   38MOL   O18118755   0.307   0.201   4.965 -0.4726 -1.0388  0.7555
   38MOL   O18218756   0.234   0.407   4.890  0.0227  0.0943  0.1914
   38MOL   C18318757   0.100   0.368   4.890  0.7370 -0.1128  0.4573
   38MOL   C18418758   0.056   0.293   4.768 -0.0130  0.4810  0.2093
   38MOL   C18518759   0.081   0.159   4.765  0.2903 -0.0407 -0.6275
   38MOL   C18618760   0.046   0.077   4.664  0.6833 -1.1232  0.4899
   38MOL   C18718761   7.992   0.134   4.553  0.5460  0.2658  0.2665
   38MOL   C18818762   7.965   0.273   4.546 -0.0649 -0.6512 -0.0437
   38MOL   C18918763   0.004   0.354   4.652 -0.0689  0.3134  0.2184
   38MOL   H19018764   0.591   0.543   4.905 -0.5945  0.2206  1.3607
   38MOL   H19118765   0.423   0.582   4.916  0.0997 -0.1402 -0.0074
   38MOL   H19218766   0.422   0.309   4.684  0.5495  0.4493 -0.3116
   38MOL   H19318767   0.553   0.429   4.677  0.6781 -2.6328 -0.1325
   38MOL   H19418768   0.396   0.483   4.716  0.4810  0.7755  1.3125
   38MOL   H19518769   0.071   0.323   4.985 -0.3191  0.0310  0.2111
   38MOL   H19618770   0.045   0.460   4.871 -0.5643 -0.9446  0.1496
   38MOL   H19718771   0.135   0.116   4.848 -0.4430  0.7181  0.2529
   38MOL   H19818772   0.075   7.980   4.667  0.1561 -1.2332  2.3860
   38MOL   H19918773   7.956   0.068   4.476 -0.1935 -0.3007  1.0922
   38MOL   H20018774   7.924   0.323   4.460  0.7477  0.6659  0.3200
   38MOL   H20118775   7.989   0.459   4.653  1.9515  0.7579  0.4452
   38MOL   C20218776   0.588   0.259   4.910  0.4628 -0.3937  0.3164
   38MOL   C20318777   0.655   0.146   4.821 -0.1898  0.4014  0.1051
   38MOL   C20418778   0.542   0.045   4.793  0.5674 -0.2943  0.0414
   38MOL   C20518779   0.758   0.075   4.915 -0.0209 -0.5313  0.3828
   38MOL   O20618780   0.746   7.971   4.971 -0.8403 -0.4550  0.0292
   38MOL   O20718781   0.862   0.149   4.937  0.2450  0.1330  0.2480
   38MOL   C20818782   0.962   0.109   5.026  0.4007  0.0877  0.0399
   38MOL   C20918783   1.099   0.160   4.983  0.6405  0.0667 -0.6078
   38MOL   C21018784   1.131   0.295   5.012 -0.5432 -0.1827  0.0015
   38MOL   C21118785   1.256   0.345   4.979 -0.3573  0.2992  0.9172
   38MOL   C21218786   1.343   0.268   4.898 -0.2516  0.3525  0.6048
   38MOL   C21318787   1.308   0.140   4.854 -0.3953 -0.4388  0.2722
   38MOL   C21418788   1.188   0.081   4.901 -0.3535  0.0274  0.4292
   38MOL   H21518789   0.562   0.210   5.004  0.6348 -1.8258 -0.3683
   38MOL   H21618790   0.667   0.326   4.944  0.8956 -1.0230  0.5578
   38MOL   H21718791   0.566   7.955   4.751 -0.8772 -0.7524  0.2260
   38MOL   H21818792   0.456   0.079   4.736 -0.9017 -1.9791  1.1814
   38MOL   H21918793   0.500   0.017   4.890  0.3337  3.0210  0.9527
   38MOL   H22018794   0.936   0.137   5.128  1.4360 -3.4396  1.3649
   38MOL   H22118795   0.968   0.002   5.009 -0.0705 -0.1368  1.2803
   38MOL   H22218796   1.057   0.359   5.058 -1.5195 -0.3246 -1.3551
   38MOL   H22318797   1.267   0.451   5.000  1.3300 -0.2135  2.7938
   38MOL   H22418798   1.435   0.312   4.864 -0.4059 -0.3947 -0.8562
   38MOL   H22518799   1.370   0.077   4.791 -0.4498 -0.9577  0.7331
   38MOL   H22618800   1.156   7.990   4.872 -1.3507  0.5137 -0.1378
   38MOL   C22718801   0.732   0.199   4.693 -0.4822 -0.3545 -0.1473
   38MOL   C22818802   0.829   0.123   4.591  1.0431 -0.3711  0.6459
   38MOL   C22918803   0.930   0.232   4.542 -0.1174  0.0777  0.6397
   38MOL   C23018804   0.743   0.084   4.468 -0.6130  0.3352 -0.2090
   38MOL   O23118805   0.768   0.116   4.349  0.1058  0.2760 -0.4555
   38MOL   O23218806   0.636   0.010   4.501  0.0381 -0.2149 -0.0343
   38MOL   C23318807   0.571   7.938   4.414 -0.2334 -0.0866  0.0184
   38MOL   C23418808   0.456   8.005   4.342 -0.5641 -0.0542  0.4251
   38MOL   C23518809   0.361   0.083   4.409  0.2550  0.0594 -0.2686
   38MOL   C23618810   0.251   0.131   4.342  0.2997  0.4309 -0.4769
   38MOL   C23718811   0.241   0.110   4.201 -0.8753 -0.3733 -0.2233
   38MOL   C23818812   0.331   0.020   4.137 -0.7889 -0.2978  0.1737
   38MOL   C23918813   0.441   7.974   4.205 -0.3320  0.5970  0.3548
   38MOL   H24018814   0.787   0.287   4.727 -1.6771  0.9266 -1.4922
   38MOL   H24118815   0.650   0.241   4.636 -1.1263 -0.1228  0.9359
   38MOL   H24218816   0.992   0.206   4.456  2.0061  3.3355  1.0501
   38MOL   H24318817   0.988   0.266   4.628  0.9848 -1.4317  0.5070
   38MOL   H24418818   0.896   0.329   4.506  1.0436  0.3190  0.1505
   38MOL   H24518819   0.638   7.899   4.337 -1.4560 -2.4370  0.1331
   38MOL   H24618820   0.522   7.860   4.473  0.3144 -1.0032 -0.7263
   38MOL   H24718821   0.380   0.101   4.514 -0.7760  0.5486 -0.1608
   38MOL   H24818822   0.193   0.199   4.403 -0.3618  0.5835 -1.2521
   38MOL   H24918823   0.159   0.164   4.155 -0.8759  1.1382  1.5139
   38MOL   H25018824   0.314   8.006   4.033 -1.5029 -1.1541  0.4556
   38MOL   H25118825   0.504   7.906   4.149  2.2905  1.6699  1.9255
   38MOL   C25218826   0.903   8.001   4.652 -0.1859 -0.2945  0.1434
   38MOL   C25318827   0.983   7.885   4.568 -0.0671 -0.2904 -0.3771
   38MOL   C25418828   1.061   7.964   4.458  0.4733 -0.4473 -0.6565
   38MOL   C25518829   0.893   7.772   4.515  0.1580 -0.3903  0.1665
   38MOL   O25618830   0.777   7.765   4.551  0.4811  0.1422 -0.1799
   38MOL   O25718831   0.948   7.700   4.412 -0.0928 -0.2141  0.2152
   38MOL   C25818832   0.861   7.631   4.317 -0.4021  0.7984 -0.3965
   38MOL   C25918833   0.845   7.482   4.349  0.0846 -0.5843  0.2886
   38MOL   C26018834   0.921   7.383   4.285 -0.4441  0.3085 -0.4224
   38MOL   C26118835   0.905   7.249   4.327  0.2966  0.4841  0.2214
   38MOL   C26218836   0.805   7.210   4.418  0.0911 -0.7228 -0.2273
   38MOL   C26318837   0.730   7.313   4.482  0.0964 -0.2800  0.5437
   38MOL   C26418838   0.751   7.444   4.446  0.2382 -0.3752  0.4602
   38MOL   H26518839   0.823   7.945   4.700 -1.6386 -0.4840 -2.4152
   38MOL   H26618840   0.967   0.019   4.737  0.9421 -1.6037 -0.3271
   38MOL   H26718841   1.116   0.039   4.505 -1.3244  0.6580 -0.4331
   38MOL   H26818842   0.983   8.005   4.394  1.3932  1.9320 -0.3270
   38MOL   H26918843   1.126   7.902   4.397  0.9125  1.6972 -2.4507
   38MOL   H27018844   0.761   7.673   4.304  0.3036  2.5730 -0.2460
   38MOL   H27118845   0.907   7.624   4.218 -1.6502 -0.3016 -0.9293
   38MOL   H27218846   0.996   7.401   4.210 -0.1905  1.4269  0.0950
   38MOL   H27318847   0.963   7.173   4.276 -3.0689 -0.8334 -1.8589
   38MOL   H27418848   0.791   7.107   4.447 -2.2379 -0.7200 -1.2291
   38MOL   H27518849   0.658   7.287   4.559  2.2761  0.2389  2.8194
   38MOL   H27618850   0.695   7.525   4.490 -0.2691 -0.8352  0.6660
   38MOL   C27718851   1.092   7.825   4.666  0.8846 -0.4006 -0.3702
   38MOL   C27818852   1.165   7.688   4.652 -0.2956 -0.9800 -0.3195
   38MOL   C27918853   1.277   7.703   4.751 -0.2030 -0.5045  0.6511
   38MOL   C28018854   1.233   7.665   4.513  0.1626  0.4378 -0.1367
   38MOL   O28118855   1.205   7.575   4.435  0.3467 -0.1222  0.1258
   38MOL   O28218856   1.320   7.765   4.485 -0.9414 -0.0351 -0.9248
   38MOL   C28318857   1.402   7.745   4.366  0.3497 -0.3163  0.0918
   38MOL   C28418858   1.489   7.867   4.336 -0.0376  0.4536  0.3614
   38MOL   C28518859   1.617   7.853   4.271  0.1038  0.0833 -0.4633
   38MOL   C28618860   1.697   7.963   4.247  0.0345 -0.0598 -0.3196
   38MOL   C28718861   1.653   0.089   4.282  0.0925  0.1611 -0.4531
   38MOL   C28818862   1.526   0.101   4.346 -0.7431 -0.4322  0.2215
   38MOL   C28918863   1.449   7.997   4.376  0.1219 -0.1952 -0.7623
   38MOL   H29018864   1.044   7.842   4.763 -0.4804 -1.4639 -0.8389
   38MOL   H29118865   1.171   7.900   4.659  1.6035 -0.9625  1.3920
   38MOL   H29218866   1.245   7.711   4.855 -1.6643 -0.3218  0.1955
   38MOL   H29318867   1.340   7.791   4.739  0.4484 -0.8223  1.6982
   38MOL   H29418868   1.353   7.625   4.743  0.7833  0.5060  0.0044
   38MOL   H29518869   1.459   7.653   4.378 -1.3870 -1.3688  0.5174
   38MOL   H29618870   1.335   7.732   4.281 -1.3559  1.2112  1.1457
   38MOL   H29718871   1.646   7.755   4.236 -1.8011 -0.0846 -1.6724
   38MOL   H29818872   1.785   7.955   4.185 -0.5956  0.3592 -1.2730
   38MOL   H29918873   1.710   0.176   4.255  1.1043 -0.0987  0.7790
   38MOL   H30018874   1.491   0.196   4.383  3.3059  0.5190  1.8582
   38MOL   H30118875   1.362   0.009   4.438 -0.4085 -0.0676 -1.5377
   38MOL   C30218876   1.068   7.576   4.701 -0.1973  0.0806 -0.4569
   38MOL   C30318877   1.107   7.431   4.752  0.2509 -0.2970  0.6496
   38MOL   C30418878   1.178   7.431   4.890  0.1160  0.9569  0.0697
   38MOL   C30518879   1.191   7.351   4.653 -0.0875 -0.3484  0.2139
   38MOL   O30618880   1.142   7.258   4.586  0.0954 -0.2335 -0.0084
   38MOL   O30718881   1.314   7.394   4.656  0.0397 -0.6452  0.1173
   38MOL   C30818882   1.409   7.323   4.575  0.0659 -0.0912 -0.1632
   38MOL   C30918883   1.506   7.249   4.657 -0.2052  0.0607 -0.1377
   38MOL   C31018884   1.635   7.216   4.610  0.3897  0.0963  0.2715
   38MOL   C31118885   1.726   7.138   4.679  0.2093 -0.5734 -0.0489
   38MOL   C31218886   1.685   7.082   4.800  0.9303  0.2840 -0.0015
   38MOL   C31318887   1.555   7.111   4.852  0.6509  0.0486  0.1061
   38MOL   C31418888   1.465   7.197   4.784 -0.0262  0.4759  0.1571
   38MOL   H31518889   1.006   7.549   4.616 -0.6068 -0.1987 -0.0756
   38MOL   H31618890   1.006   7.617   4.781  1.5388  0.2072  0.8648
   38MOL   H31718891   1.115   7.467   4.971 -0.6418 -1.6878  0.7165
   38MOL   H31818892   1.265   7.496   4.888 -0.2265  1.3941 -1.7469
   38MOL   H31918893   1.222   7.335   4.918  1.2420  1.6655  0.7504
   38MOL   H32018894   1.348   7.270   4.502 -2.5007 -0.8478  2.3895
   38MOL   H32118895   1.462   7.403   4.524 -1.0604  0.4729 -0.4841
   38MOL   H32218896   1.660   7.254   4.512  1.9377 -0.8631  0.2713
   38MOL   H32318897   1.832   7.135   4.660  0.6649 -0.1799  2.2707
   38MOL   H32418898   1.753   7.022   4.860  0.2460 -0.9223 -0.4205
   38MOL   H32518899   1.518   7.074   4.946 -2.7865  1.2727 -0.7146
   38MOL   H32618900   1.369   7.217   4.829  0.0382 -0.5885  0.7882
   38MOL   C32718901   0.961   7.353   4.761 -0.4639  0.7158  0.6638
   38MOL   C32818902   0.924   7.229   4.861 -0.2282  0.8308  0.2598
   38MOL   C32918903   0.937   7.265   5.015 -0.1711  0.1707  0.2375
   38MOL   C33018904   1.021   7.117   4.834  0.4764 -0.2830  0.4231
   38MOL   O33118905   1.130   7.112   4.898 -0.4841 -0.2127 -0.4287
   38MOL   O33218906   0.995   7.038   4.733  0.1947  0.0920  0.4759
   38MOL   C33318907   1.100   6.959   4.674  0.2665 -0.0833 -0.0526
   38MOL   C33418908   1.083   6.811   4.695 -0.1137 -0.1850  0.3176
   38MOL   C33518909   1.191   6.739   4.742  0.4406 -0.0196 -0.1557
   38MOL   C33618910   1.176   6.602   4.784  0.2828  0.4106  0.0006
   38MOL   C33718911   1.054   6.542   4.771  0.0323  0.6260 -0.2781
   38MOL   C33818912   0.944   6.612   4.719  0.2866 -0.4570 -0.0119
   38MOL   C33918913   0.958   6.749   4.688 -0.3544 -0.5691  0.3154
   38MOL   H34018914   0.932   7.315   4.663  1.3952 -1.4866  0.9224
   38MOL   H34118915   0.877   7.417   4.791 -1.3291 -1.2426  2.5689
   38MOL   H34218916   0.868   7.345   5.041 -0.1105  0.0231  0.8591
   38MOL   H34318917   1.039   7.284   5.048  0.2166 -0.7428 -0.4189
   38MOL   H34418918   0.910   7.177   5.075 -0.9921 -0.2683 -0.7562
   38MOL   H34518919   1.113   6.983   4.568 -0.9183  2.0782  0.2687
   38MOL   H34618920   1.197   6.987   4.715  0.5482 -2.4477  1.0004
   38MOL   H34718921   1.284   6.792   4.757 -0.0030  1.4944 -2.4905
   38MOL   H34818922   1.263   6.552   4.824  0.6684 -0.5301 -1.9750
   38MOL   H34918923   1.031   6.440   4.799 -0.1823  0.2471 -1.8064
   38MOL   H35018924   0.852   6.559   4.703  0.1089 -0.0744 -0.2817
   38MOL   H35118925   0.877   6.804   4.642 -0.2542 -0.0558  0.7561
   38MOL   C35218926   0.770   7.170   4.838  0.0914  0.6764 -0.1162
   38MOL   C35318927   0.639   7.230   4.910 -1.0645 -0.1680 -0.0228
   38MOL   C35418928   0.634   7.190   5.060 -0.2949 -0.9344 -0.3328
   38MOL   C35518929   0.526   7.164   4.831 -0.0833  0.2317 -0.4469
   38MOL   O35618930   0.478   7.223   4.735  0.4853  0.2338 -0.0758
   38MOL   O35718931   0.496   7.037   4.869  0.3032 -0.1573  0.4702
   38MOL   C35818932   0.390   6.959   4.812 -0.7734  0.7361 -0.1315
   38MOL   C35918933   0.290   6.905   4.917 -0.1142  0.4872  0.5115
   38MOL   C36018934   0.252   6.982   5.030 -1.0066  0.5483 -0.0163
   38MOL   C36118935   0.162   6.922   5.126  1.0419  0.0565 -0.4022
   38MOL   C36218936   0.126   6.787   5.114  0.1653 -0.0582 -0.3692
   38MOL   C36318937   0.165   6.709   5.002 -0.6242 -0.5060 -0.0927
   38MOL   C36418938   0.260   6.764   4.915  0.0164  0.4700  0.3813
   38MOL   H36518939   0.766   7.065   4.865 -3.5893  0.3728 -1.4350
   38MOL   H36618940   0.758   7.167   4.730  2.8670 -1.6895 -0.4016
   38MOL   H36718941   0.674   7.094   5.090  1.2888 -0.2394 -0.2063
   38MOL   H36818942   0.533   7.214   5.095  0.2036  0.2797  0.3156
   38MOL   H36918943   0.693   7.266   5.112  0.6744 -0.7621 -1.6527
   38MOL   H37018944   0.338   7.020   4.737 -0.8432  0.6363 -0.1636
   38MOL   H37118945   0.432   6.877   4.754  0.5094  0.3609  1.3253
   38MOL   H37218946   0.283   7.086   5.030 -0.5648  0.4462 -1.9827
   38MOL   H37318947   0.129   6.983   5.208  3.4666 -0.8057  1.2505
   38MOL   H37418948   0.054   6.754   5.187 -2.8394  5.1542 -0.6894
   38MOL   H37518949   0.133   6.606   4.994 -0.2805 -0.6888  0.8059
   38MOL   H37618950   0.294   6.709   4.829 -0.7195 -0.3046  0.5689
   38MOL   C37718951   0.636   7.387   4.894  0.2175 -0.1553  0.3597
   38MOL   C37818952   0.532   7.480   4.966  0.7140  0.5901 -0.3645
   38MOL   C37918953   0.555   7.623   4.900 -0.3543 -0.2636 -0.0320
   38MOL   C38018954   0.580   7.513   5.112  0.2705 -0.0678 -0.5427
   38MOL   O38118955   0.520   7.473   5.216 -0.1575  0.0751  0.3291
   38MOL   O38218956   0.701   7.578   5.120 -1.2652 -0.7677 -0.1304
   38MOL   C38318957   0.765   7.594   5.242  0.3575 -0.3047 -0.1595
   38MOL   C38418958   0.907   7.638   5.220 -0.7719  0.0573  0.2464
   38MOL   C38518959   0.940   7.774   5.220  1.1468  0.9844  0.0358
   38MOL   C38618960   1.078   7.807   5.213  0.3422 -0.1090  0.4074
   38MOL   C38718961   1.181   7.709   5.205  0.5782  0.3892  0.3083
   38MOL   C38818962   1.142   7.574   5.208 -0.0355 -0.1229 -0.6152
   38MOL   C38918963   1.004   7.541   5.216 -0.9270  0.6319  0.2594
   38MOL   H39018964   0.633   7.415   4.789 -0.4429 -0.0370  0.4104
   38MOL   H39118965   0.727   7.439   4.925  0.2281 -1.3228  2.3655
   38MOL   H39218966   0.512   7.613   4.800 -2.3199  0.2561  0.7352
   38MOL   H39318967   0.659   7.654   4.893 -1.0166  1.8682 -0.7070
   38MOL   H39418968   0.503   7.702   4.955 -2.5216 -1.1799 -0.7019
   38MOL   H39518969   0.718   7.677   5.295 -1.3424  0.1669 -2.3272
   38MOL   H39618970   0.766   7.497   5.292 -1.4953 -0.4983 -0.4327
   38MOL   H39718971   0.857   7.842   5.215  0.0439 -0.4872 -2.3288
   38MOL   H39818972   1.113   7.909   5.217  2.0716 -0.7333  1.9354
   38MOL   H39918973   1.287   7.727   5.191  0.2859  1.0654 -1.1234
   38MOL   H40018974   1.222   7.502   5.212  0.9925  0.9679 -1.1257
   38MOL   H40118975   0.975   7.437   5.222 -1.3951  0.8393  1.6270
   38MOL   C40218976   0.374   7.433   4.947  0.4036  0.5456 -0.2887
   38MOL   C40318977   0.245   7.515   4.987  0.3122  0.0019 -0.0300
   38MOL   C40418978   0.121   7.430   4.946 -0.4338 -0.4037  0.5449
   38MOL   C40518979   0.246   7.642   4.903  0.1519 -0.8078 -0.3278
   38MOL   O40618980   0.284   7.745   4.952  0.5308 -0.0352 -0.1863
   38MOL   O40718981   0.225   7.629   4.768  0.0254 -0.1244 -0.3301
   38MOL   C40818982   0.258   7.730   4.681  0.4988 -0.9103  0.4939
   38MOL   C40918983   0.288   7.690   4.543 -0.3908  1.1117  0.0306
   38MOL   C41018984   0.382   7.590   4.509 -0.3447 -0.0839 -0.4542
   38MOL   C41118985   0.411   7.553   4.378 -0.0291 -0.0798 -0.9516
   38MOL   C41218986   0.330   7.605   4.271  0.1488  0.4607 -0.0623
   38MOL   C41318987   0.238   7.712   4.300  0.2730  0.1334 -1.5139
   38MOL   C41418988   0.222   7.747   4.432 -0.8702  0.0987  0.1020
   38MOL   H41518989   0.355   7.341   5.001  0.6366  1.2052  0.9324
   38MOL   H41618990   0.368   7.399   4.843 -1.5477  0.2993 -0.1026
   38MOL   H41718991   0.117   7.344   5.012  0.0766  0.0864  1.2230
   38MOL   H41818992   0.131   7.403   4.841 -0.6428  1.7842 -0.0643
   38MOL   H41918993   0.027   7.484   4.939 -1.0593 -1.4973  0.3508
   38MOL   H42018994   0.161   7.780   4.668  0.9590 -0.1683 -0.1541
   38MOL   H42118995   0.336   7.797   4.717  0.4266 -0.7907  0.4284
   38MOL   H42218996   0.434   7.540   4.590 -0.0085  0.4200 -0.3561
   38MOL   H42318997   0.484   7.479   4.349 -1.5387 -2.0273  0.0976
   38MOL   H42418998   0.357   7.576   4.171  0.1409 -1.2812  0.4333
   38MOL   H42518999   0.187   7.757   4.217 -0.0868  2.4529 -0.0669
   38MOL   H42619000   0.140   7.815   4.449 -1.0048  0.1470 -0.7497
   38MOL   C42719001   0.245   7.546   5.142  0.1114 -0.4242  0.1711
   38MOL   C42819002   0.125   7.588   5.232  0.6092  0.0359  0.3036
   38MOL   C42919003   0.032   7.465   5.260  0.0611  0.2892  0.3185
   38MOL   C43019004   0.031   7.697   5.173 -0.3785  0.1716  0.7863
   38MOL   O43119005   7.926   7.672   5.127 -0.3116 -0.0431 -0.0944
   38MOL   O43219006   0.089   7.813   5.160  0.7571  0.0962  0.7345
   38MOL   C43319007   0.027   7.922   5.093 -0.4873 -0.1029  0.2737
   38MOL   C43419008   7.937   0.007   5.165 -0.1205  1.0453 -0.3699
   38MOL   C43519009   7.806   7.979   5.204 -0.1780 -0.4524 -0.1833
   38MOL   C43619010   7.723   0.077   5.263 -0.4414 -0.6578  0.5838
   38MOL   C43719011   7.772   0.204   5.289 -0.0556  0.4626  0.1708
   38MOL   C43819012   7.900   0.237   5.250  0.1738  0.6076 -0.0534
   38MOL   C43919013   7.978   0.141   5.192 -0.4710 -0.5173 -0.4039
   38MOL   H44019014   0.327   7.615   5.157  0.1928 -0.6546  0.7918
   38MOL   H44119015   0.284   7.451   5.177 -2.6523 -1.3748  0.8081
   38MOL   H44219016   0.001   7.422   5.164  0.3125  0.1808  0.2860
   38MOL   H44319017   7.947   7.497   5.310 -0.1668  1.1070 -0.6012
   38MOL   H44419018   0.070   7.381   5.318  0.8436  1.1764  1.1082
   38MOL   H44519019   0.104   7.981   5.044 -0.2452 -0.7235 -0.1015
   38MOL   H44619020   7.984   7.895   5.000 -3.2332  1.4511  1.2518
   38MOL   H44719021   7.765   7.880   5.189 -1.7115 -0.1565  1.8255
   38MOL   H44819022   7.621   0.049   5.288 -0.8608  0.7549  0.4872
   38MOL   H44919023   7.713   0.278   5.341 -0.9513  0.0979 -0.3255
   38MOL   H45019024   7.944   0.334   5.270  0.0302  0.5067  0.7387
   38MOL   H45119025   0.072   0.169   5.169 -0.2973 -2.2653 -1.8799
   38MOL   C45219026   0.183   7.633   5.365  0.8006 -0.3304  0.4328
   38MOL   C45319027   0.107   7.639   5.509 -0.0928 -0.1340  0.8774
   38MOL   C45419028   0.217   7.671   5.615  0.3230  0.1163  0.3988
   38MOL   C45519029   0.045   7.509   5.559 -0.0403 -0.3091 -0.2865
   38MOL   O45619030   7.944   7.506   5.618 -0.8767  1.0588  0.0443
   38MOL   O45719031   0.123   7.409   5.538  0.0828 -0.6106  0.1136
   38MOL   C45819032   0.089   7.274   5.563 -0.2025 -0.6926  0.6761
   38MOL   C45919033   0.194   7.179   5.509  0.2154  0.0831  0.8013
   38MOL   C46019034   0.315   7.226   5.448  0.0653  0.0312 -0.5166
   38MOL   C46119035   0.408   7.133   5.404 -0.0217 -0.2913 -0.2971
   38MOL   C46219036   0.386   6.996   5.410  0.5549  0.1197  0.4070
   38MOL   C46319037   0.266   6.946   5.471  0.1979 -0.1413 -0.2581
   38MOL   C46419038   0.170   7.039   5.518  0.2145  0.0967 -0.8189
   38MOL   H46519039   0.241   7.724   5.352  1.1027 -0.5086  0.5056
   38MOL   H46619040   0.270   7.570   5.388  1.1628  0.9234  2.7126
   38MOL   H46719041   0.270   7.765   5.599  1.5118 -0.4353  1.0515
   38MOL   H46819042   0.285   7.588   5.630 -2.6002 -2.2765  0.9092
   38MOL   H46919043   0.163   7.681   5.709 -0.0783  2.6244 -0.0376
   38MOL   H47019044   0.076   7.264   5.671  0.9441  0.0707  0.8931
   38MOL   H47119045   7.998   7.246   5.523 -0.1766 -0.0600  0.1631
   38MOL   H47219046   0.356   7.326   5.458  0.7942 -0.4476  1.5743
   38MOL   H47319047   0.496   7.177   5.360  0.0327  0.8108  0.9048
   38MOL   H47419048   0.467   6.933   5.376  0.4159  0.3425 -0.3653
   38MOL   H47519049   0.246   6.842   5.493  0.4529 -0.1540 -0.0851
   38MOL   H47619050   0.072   7.011   5.556 -0.6937  1.5297 -2.0127
   38MOL   C47719051   0.005   7.763   5.502  0.0890  0.2738  0.2816
   38MOL   C47819052   7.965   7.814   5.637  0.5881  0.2343  0.8698
   38MOL   C47919053   7.828   7.880   5.615 -0.6023  0.3674 -0.0680
   38MOL   C48019054   0.061   7.909   5.697 -0.9898 -0.0837 -0.4228
   38MOL   O48119055   0.127   7.985   5.628 -0.1924  0.3886  0.1140
   38MOL   O48219056   0.057   7.907   5.832 -0.3324 -0.4701  0.2090
   38MOL   C48319057   0.148   8.002   5.903  0.2165  0.1052 -0.1868
   38MOL   C48419058   0.234   7.925   6.004  0.1978  0.7637  0.4729
   38MOL   C48519059   0.300   7.805   5.963  0.0659  0.4770 -0.5078
   38MOL   C48619060   0.378   7.737   6.054  0.4626  0.3860  0.3370
   38MOL   C48719061   0.387   7.783   6.188 -0.1494  0.3536  0.4014
   38MOL   C48819062   0.324   7.903   6.227 -0.3354  0.4282  0.1111
   38MOL   C48919063   0.251   7.978   6.132 -0.5696  0.3964 -0.7496
   38MOL   H49019064   7.926   7.714   5.454  1.0234  1.2542 -2.4838
   38MOL   H49119065   0.027   7.843   5.431 -0.3685  2.1744  2.2314
   38MOL   H49219066   7.783   7.912   5.709  0.2102 -0.3696  0.5852
   38MOL   H49319067   7.759   7.807   5.573 -0.7596  0.1359  0.5779
   38MOL   H49419068   7.838   7.966   5.550  0.0101  0.4579  0.1443
   38MOL   H49519069   0.218   0.045   5.836 -0.1105 -0.0762 -0.6677
   38MOL   H49619070   0.094   0.077   5.949  1.5522  0.5799  0.5574
   38MOL   H49719071   0.275   7.756   5.869  1.5110  1.6689 -1.5336
   38MOL   H49819072   0.431   7.651   6.015 -0.2835 -0.4783  1.2024
   38MOL   H49919073   0.445   7.724   6.256  0.2716 -1.0430 -1.1270
   38MOL   H50019074   0.338   7.953   6.322  2.2939  0.6538 -0.3557
   38MOL   H50119075   0.218   0.068   6.167  1.7942  0.5946  1.0662
   38MOL   H50219076   7.937   7.741   5.712  1.7834 -0.4857  0.6368
   39MOL     C119077   0.633   0.859   3.721 -0.4080  0.4156 -0.1202
   39MOL     C219078   0.487   0.894   3.726  0.4567  0.0342 -0.2260
   39MOL     C319079   0.464   1.045   3.692 -0.3451  0.0120  0.6059
   39MOL     C419080   0.431   0.877   3.870 -0.3514  0.7178  0.0286
   39MOL     O519081   0.500   0.828   3.954  1.0167  0.1103 -0.1732
   39MOL     O619082   0.302   0.916   3.888  0.5037  0.2010  0.2133
   39MOL     C719083   0.244   0.868   4.009 -0.0973 -0.1743 -0.4990
   39MOL     C819084   0.257   0.964   4.127  0.8038 -0.2602  0.8158
   39MOL     C919085   0.251   1.102   4.102 -0.5114 -0.5206  0.3105
   39MOL    C1019086   0.257   1.192   4.213  0.2779 -0.4496 -0.2579
   39MOL    C1119087   0.273   1.146   4.342  0.6751  0.4285 -0.1229
   39MOL    C1219088   0.266   1.008   4.367  0.5801 -0.9834  0.1881
   39MOL    C1319089   0.254   0.919   4.258  0.3229  0.3517 -0.3942
   39MOL    H1419090   0.659   0.776   3.786 -0.3352  1.6408  1.4361
   39MOL    H1519091   0.667   0.844   3.618 -1.5746 -0.4069 -0.3952
   39MOL    H1619092   0.504   1.069   3.593 -1.6930 -1.9948 -0.4770
   39MOL    H1719093   0.517   1.113   3.759 -1.5433  0.9871  0.5805
   39MOL    H1819094   0.357   1.066   3.696 -0.0232  1.8043  0.3502
   39MOL    H1919095   0.137   0.877   3.991 -0.6561  1.0605  3.0256
   39MOL    H2019096   0.260   0.769   4.050 -1.6567 -0.1087  0.2918
   39MOL    H2119097   0.245   1.145   4.003  0.8677  0.7174  0.7508
   39MOL    H2219098   0.253   1.297   4.189  0.1429 -0.3626  0.1422
   39MOL    H2319099   0.285   1.220   4.420 -0.4821 -0.9768  1.4422
   39MOL    H2419100   0.285   0.976   4.468  1.5770 -0.6263  0.1167
   39MOL    H2519101   0.240   0.818   4.291  0.7125  0.1005 -1.0017
   39MOL    H2619102   0.694   0.939   3.764 -0.7572 -0.3836  1.8963
   39MOL    C2719103   0.396   0.816   3.625  0.3295  0.4942 -0.2475
   39MOL    C2819104   0.412   0.664   3.580 -0.1936  0.4070 -0.2722
   39MOL    C2919105   0.535   0.642   3.498  0.1021  0.1669 -0.0996
   39MOL    C3019106   0.294   0.627   3.483 -0.5865 -0.1296 -0.7026
   39MOL    O3119107   0.299   0.593   3.366 -0.2768  0.2941  0.2984
   39MOL    O3219108   0.172   0.626   3.546 -0.0337 -0.0922 -0.2601
   39MOL    C3319109   0.037   0.604   3.481  0.5343 -0.1892 -0.2585
   39MOL    C3419110   7.925   0.643   3.568  0.0367  0.3711 -0.7936
   39MOL    C3519111   7.794   0.611   3.533 -0.3919  0.1040 -0.2786
   39MOL    C3619112   7.692   0.653   3.628  0.4032  0.3701  0.4034
   39MOL    C3719113   7.720   0.744   3.731  0.2658 -0.4367 -0.3257
   39MOL    C3819114   7.847   0.797   3.752  0.7516  0.1361  0.1806
   39MOL    C3919115   7.954   0.736   3.679  0.0611  0.2679  0.2603
   39MOL    H4019116   0.410   0.866   3.529  1.8127  1.6839  0.5756
   39MOL    H4119117   0.294   0.828   3.663 -0.5746  1.6005 -2.9021
   39MOL    H4219118   0.623   0.623   3.560 -0.4942  1.1886  1.0906
   39MOL    H4319119   0.556   0.733   3.441  1.0740  0.3248  0.4894
   39MOL    H4419120   0.528   0.553   3.436 -2.4462  0.2583 -0.0005
   39MOL    H4519121   0.024   0.661   3.389 -1.6867  0.3646  0.3531
   39MOL    H4619122   0.027   0.502   3.446 -0.0949  0.3977 -1.8426
   39MOL    H4719123   7.761   0.545   3.454 -0.5958  0.1594 -0.2400
   39MOL    H4819124   7.589   0.624   3.614 -0.2344  0.6659  3.9349
   39MOL    H4919125   7.643   0.772   3.802 -0.0466 -1.5624 -0.2000
   39MOL    H5019126   7.864   0.864   3.835  0.9174  3.5284 -2.4957
   39MOL    H5119127   0.046   0.773   3.700  1.4246 -2.5487 -0.8995
   39MOL    C5219128   0.403   0.580   3.708 -0.1278  0.2102 -0.0654
   39MOL    C5319129   0.431   0.425   3.719  0.1031 -0.1171 -0.9003
   39MOL    C5419130   0.363   0.348   3.603 -0.0441  0.4425  0.0825
   39MOL    C5519131   0.364   0.370   3.856 -0.2771 -0.3409  0.3586
   39MOL    O5619132   0.286   0.270   3.870  0.2310  0.2057  0.5607
   39MOL    O5719133   0.405   0.437   3.958  0.0346 -0.0632 -0.0888
   39MOL    C5819134   0.368   0.401   4.093  0.1827 -0.2413 -0.0282
   39MOL    C5919135   0.466   0.462   4.194 -0.2721  0.6416  0.8956
   39MOL    C6019136   0.524   0.370   4.282  0.1715  0.0703  0.3498
   39MOL    C6119137   0.603   0.423   4.383 -0.3781 -0.7898  0.4993
   39MOL    C6219138   0.629   0.559   4.400  0.1608 -0.7064 -0.1791
   39MOL    C6319139   0.578   0.649   4.307  0.5483 -0.2571 -0.3280
   39MOL    C6419140   0.492   0.602   4.208  0.4952 -0.3099 -0.1203
   39MOL    H6519141   0.301   0.582   3.746 -0.1852 -1.0313 -0.1371
   39MOL    H6619142   0.466   0.627   3.783  0.2114 -1.5779  0.7824
   39MOL    H6719143   0.346   0.242   3.623 -1.3094  0.5762 -0.2388
   39MOL    H6819144   0.416   0.361   3.509 -1.1543 -2.7040 -1.0768
   39MOL    H6919145   0.262   0.389   3.604 -0.4835 -0.6446  0.8184
   39MOL    H7019146   0.270   0.439   4.122  0.9946 -0.6858  3.5794
   39MOL    H7119147   0.370   0.294   4.112  1.2347 -0.2887 -0.3350
   39MOL    H7219148   0.516   0.263   4.268  0.5064 -0.1102  1.5298
   39MOL    H7319149   0.674   0.366   4.442  0.9489  1.6918  1.3918
   39MOL    H7419150   0.691   0.598   4.479 -0.5115 -1.3535  0.6756
   39MOL    H7519151   0.597   0.755   4.301  3.2697 -0.5072  2.4253
   39MOL    H7619152   0.439   0.675   4.150  0.8391  1.4377  1.7227
   39MOL    C7719153   0.591   0.401   3.721  0.1475 -0.6995  0.0079
   39MOL    C7819154   0.663   0.270   3.775  0.1983  0.0240  0.1162
   39MOL    C7919155   0.583   0.132   3.761 -0.2729  0.3803  0.8263
   39MOL    C8019156   0.688   0.296   3.929 -0.6614 -0.5059 -0.4145
   39MOL    O8119157   0.630   0.226   4.008 -0.2113 -0.1569 -0.0461
   39MOL    O8219158   0.778   0.396   3.954 -0.0455 -0.1394  0.3600
   39MOL    C8319159   0.822   0.435   4.080  0.3578 -0.4513 -0.6062
   39MOL    C8419160   0.948   0.374   4.127 -0.3981 -0.1778 -0.4902
   39MOL    C8519161   1.009   0.268   4.058 -0.6226  0.4308 -0.7478
   39MOL    C8619162   1.122   0.201   4.117 -0.4655 -0.1212  0.0660
   39MOL    C8719163   1.170   0.246   4.239 -1.0774 -0.1610  0.5185
   39MOL    C8819164   1.108   0.357   4.301 -0.0576  0.5009 -0.3351
   39MOL    C8919165   1.004   0.424   4.240  0.3071  0.1263  0.7384
   39MOL    H9019166   0.642   0.482   3.773  0.5620 -0.9477 -0.0152
   39MOL    H9119167   0.627   0.416   3.619  0.4564  0.2721  0.2532
   39MOL    H9219168   0.642   0.046   3.790  2.0916  1.7073  0.1220
   39MOL    H9319169   0.551   0.117   3.658  0.8120  0.3262  0.4952
   39MOL    H9419170   0.487   0.133   3.815 -0.0741  0.0131  1.1922
   39MOL    H9519171   0.837   0.542   4.092  0.9313 -0.4862 -0.9889
   39MOL    H9619172   0.740   0.412   4.148 -0.0346  0.0798 -0.8946
   39MOL    H9719173   0.969   0.232   3.964 -0.3114  0.6767 -0.9773
   39MOL    H9819174   1.177   0.123   4.066  0.2488  1.7347 -2.0770
   39MOL    H9919175   1.248   0.192   4.290  0.4911  0.9044 -0.7116
   39MOL   H10019176   1.144   0.396   4.395 -2.5798  0.9632  0.4844
   39MOL   H10119177   0.954   0.506   4.289 -0.5679  0.1601 -0.1730
   39MOL   C10219178   0.806   0.266   3.713  0.0624 -0.4878  0.2743
   39MOL   C10319179   0.846   0.188   3.584  0.1964  0.4247  0.7556
   39MOL   C10419180   0.765   0.248   3.463  0.1586  0.4250  0.5464
   39MOL   C10519181   0.819   0.036   3.600 -0.3834 -0.3658  0.4678
   39MOL   O10619182   0.761   7.980   3.511 -0.1181  0.0752  0.0058
   39MOL   O10719183   0.874   7.989   3.707  0.5660 -0.3993 -0.4573
   39MOL   C10819184   0.844   7.864   3.753 -0.7031 -1.2743 -0.6637
   39MOL   C10919185   0.931   7.832   3.874  0.5431 -0.2073 -0.1159
   39MOL   C11019186   1.037   7.738   3.861  0.4117  0.2134  0.0792
   39MOL   C11119187   1.107   7.705   3.977 -0.1911  0.3905  0.4120
   39MOL   C11219188   1.088   7.765   4.098  0.9619 -0.0461 -0.0566
   39MOL   C11319189   0.995   7.871   4.109 -0.3566  0.1765 -0.0217
   39MOL   C11419190   0.910   7.901   3.998  0.2508  0.1424  0.4153
   39MOL   H11519191   0.871   0.226   3.790  0.6770 -0.2018 -0.0882
   39MOL   H11619192   0.847   0.366   3.701  4.4988 -2.1711  0.2923
   39MOL   H11719193   0.809   0.212   3.370 -0.4097  0.7498  0.1437
   39MOL   H11819194   0.766   0.357   3.461 -2.8013  0.4709 -2.7648
   39MOL   H11919195   0.666   0.204   3.464 -0.5276  1.9390  0.4209
   39MOL   H12019196   0.741   7.864   3.791  1.0377  0.6061  4.5266
   39MOL   H12119197   0.846   7.795   3.669 -1.5006 -1.0554 -0.8687
   39MOL   H12219198   1.050   7.676   3.774  1.5554 -2.3193  1.9850
   39MOL   H12319199   1.172   7.618   3.972 -0.0041  0.4269  2.0714
   39MOL   H12419200   1.135   7.730   4.189 -0.4045 -1.3126  0.1657
   39MOL   H12519201   0.972   7.918   4.203 -0.6247  0.5714 -0.2816
   39MOL   H12619202   0.837   7.980   4.009  0.0642 -0.0215  0.3487
   39MOL   C12719203   1.003   0.203   3.565  0.5272  0.1868  0.2770
   39MOL   C12819204   1.089   0.151   3.440 -0.0202 -0.6735 -0.3144
   39MOL   C12919205   1.084   0.274   3.341  0.0864 -0.4208  0.1229
   39MOL   C13019206   1.043   0.025   3.358 -0.7208  0.4324  0.0522
   39MOL   O13119207   0.992   0.025   3.248 -0.4166 -0.4390 -0.3510
   39MOL   O13219208   1.075   7.913   3.428 -0.4029  0.2838 -0.0211
   39MOL   C13319209   1.061   7.793   3.361  0.1322 -0.8195  0.1748
   39MOL   C13419210   1.144   7.685   3.415 -0.2656 -0.2420 -1.0561
   39MOL   C13519211   1.284   7.686   3.406  1.0087  0.1566  0.6774
   39MOL   C13619212   1.356   7.578   3.442 -0.0321  0.9344 -0.1563
   39MOL   C13719213   1.296   7.468   3.505  0.7989 -0.2482 -0.0180
   39MOL   C13819214   1.155   7.475   3.530 -0.1422  0.2572 -0.1588
   39MOL   C13919215   1.080   7.585   3.486  0.3566  0.1276 -0.9069
   39MOL   H14019216   1.047   0.149   3.648  2.7775 -0.4967 -1.2989
   39MOL   H14119217   1.023   0.309   3.584 -0.6274  0.5904 -0.6926
   39MOL   H14219218   0.994   0.306   3.288  0.8081  0.6618 -0.4796
   39MOL   H14319219   1.155   0.265   3.258  1.4672 -3.3811  1.5770
   39MOL   H14419220   1.115   0.361   3.399 -0.6080 -0.6559  0.8458
   39MOL   H14519221   0.957   7.760   3.359  0.1310 -0.9209  1.2704
   39MOL   H14619222   1.090   7.815   3.259  0.9613  2.3037  1.0602
   39MOL   H14719223   1.329   7.772   3.360  0.9930 -1.3085 -2.1755
   39MOL   H14819224   1.463   7.580   3.428 -0.3360 -1.0995 -3.3082
   39MOL   H14919225   1.354   7.379   3.523 -1.4016 -1.5729  0.7815
   39MOL   H15019226   1.103   7.395   3.580 -1.7013  0.3565 -1.5692
   39MOL   H15119227   0.974   7.589   3.506  0.4614 -0.6817 -0.1141
   39MOL   C15219228   1.235   0.143   3.475  0.0231  0.4345  0.6395
   39MOL   C15319229   1.307   0.088   3.604  0.4628 -0.2586  0.2791
   39MOL   C15419230   1.247   7.963   3.663 -0.3853 -0.3135 -0.4167
   39MOL   C15519231   1.294   0.188   3.712  0.1712  0.3217 -0.4528
   39MOL   O15619232   1.232   0.166   3.817  0.2511  0.5329  0.3895
   39MOL   O15719233   1.345   0.309   3.682 -0.3731  0.0571  0.0193
   39MOL   C15819234   1.312   0.409   3.771 -0.1993 -0.5260  0.7906
   39MOL   C15919235   1.205   0.501   3.718  0.5364  0.8153  0.1124
   39MOL   C16019236   1.214   0.555   3.592 -0.2180  0.5301 -0.3924
   39MOL   C16119237   1.113   0.637   3.536  0.2857 -0.2263 -0.7744
   39MOL   C16219238   0.994   0.653   3.613 -0.3341 -0.0964 -0.2257
   39MOL   C16319239   0.987   0.603   3.746 -0.0579 -0.1580 -0.9014
   39MOL   C16419240   1.086   0.524   3.791 -0.4646  0.4082  0.7218
   39MOL   H16519241   1.277   0.242   3.455  2.5355 -0.6954  0.0405
   39MOL   H16619242   1.275   0.081   3.395 -0.0836  0.5271  0.5142
   39MOL   H16719243   1.267   7.880   3.596  3.6600 -2.4598  3.2074
   39MOL   H16819244   1.145   7.973   3.701  0.4616  2.3978  1.2808
   39MOL   H16919245   1.299   7.932   3.754  1.8624  0.7819 -1.3092
   39MOL   H17019246   1.282   0.385   3.873 -1.3497  1.2904  0.9031
   39MOL   H17119247   1.408   0.458   3.787 -0.5581  1.5416 -2.8632
   39MOL   H17219248   1.307   0.537   3.540  0.2484  1.7217  0.0160
   39MOL   H17319249   1.128   0.678   3.437  2.7434  0.6924 -0.0656
   39MOL   H17419250   0.914   0.715   3.577  1.6142  1.4972 -1.9398
   39MOL   H17519251   0.897   0.607   3.806  0.0472  0.2203 -0.7676
   39MOL   H17619252   1.070   0.490   3.893 -0.3786  0.1365  0.6467
   39MOL   C17719253   1.452   0.054   3.560 -0.3994 -0.4719 -0.2974
   39MOL   C17819254   1.564   7.989   3.649  0.2853 -0.3657  0.3354
   39MOL   C17919255   1.547   7.830   3.644  0.2972  0.2498 -0.3941
   39MOL   C18019256   1.563   0.009   3.804  0.0053 -0.3208  0.1808
   39MOL   O18119257   1.552   7.928   3.892 -0.7301 -0.4719 -0.2111
   39MOL   O18219258   1.587   0.142   3.827 -0.0296 -0.4672  0.4923
   39MOL   C18319259   1.624   0.191   3.958  0.0168  0.1003 -0.0527
   39MOL   C18419260   1.772   0.211   3.972  0.8173 -0.5749 -0.2134
   39MOL   C18519261   1.859   0.106   3.950  0.2386 -0.4477  0.0067
   39MOL   C18619262   1.999   0.126   3.970 -0.5058  1.6646 -0.2707
   39MOL   C18719263   2.047   0.246   4.026  0.2301 -0.0908 -0.5108
   39MOL   C18819264   1.951   0.351   4.057  0.4791  0.4305  0.2097
   39MOL   C18919265   1.818   0.338   4.010  0.2531  0.3471 -0.8779
   39MOL   H19019266   1.490   0.143   3.510  1.0447 -0.3027  1.0568
   39MOL   H19119267   1.447   7.996   3.473 -0.4237 -0.6533 -0.1612
   39MOL   H19219268   1.454   7.792   3.688  1.8327 -1.2877  1.5954
   39MOL   H19319269   1.623   7.780   3.704  0.5385  0.0541 -0.8574
   39MOL   H19419270   1.546   7.790   3.542 -0.2115 -0.4798 -0.1109
   39MOL   H19519271   1.580   0.291   3.955 -0.1460  0.0298 -0.0134
   39MOL   H19619272   1.566   0.146   4.038 -1.1298  2.7349  0.6784
   39MOL   H19719273   1.823   0.012   3.913  1.8526 -0.8906 -0.4743
   39MOL   H19819274   2.066   0.042   3.957 -3.0781 -0.2967 -1.3869
   39MOL   H19919275   2.153   0.257   4.047  0.1599 -1.6676  0.7676
   39MOL   H20019276   1.984   0.448   4.089 -0.4663  0.5932  0.6753
   39MOL   H20119277   1.752   0.422   4.026 -0.3554 -0.4112  0.7723
   39MOL   C20219278   1.706   0.027   3.599  0.2133 -0.0910  0.3209
   39MOL   C20319279   1.787   8.006   3.473  0.3142  0.5349  0.1314
   39MOL   C20419280   1.695   0.011   3.345  0.0736 -0.4503  0.2697
   39MOL   C20519281   1.847   7.859   3.481  0.5090  0.8169  0.1175
   39MOL   O20619282   1.793   7.763   3.429 -0.6561 -0.0261 -0.2105
   39MOL   O20719283   1.959   7.836   3.554  0.7428  0.3909  0.2513
   39MOL   C20819284   2.014   7.711   3.567  0.5631 -0.6875  0.2435
   39MOL   C20919285   2.139   7.689   3.487 -0.0970  0.0554 -0.5008
   39MOL   C21019286   2.213   7.802   3.438 -0.0190  0.1270  0.6096
   39MOL   C21119287   2.334   7.777   3.378 -0.3678  0.3447  0.7282
   39MOL   C21219288   2.392   7.648   3.378  0.3938 -0.0151  0.2764
   39MOL   C21319289   2.323   7.539   3.430  0.6182 -0.0348 -0.1515
   39MOL   C21419290   2.196   7.554   3.487 -0.5992  0.2783  0.7915
   39MOL   H21519291   1.770   0.009   3.686 -0.8723  1.7969  1.5614
   39MOL   H21619292   1.697   0.136   3.594 -1.0658 -0.1696  0.8418
   39MOL   H21719293   1.754   0.000   3.254  1.1631 -3.0880  1.2341
   39MOL   H21819294   1.637   0.103   3.356  1.0226  0.2121 -0.1757
   39MOL   H21919295   1.620   7.940   3.337  0.6252 -0.9360 -0.2487
   39MOL   H22019296   2.043   7.701   3.672  4.1550  1.2202 -0.4809
   39MOL   H22119297   1.935   7.638   3.554  0.5294 -0.5169 -0.5395
   39MOL   H22219298   2.167   7.900   3.443 -1.5079 -0.5659  0.8648
   39MOL   H22319299   2.391   7.860   3.337  2.1982 -1.4656  0.4943
   39MOL   H22419300   2.489   7.628   3.336  0.1097 -2.3091  0.6343
   39MOL   H22519301   2.366   7.440   3.427 -2.5112 -1.3942 -2.3145
   39MOL   H22619302   2.153   7.473   3.542 -0.3597 -1.2636 -1.2256
   39MOL   C22719303   1.911   0.105   3.480  0.0964 -0.2804 -0.3107
   39MOL   C22819304   1.943   0.217   3.374 -0.1981 -0.2938 -0.4940
   39MOL   C22919305   1.813   0.296   3.346  0.4760 -0.1024 -0.8651
   39MOL   C23019306   1.979   0.144   3.245  0.3765  0.1212  0.6853
   39MOL   O23119307   2.021   0.027   3.241  0.3677 -0.0341  0.2323
   39MOL   O23219308   1.974   0.218   3.140  0.6197 -0.3861  0.0007
   39MOL   C23319309   2.015   0.176   3.010  0.1215  0.2499 -0.2768
   39MOL   C23419310   2.040   0.302   2.935 -0.3943  0.0865 -0.3576
   39MOL   C23519311   2.174   0.342   2.928  0.8791 -0.3445 -0.3948
   39MOL   C23619312   2.203   0.475   2.879  0.2457  0.2315  0.2152
   39MOL   C23719313   2.095   0.564   2.847 -0.2516 -0.1019 -0.2337
   39MOL   C23819314   1.962   0.525   2.864 -0.3274  0.3681 -0.2830
   39MOL   C23919315   1.933   0.395   2.907 -0.8065 -0.6782  0.8343
   39MOL   H24019316   2.005   0.052   3.494  0.3598  0.3178  0.2031
   39MOL   H24119317   1.899   0.158   3.574  1.8447 -2.1212  0.9792
   39MOL   H24219318   1.831   0.399   3.317 -1.9728  0.6590  0.1948
   39MOL   H24319319   1.745   0.297   3.431  0.6062 -1.4587 -0.7241
   39MOL   H24419320   1.763   0.262   3.256  0.2444 -2.9256  0.2652
   39MOL   H24519321   2.108   0.121   3.023 -0.1880 -0.5035 -1.2196
   39MOL   H24619322   1.931   0.117   2.972  0.4901 -1.9045  2.0393
   39MOL   H24719323   2.257   0.278   2.955  1.7143  0.7898 -0.1985
   39MOL   H24819324   2.302   0.518   2.869  0.9364 -1.4902 -0.5209
   39MOL   H24919325   2.123   0.665   2.820 -2.9430  0.2389 -1.8985
   39MOL   H25019326   1.873   0.585   2.850 -1.1586 -0.3563  1.7724
   39MOL   H25119327   1.830   0.367   2.922 -1.4885  0.3490 -1.7368
   39MOL   C25219328   2.058   0.314   3.413 -0.6858 -0.0764  0.6246
   39MOL   C25319329   2.203   0.278   3.459 -0.7162  0.5242 -0.4038
   39MOL   C25419330   2.291   0.190   3.352  0.1360 -0.7234  0.1534
   39MOL   C25519331   2.205   0.204   3.608 -0.3150 -0.5985 -0.1015
   39MOL   O25619332   2.113   0.202   3.684 -0.0008  0.0676 -0.2794
   39MOL   O25719333   2.325   0.154   3.627 -0.4113  0.0721  0.1531
   39MOL   C25819334   2.352   0.103   3.755 -0.5125 -0.3963  0.4033
   39MOL   C25919335   2.442   7.986   3.771 -0.3565  0.1076 -0.2772
   39MOL   C26019336   2.403   7.863   3.721 -0.2559 -0.6979  0.8206
   39MOL   C26119337   2.488   7.753   3.725 -0.8813  0.0552  0.2822
   39MOL   C26219338   2.614   7.759   3.788  0.8869 -0.2817 -0.3228
   39MOL   C26319339   2.645   7.874   3.855  0.0806  0.2765 -0.0132
   39MOL   C26419340   2.563   7.993   3.844 -0.4791 -0.1376  0.8300
   39MOL   H26519341   2.022   0.388   3.483 -0.9872 -1.4929  2.0010
   39MOL   H26619342   2.074   0.383   3.330 -3.5638 -0.4463 -0.2890
   39MOL   H26719343   2.277   0.223   3.249 -2.3934 -0.8529  0.4022
   39MOL   H26819344   2.258   0.086   3.352  4.3184 -2.1341 -1.7972
   39MOL   H26919345   2.397   0.193   3.374 -0.0366  1.2773  0.8065
   39MOL   H27019346   2.408   0.181   3.805  0.1337 -0.3941 -0.3165
   39MOL   H27119347   2.264   0.094   3.818 -0.2063  1.9524  1.2116
   39MOL   H27219348   2.313   7.853   3.663  1.7877 -2.6324 -2.1812
   39MOL   H27319349   2.459   7.659   3.680 -0.6949 -0.0528  0.3860
   39MOL   H27419350   2.681   7.674   3.791  1.4142  0.0987 -1.1298
   39MOL   H27519351   2.738   7.857   3.906 -0.5582 -2.3593  0.3582
   39MOL   H27619352   2.597   0.073   3.897  1.7025  0.4812 -1.4694
   39MOL   C27719353   2.292   0.410   3.469  0.0363  0.2233  0.3358
   39MOL   C27819354   2.241   0.545   3.525 -0.7563 -0.0312 -0.0987
   39MOL   C27919355   2.372   0.627   3.545  0.3936  0.5633 -0.1070
   39MOL   C28019356   2.187   0.523   3.671  0.6884  0.1633 -0.1487
   39MOL   O28119357   2.262   0.482   3.763  0.0212 -0.0622  0.4064
   39MOL   O28219358   2.055   0.542   3.676 -0.0596 -0.1206 -0.2931
   39MOL   C28319359   1.979   0.521   3.795  0.0356 -0.1015  0.2766
   39MOL   C28419360   1.842   0.588   3.782  0.1448 -0.4329 -0.4900
   39MOL   C28519361   1.759   0.521   3.691 -0.3759  0.2256 -0.8053
   39MOL   C28619362   1.633   0.578   3.664  0.7271  0.4138 -0.5602
   39MOL   C28719363   1.589   0.695   3.725  0.4324  0.0505 -0.4002
   39MOL   C28819364   1.660   0.757   3.825 -0.5140 -0.4032 -0.1046
   39MOL   C28919365   1.794   0.711   3.854 -0.6122 -0.3961 -0.2092
   39MOL   H29019366   2.341   0.423   3.372  0.0883 -3.0332 -0.1441
   39MOL   H29119367   2.381   0.386   3.527 -0.0808 -0.2483  0.3250
   39MOL   H29219368   2.416   0.654   3.449 -0.0437  2.2762  0.1560
   39MOL   H29319369   2.446   0.578   3.609  1.1233  1.1291 -0.5175
   39MOL   H29419370   2.352   0.710   3.612 -1.6015  0.5271 -0.6474
   39MOL   H29519371   1.978   0.415   3.822  1.3094  0.1975  1.5643
   39MOL   H29619372   2.029   0.575   3.876 -1.3594 -1.0704  1.8327
   39MOL   H29719373   1.782   0.429   3.639  1.4709  1.0046 -1.4261
   39MOL   H29819374   1.566   0.536   3.590  0.1138 -2.6667  1.6848
   39MOL   H29919375   1.492   0.736   3.702 -0.0568 -0.6450  0.3844
   39MOL   H30019376   1.610   0.840   3.873 -0.4336 -0.4186  0.0047
   39MOL   H30119377   1.859   0.760   3.925 -1.5550 -0.3888  0.6654
   39MOL   C30219378   2.144   0.623   3.426  0.5448 -0.0037 -0.0322
   39MOL   C30319379   2.112   0.780   3.410  0.3996  1.0997  0.1427
   39MOL   C30419380   1.986   0.786   3.313 -0.1283 -0.1295  0.6498
   39MOL   C30519381   2.235   0.843   3.336  0.3811 -0.2194  0.1287
   39MOL   O30619382   2.241   0.843   3.217  0.2774  0.5448  0.3413
   39MOL   O30719383   2.322   0.894   3.419 -0.0972 -0.1676  0.1216
   39MOL   C30819384   2.442   0.951   3.370 -0.2954 -0.4132  0.4672
   39MOL   C30919385   2.560   0.892   3.452  0.0984  0.6017 -0.2150
   39MOL   C31019386   2.641   0.790   3.395 -0.0370  0.6585  0.4840
   39MOL   C31119387   2.750   0.734   3.467 -0.1348 -0.7747 -0.0473
   39MOL   C31219388   2.778   0.784   3.594  0.0733 -0.6043  0.5343
   39MOL   C31319389   2.707   0.891   3.646 -0.2237 -0.1736 -0.1539
   39MOL   C31419390   2.589   0.933   3.586 -0.3582 -0.0923  0.0641
   39MOL   H31519391   2.047   0.578   3.446  0.4873 -0.0787 -0.4729
   39MOL   H31619392   2.162   0.588   3.324 -0.2220 -2.1848  0.5597
   39MOL   H31719393   1.904   0.737   3.365 -0.5991  0.2541  0.2807
   39MOL   H31819394   2.011   0.730   3.223  1.7208  0.0388  1.0406
   39MOL   H31919395   1.962   0.889   3.284  0.5706  0.0540  0.7068
   39MOL   H32019396   2.457   0.934   3.264 -2.6682  1.8461 -0.2776
   39MOL   H32119397   2.433   1.058   3.389 -3.4541 -0.7895  1.3474
   39MOL   H32219398   2.624   0.762   3.292  0.4279 -4.4998  1.6484
   39MOL   H32319399   2.812   0.652   3.433  1.3643 -1.5968  4.2771
   39MOL   H32419400   2.862   0.748   3.650  0.4020  1.6061  1.5329
   39MOL   H32519401   2.722   0.923   3.748  0.5053  0.0510 -0.3263
   39MOL   H32619402   2.532   1.007   3.639  1.6674  1.8627 -0.3803
   39MOL   C32719403   2.087   0.839   3.556  0.2280  0.2282  0.1268
   39MOL   C32819404   1.989   0.959   3.575 -0.9040  0.5880  0.3721
   39MOL   C32919405   1.844   0.898   3.572  0.4888 -0.5600  0.6964
   39MOL   C33019406   2.002   1.088   3.480 -0.3815 -0.0622 -0.1500
   39MOL   O33119407   2.101   1.103   3.403  0.2561 -0.5046 -0.0915
   39MOL   O33219408   1.903   1.170   3.495  0.4129  0.1807 -0.1805
   39MOL   C33319409   1.909   1.302   3.432  0.7297 -0.1340  0.6590
   39MOL   C33419410   2.006   1.391   3.509  0.5997 -0.3413  0.1082
   39MOL   C33519411   1.976   1.435   3.637 -0.4645 -0.5575  0.1122
   39MOL   C33619412   2.072   1.500   3.712 -0.3035 -0.4916  0.0082
   39MOL   C33719413   2.208   1.516   3.663  0.7349 -0.5749 -0.0617
   39MOL   C33819414   2.238   1.461   3.533 -0.2774 -0.0558 -0.3429
   39MOL   C33919415   2.135   1.417   3.454 -0.1165  0.0680  0.3663
   39MOL   H34019416   2.188   0.860   3.594  0.3195  0.9759 -0.5267
   39MOL   H34119417   2.051   0.761   3.623  0.1026 -0.6301 -0.9236
   39MOL   H34219418   1.832   0.792   3.593  1.2798 -0.7259  0.3411
   39MOL   H34319419   1.810   0.903   3.469  1.2829  2.0769  0.5256
   39MOL   H34419420   1.768   0.943   3.636 -1.1315 -0.5997 -1.1578
   39MOL   H34519421   1.927   1.303   3.324 -1.3904  2.1969  0.3020
   39MOL   H34619422   1.812   1.347   3.447  0.9574  0.1776  1.2105
   39MOL   H34719423   1.881   1.410   3.682 -1.0144 -1.1557 -1.3552
   39MOL   H34819424   2.047   1.532   3.812  0.3328 -4.0069  1.3703
   39MOL   H34919425   2.282   1.560   3.729 -0.9885  1.1292  0.7774
   39MOL   H35019426   2.339   1.464   3.496 -0.2182  1.6134 -0.0858
   39MOL   H35119427   2.147   1.391   3.350 -0.4226  0.0216  0.3427
   39MOL   C35219428   2.011   1.005   3.722  0.5467 -0.1835  0.2714
   39MOL   C35319429   2.149   1.036   3.795 -0.1000 -0.5054  0.3370
   39MOL   C35419430   2.241   1.106   3.696 -0.5222 -0.1746  0.5690
   39MOL   C35519431   2.226   0.909   3.853 -0.1813  0.0208 -0.0608
   39MOL   O35619432   2.173   0.797   3.859  0.2600 -0.3287  0.1213
   39MOL   O35719433   2.351   0.932   3.907 -0.3124 -0.3425  0.2204
   39MOL   C35819434   2.427   0.826   3.948 -0.0225 -0.0352 -0.2720
   39MOL   C35919435   2.467   0.849   4.093 -0.5110  0.0018  0.3357
   39MOL   C36019436   2.375   0.833   4.197  0.5773  0.3821  0.8670
   39MOL   C36119437   2.411   0.869   4.327 -0.7082  0.9702 -0.2133
   39MOL   C36219438   2.540   0.924   4.348  0.7225  0.3164 -0.5062
   39MOL   C36319439   2.632   0.943   4.243  0.4313 -0.2556 -0.2304
   39MOL   C36419440   2.596   0.895   4.121 -0.2939  0.6630 -0.1118
   39MOL   H36519441   1.965   0.929   3.786 -0.2253 -0.8635 -1.0564
   39MOL   H36619442   1.947   1.092   3.735  0.0109 -1.0024  3.5141
   39MOL   H36719443   2.337   1.133   3.741 -1.9105  0.8307  3.0331
   39MOL   H36819444   2.202   1.201   3.660  1.8222  0.6561  0.1306
   39MOL   H36919445   2.274   1.055   3.606  3.5093 -2.8302  3.3378
   39MOL   H37019446   2.371   0.733   3.937 -1.5666  0.7746  0.5560
   39MOL   H37119447   2.510   0.816   3.878 -1.8697  0.8688 -2.6781
   39MOL   H37219448   2.281   0.789   4.167  1.4028  0.3744 -1.8038
   39MOL   H37319449   2.339   0.863   4.408 -2.0196 -0.8433 -1.4830
   39MOL   H37419450   2.567   0.957   4.447 -1.6701 -1.0162  0.6429
   39MOL   H37519451   2.719   1.003   4.264  0.7511 -0.1474 -1.7791
   39MOL   H37619452   2.664   0.915   4.039  0.2207  1.4413  0.4996
   39MOL   C37719453   2.128   1.154   3.906  0.2700 -0.2106 -1.0177
   39MOL   C37819454   2.040   1.141   4.038 -0.0675 -0.5724  0.5827
   39MOL   C37919455   2.099   1.027   4.122  0.6691 -0.5451 -0.5017
   39MOL   C38019456   1.888   1.111   4.002  0.8104  0.3360  0.9977
   39MOL   O38119457   1.828   1.008   4.047  0.0113 -0.7566  0.4744
   39MOL   O38219458   1.828   1.214   3.936  0.5876  0.0889  0.0818
   39MOL   C38319459   1.699   1.193   3.870 -0.4362  0.0701  0.4919
   39MOL   C38419460   1.646   1.324   3.806  0.5556  0.5325  0.2789
   39MOL   C38519461   1.617   1.431   3.894  0.8884 -0.0985  0.2791
   39MOL   C38619462   1.563   1.552   3.845 -0.3043 -0.0205 -0.8440
   39MOL   C38719463   1.572   1.573   3.707  0.4620 -0.4893  0.2377
   39MOL   C38819464   1.604   1.466   3.616 -1.1953 -0.0215 -0.1579
   39MOL   C38919465   1.638   1.340   3.666 -0.6266  0.2093 -0.2446
   39MOL   H39019466   2.110   1.249   3.855  1.5422  0.0327 -1.0161
   39MOL   H39119467   2.233   1.157   3.934  0.1809 -0.4499 -0.6600
   39MOL   H39219468   2.050   1.025   4.220 -0.2354 -1.5772 -0.9652
   39MOL   H39319469   2.204   1.046   4.146  0.2796 -1.5633  2.2124
   39MOL   H39419470   2.080   0.927   4.084  0.8332 -2.2947  3.7843
   39MOL   H39519471   1.712   1.124   3.787 -0.7709  2.2633 -1.4650
   39MOL   H39619472   1.631   1.146   3.941  0.7290 -0.9518  0.9418
   39MOL   H39719473   1.637   1.421   4.000  0.1037  1.0741  0.5571
   39MOL   H39819474   1.534   1.641   3.899 -1.6107 -0.2085 -1.2402
   39MOL   H39919475   1.529   1.670   3.687  3.4000  1.4935  3.0016
   39MOL   H40019476   1.598   1.475   3.508  0.5338  1.0959 -0.1748
   39MOL   H40119477   1.665   1.259   3.600  0.5587 -0.3618  0.9175
   39MOL   C40219478   2.057   1.284   4.108  0.2975 -1.0430  0.3305
   39MOL   C40319479   2.003   1.325   4.248  0.3883  0.5386 -0.1633
   39MOL   C40419480   1.949   1.466   4.237  0.7472 -0.1731 -0.6292
   39MOL   C40519481   2.120   1.328   4.353  0.3004 -0.6939  0.9845
   39MOL   O40619482   2.142   1.428   4.420 -0.0193 -0.5815  0.0522
   39MOL   O40719483   2.189   1.219   4.354  0.5688 -0.4069  0.2065
   39MOL   C40819484   2.298   1.204   4.455  0.0974 -0.3633  0.5868
   39MOL   C40919485   2.434   1.268   4.418  0.2424  0.3431  0.0964
   39MOL   C41019486   2.488   1.240   4.288 -0.7807 -0.6697 -0.4695
   39MOL   C41119487   2.610   1.306   4.246  0.1498  0.0927  0.1583
   39MOL   C41219488   2.687   1.381   4.335 -0.3938  0.4850  0.0739
   39MOL   C41319489   2.638   1.403   4.463  0.1443 -0.0440 -0.6942
   39MOL   C41419490   2.510   1.344   4.503 -0.0225 -0.1180  0.1284
   39MOL   H41519491   2.015   1.350   4.032  0.1111 -0.4479  0.9438
   39MOL   H41619492   2.164   1.303   4.108  0.0565  0.3734  1.3386
   39MOL   H41719493   1.933   1.523   4.329  0.4705 -1.3785  0.0678
   39MOL   H41819494   1.853   1.477   4.188  0.1068 -0.9526  0.4279
   39MOL   H41919495   2.021   1.533   4.189  0.4390 -0.3584 -1.3514
   39MOL   H42019496   2.254   1.250   4.544 -0.2133  1.3692 -0.4492
   39MOL   H42119497   2.312   1.100   4.485 -0.6795 -0.2458  1.3725
   39MOL   H42219498   2.433   1.171   4.225  0.8921 -2.6995  0.2325
   39MOL   H42319499   2.632   1.284   4.142 -0.6461  0.7691 -0.1631
   39MOL   H42419500   2.781   1.426   4.308  0.3738 -0.9346  0.3425
   39MOL   H42519501   2.699   1.461   4.531 -0.1666  0.0132 -0.4591
   39MOL   H42619502   2.467   1.378   4.596 -2.3107  1.3492 -1.4205
   39MOL   C42719503   1.877   1.248   4.304  0.1428 -0.1025  0.6422
   39MOL   C42819504   1.827   1.230   4.453  0.2837 -0.4925  0.3228
   39MOL   C42919505   1.823   1.369   4.528 -0.3890  0.4573 -0.1900
   39MOL   C43019506   1.918   1.124   4.522 -1.0695 -0.1104 -0.7382
   39MOL   O43119507   1.991   1.153   4.619  0.5600 -0.0430 -0.1382
   39MOL   O43219508   1.911   1.001   4.470  0.1724 -0.1735  0.0361
   39MOL   C43319509   2.001   0.909   4.533 -0.5450  0.7566  0.1170
   39MOL   C43419510   2.035   0.785   4.455  0.1749 -0.1906  0.4359
   39MOL   C43519511   2.014   0.772   4.316  0.4153  0.6478 -0.1185
   39MOL   C43619512   2.056   0.655   4.244  0.0812  0.0062  0.3068
   39MOL   C43719513   2.135   0.562   4.312 -0.5811 -0.3911  0.1282
   39MOL   C43819514   2.162   0.581   4.452 -0.6761  0.1482  0.5265
   39MOL   C43919515   2.116   0.697   4.519  0.6488 -0.0011 -0.2515
   39MOL   H44019516   1.886   1.145   4.270  1.2463  0.1028  0.2790
   39MOL   H44119517   1.793   1.278   4.241  0.7041  1.9085  0.8132
   39MOL   H44219518   1.750   1.433   4.478 -1.0803 -0.6716 -0.6436
   39MOL   H44319519   1.920   1.419   4.519  0.8878 -1.7793  0.6089
   39MOL   H44419520   1.798   1.361   4.634  1.3338 -0.3510  0.1742
   39MOL   H44519521   2.092   0.963   4.557 -1.5037  3.4839 -2.1788
   39MOL   H44619522   1.958   0.873   4.627  0.5122 -1.2331 -0.1282
   39MOL   H44719523   1.943   0.835   4.265  1.6202 -0.0961 -2.7983
   39MOL   H44819524   2.035   0.646   4.138  1.9770 -0.4944 -0.0294
   39MOL   H44919525   2.173   0.478   4.255  1.2262  1.1423 -1.0114
   39MOL   H45019526   2.222   0.508   4.504  1.7050  0.7577 -1.2081
   39MOL   H45119527   2.129   0.712   4.625 -0.4626 -1.2703  0.0790
   39MOL   C45219528   1.682   1.175   4.435 -0.3160 -0.1124  0.2344
   39MOL   C45319529   1.567   1.175   4.548  0.2327  0.2841 -0.5787
   39MOL   C45419530   1.517   1.313   4.575 -0.2955 -0.5229  0.3679
   39MOL   C45519531   1.607   1.112   4.680  0.5679 -0.6785 -0.6397
   39MOL   O45619532   1.625   1.187   4.776  0.2739  0.0513 -0.3846
   39MOL   O45719533   1.640   0.985   4.678 -0.2524 -0.2196  0.2956
   39MOL   C45819534   1.702   0.927   4.794  0.6113 -0.1475  0.0571
   39MOL   C45919535   1.728   0.780   4.786 -0.2614 -0.7083  0.1430
   39MOL   C46019536   1.726   0.704   4.664 -0.2332  0.3694  0.4181
   39MOL   C46119537   1.746   0.566   4.662  0.6211  0.1883 -0.1251
   39MOL   C46219538   1.764   0.496   4.789  0.6744 -0.9115  0.2366
   39MOL   C46319539   1.762   0.573   4.911  0.3250 -0.2570  0.2632
   39MOL   C46419540   1.741   0.708   4.903 -0.2067  0.1755 -0.0365
   39MOL   H46519541   1.666   1.084   4.378  0.0149  0.3175 -0.5473
   39MOL   H46619542   1.643   1.256   4.373 -0.4187  0.3439  0.8822
   39MOL   H46719543   1.432   1.314   4.643 -0.9789  0.1830 -0.4723
   39MOL   H46819544   1.496   1.359   4.478  1.0708  0.3727  0.4832
   39MOL   H46919545   1.580   1.389   4.621 -0.6097  0.9092 -1.4863
   39MOL   H47019546   1.786   0.991   4.821 -0.0451 -0.7234  3.7361
   39MOL   H47119547   1.636   0.927   4.881  2.9883  1.8807  1.9428
   39MOL   H47219548   1.720   0.759   4.571  1.9801 -0.2474 -0.1134
   39MOL   H47319549   1.754   0.508   4.571  0.7771  0.4766 -0.2971
   39MOL   H47419550   1.769   0.388   4.799 -1.5661 -0.9310  1.3082
   39MOL   H47519551   1.768   0.521   5.005  1.0674  0.9139  0.8643
   39MOL   H47619552   1.742   0.764   4.996  0.7227  0.3877 -0.1672
   39MOL   C47719553   1.449   1.090   4.496  0.3436  0.2200  0.6846
   39MOL   C47819554   1.370   1.134   4.371  0.1814  0.5712 -0.1140
   39MOL   C47919555   1.227   1.074   4.365 -0.4955 -0.0107 -0.7680
   39MOL   C48019556   1.433   1.099   4.238 -0.6268  0.6708 -0.4083
   39MOL   O48119557   1.481   1.184   4.165  0.8368  0.3250 -0.5311
   39MOL   O48219558   1.436   0.959   4.220  0.8331 -0.8009  0.1462
   39MOL   C48319559   1.507   0.903   4.110 -0.1831  0.0921 -1.3020
   39MOL   C48419560   1.504   0.754   4.117  1.2986 -0.2513  0.4206
   39MOL   C48519561   1.392   0.683   4.058 -0.0439  0.7494  0.0509
   39MOL   C48619562   1.376   0.547   4.085  0.2768  0.3937  0.2471
   39MOL   C48719563   1.468   0.478   4.162 -0.1860  0.1578 -0.5516
   39MOL   C48819564   1.574   0.542   4.227 -0.3215 -0.3441 -0.0594
   39MOL   C48919565   1.593   0.684   4.196 -0.4370  0.7222  0.8410
   39MOL   H49019566   1.378   1.076   4.577 -1.2905  0.8832 -0.5986
   39MOL   H49119567   1.485   0.989   4.478 -1.1608 -0.2199  0.0566
   39MOL   H49219568   1.189   1.106   4.462  2.0857 -1.1693  0.6820
   39MOL   H49319569   1.230   0.965   4.356  1.2703  0.0509 -1.1056
   39MOL   H49419570   1.167   1.120   4.286 -0.0686  0.7198 -0.6700
   39MOL   H49519571   1.482   0.928   4.007  1.8844 -0.4756 -1.9626
   39MOL   H49619572   1.611   0.935   4.117 -1.4113  4.0338  0.5303
   39MOL   H49719573   1.321   0.742   4.001 -1.0411 -2.5452 -2.2257
   39MOL   H49819574   1.291   0.504   4.036  0.0683  0.6454  0.3846
   39MOL   H49919575   1.449   0.372   4.169 -2.5125  0.7555  4.4330
   39MOL   H50019576   1.647   0.486   4.283 -1.2313 -1.3152  0.1555
   39MOL   H50119577   1.673   0.741   4.241 -0.4329  1.2581  0.1605
   39MOL   H50219578   1.353   1.241   4.382 -0.6997  0.2796  1.4558
   40MOL     C119579   4.281   0.245   4.462  0.1099 -0.3193  0.3359
   40MOL     C219580   4.221   0.188   4.327 -0.1344 -1.1328  0.0173
   40MOL     C319581   4.342   0.152   4.235  0.7276 -0.4443 -0.4908
   40MOL     C419582   4.153   0.300   4.243 -0.1731 -0.1145 -0.1193
   40MOL     O519583   4.168   0.420   4.274 -0.6325 -0.2847 -0.0428
   40MOL     O619584   4.083   0.255   4.141  0.2776 -0.0999  0.2302
   40MOL     C719585   4.008   0.351   4.059 -0.3597 -0.0696  0.0291
   40MOL     C819586   3.884   0.299   3.978 -0.0245  0.0619 -0.1065
   40MOL     C919587   3.904   0.265   3.842 -0.1514  0.2446 -0.3696
   40MOL    C1019588   3.790   0.213   3.770  0.1325  0.3763  0.5282
   40MOL    C1119589   3.664   0.217   3.820  0.2707 -0.1392  0.4917
   40MOL    C1219590   3.642   0.271   3.945  0.0499 -0.3104 -0.3801
   40MOL    C1319591   3.749   0.306   4.029  0.0193 -0.6780 -0.5325
   40MOL    H1419592   4.350   0.328   4.445 -0.3926 -0.2478 -1.4287
   40MOL    H1519593   4.205   0.296   4.522 -0.3451 -0.2616 -0.2787
   40MOL    H1619594   4.414   0.098   4.297  2.0075  2.5410  0.7042
   40MOL    H1719595   4.400   0.242   4.213  0.8870 -0.0188  1.5543
   40MOL    H1819596   4.319   0.102   4.141 -0.4643  0.0430 -0.4573
   40MOL    H1919597   3.992   0.446   4.108  0.7315 -0.3058  0.8658
   40MOL    H2019598   4.076   0.369   3.976 -0.1040  0.5284  0.3685
   40MOL    H2119599   4.001   0.256   3.796 -1.6979  0.7748 -3.8609
   40MOL    H2219600   3.803   0.164   3.675 -0.0184  0.7816  0.2956
   40MOL    H2319601   3.577   0.186   3.764  1.2444  1.0928 -1.8058
   40MOL    H2419602   3.538   0.294   3.963  0.2190  0.5557 -0.4775
   40MOL    H2519603   3.732   0.346   4.128 -3.2622 -2.2522 -0.3975
   40MOL    H2619604   4.339   0.175   4.521  1.5834  0.8003  0.2343
   40MOL    C2719605   4.124   0.065   4.355  0.0810  0.4321  0.6470
   40MOL    C2819606   3.993   0.066   4.448  0.1672 -0.0411  0.5826
   40MOL    C2919607   3.876   0.160   4.390  0.4256 -0.3032 -0.1184
   40MOL    C3019608   4.029   0.111   4.595 -0.3327 -0.0331 -0.4025
   40MOL    O3119609   3.956   0.189   4.659 -0.2717  0.2288 -0.0283
   40MOL    O3219610   4.137   0.048   4.640  0.1761 -0.2248 -0.2594
   40MOL    C3319611   4.182   0.059   4.770 -0.2213 -0.2221 -0.1304
   40MOL    C3419612   4.183   7.937   4.849  0.9639 -0.1157  0.1216
   40MOL    C3519613   4.304   7.859   4.860  0.2528  0.4588  0.1003
   40MOL    C3619614   4.299   7.729   4.918  0.0595  0.7715 -0.0262
   40MOL    C3719615   4.181   7.684   4.978 -0.3856 -0.0343 -0.5455
   40MOL    C3819616   4.062   7.764   4.973 -0.5934 -0.8428 -0.2502
   40MOL    C3919617   4.063   7.888   4.902 -0.1243  0.0994  0.1909
   40MOL    H4019618   4.198   7.999   4.387 -1.1463 -0.2073  2.0706
   40MOL    H4119619   4.093   0.028   4.258  0.5977 -1.6952  1.2604
   40MOL    H4219620   3.778   0.141   4.433  0.6002 -0.3559  0.2575
   40MOL    H4319621   3.877   0.164   4.281 -3.4482  0.4774 -0.1981
   40MOL    H4419622   3.897   0.266   4.407 -1.4376  0.1659 -0.6598
   40MOL    H4519623   4.276   0.114   4.781  0.1196 -0.4664 -1.8436
   40MOL    H4619624   4.110   0.119   4.826  0.5039  1.3722 -0.8624
   40MOL    H4719625   4.402   7.888   4.827  0.9588  2.6901  3.7994
   40MOL    H4819626   4.390   7.671   4.927 -0.6802 -0.3078  0.7094
   40MOL    H4919627   4.177   7.586   5.025  2.2310  1.1172  2.2123
   40MOL    H5019628   3.968   7.729   5.015 -1.2711  0.9714 -0.2130
   40MOL    H5119629   3.973   7.944   4.886 -0.2543 -0.8652 -2.8603
   40MOL    C5219630   3.950   7.917   4.465  0.6512 -0.1863 -0.6494
   40MOL    C5319631   3.880   7.819   4.357 -0.2245  0.0763 -0.5641
   40MOL    C5419632   3.755   7.886   4.292 -0.2661 -0.2605  0.2144
   40MOL    C5519633   3.830   7.693   4.438 -0.0093 -0.4402  0.6637
   40MOL    O5619634   3.718   7.657   4.421  0.0644 -0.4692 -1.0924
   40MOL    O5719635   3.916   7.646   4.522 -0.4038  0.2589  0.3181
   40MOL    C5819636   3.878   7.543   4.615  0.2184  0.1842 -0.3504
   40MOL    C5919637   3.994   7.440   4.641 -0.2703  0.3360  0.9812
   40MOL    C6019638   3.965   7.304   4.603 -0.2975  0.0937  0.4330
   40MOL    C6119639   4.060   7.204   4.637  0.2349  0.1681  0.4469
   40MOL    C6219640   4.182   7.235   4.707  0.6816  0.8757 -0.1926
   40MOL    C6319641   4.207   7.366   4.742 -0.0980  0.8537  0.5762
   40MOL    C6419642   4.113   7.468   4.710  0.0035  0.0074 -0.8907
   40MOL    H6519643   3.873   7.919   4.543  0.5480  1.7707 -0.7920
   40MOL    H6619644   4.032   7.869   4.519  0.7944  1.0191  0.2164
   40MOL    H6719645   3.685   7.824   4.236  0.8604 -0.0805 -1.4290
   40MOL    H6819646   3.797   7.967   4.233  1.1730 -0.9446  0.2904
   40MOL    H6919647   3.702   7.938   4.371  0.0200  0.6344 -0.1731
   40MOL    H7019648   3.844   7.580   4.711  1.0142  0.0902 -0.0278
   40MOL    H7119649   3.805   7.472   4.577 -0.7625  0.1691  1.5240
   40MOL    H7219650   3.886   7.267   4.540  0.2320 -0.5289  0.1287
   40MOL    H7319651   4.041   7.105   4.599 -1.5315  0.7176 -0.2039
   40MOL    H7419652   4.255   7.158   4.722 -1.0923 -0.7910  0.0677
   40MOL    H7519653   4.300   7.383   4.795 -1.0037  0.7176  2.2677
   40MOL    H7619654   4.137   7.566   4.747 -0.9758  0.1433 -0.5992
   40MOL    C7719655   3.984   7.797   4.240 -0.6055  0.2827  0.6365
   40MOL    C7819656   3.983   7.669   4.142 -0.6074 -0.4815 -0.4048
   40MOL    C7919657   3.844   7.642   4.076  0.7252  0.3157 -0.2184
   40MOL    C8019658   4.037   7.547   4.225 -0.3689  0.5040  0.6368
   40MOL    O8119659   3.984   7.438   4.229 -0.0901 -0.0625  0.3312
   40MOL    O8219660   4.151   7.567   4.297  0.3673 -0.0062 -0.4152
   40MOL    C8319661   4.213   7.464   4.351 -0.5129  0.2103  0.0774
   40MOL    C8419662   4.327   7.527   4.431  0.5283  0.0620  0.0246
   40MOL    C8519663   4.332   7.659   4.467  0.2786  0.4146  0.4346
   40MOL    C8619664   4.437   7.716   4.543  0.3914 -0.6572 -0.1760
   40MOL    C8719665   4.550   7.639   4.582  0.0217  0.7210 -0.0374
   40MOL    C8819666   4.546   7.503   4.556 -0.8422  0.0566  0.0025
   40MOL    C8919667   4.430   7.451   4.486 -0.0457  0.3433  0.0935
   40MOL    H9019668   4.076   7.800   4.298  0.0751  2.1676 -0.4950
   40MOL    H9119669   3.996   7.885   4.176 -2.1559  1.1796  1.5508
   40MOL    H9219670   3.764   7.631   4.149 -0.0102 -1.3355 -1.2371
   40MOL    H9319671   3.832   7.548   4.022  1.0462  0.2729 -0.2199
   40MOL    H9419672   3.822   7.728   4.013 -0.5865 -0.5421 -0.9608
   40MOL    H9519673   4.148   7.407   4.418  0.2798 -3.5973 -2.2246
   40MOL    H9619674   4.260   7.400   4.275 -0.2335  0.7714 -0.2252
   40MOL    H9719675   4.258   7.726   4.424  1.4270  0.3914 -1.6869
   40MOL    H9819676   4.433   7.822   4.564 -1.4961 -1.0224  1.4094
   40MOL    H9919677   4.623   7.682   4.650 -1.0010  0.0300  1.5188
   40MOL   H10019678   4.629   7.447   4.595  0.0503  1.5953  0.3693
   40MOL   H10119679   4.423   7.344   4.479 -0.0126  0.0988  2.9133
   40MOL   C10219680   4.102   7.691   4.034 -0.3869  0.4118  0.0533
   40MOL   C10319681   4.135   7.600   3.901  0.1055 -0.5307 -0.2434
   40MOL   C10419682   4.033   7.620   3.793 -0.0638 -0.4496 -0.7199
   40MOL   C10519683   4.136   7.449   3.931  0.4607  0.1280 -0.4378
   40MOL   O10619684   4.223   7.404   3.999 -0.1513 -0.2246 -0.4535
   40MOL   O10719685   4.035   7.370   3.873  0.7652 -0.3726 -0.4317
   40MOL   C10819686   4.036   7.227   3.894  0.1859 -0.4617 -0.1799
   40MOL   C10919687   4.004   7.176   4.032 -0.0596 -0.6353  0.7131
   40MOL   C11019688   3.869   7.153   4.070 -0.4135 -0.1542 -0.4212
   40MOL   C11119689   3.839   7.110   4.201  0.1919 -0.7141  0.2966
   40MOL   C11219690   3.945   7.089   4.294  0.4448 -0.3224 -0.1649
   40MOL   C11319691   4.080   7.117   4.257 -0.3752  0.0562 -0.2879
   40MOL   C11419692   4.106   7.160   4.126  0.8326  0.6617  0.1901
   40MOL   H11519693   4.196   7.698   4.088  0.5710  0.9296 -1.6446
   40MOL   H11619694   4.081   7.792   3.997 -1.1167 -0.5489 -2.2550
   40MOL   H11719695   4.027   7.723   3.760  0.4598 -0.2708 -0.2702
   40MOL   H11819696   3.934   7.596   3.832 -0.1957  1.1877 -0.0172
   40MOL   H11919697   4.063   7.564   3.705  0.2976 -1.4590  0.0314
   40MOL   H12019698   3.971   7.188   3.817 -1.5212  1.8363  0.0331
   40MOL   H12119699   4.136   7.190   3.873  1.3530  0.5292  3.2458
   40MOL   H12219700   3.789   7.165   3.998  0.2717 -0.4729 -1.2461
   40MOL   H12319701   3.735   7.096   4.230  0.4215 -1.2482  0.8681
   40MOL   H12419702   3.914   7.060   4.392  0.9731 -1.0385 -0.2103
   40MOL   H12519703   4.160   7.111   4.330  0.4006  1.9116 -0.9528
   40MOL   H12619704   4.208   7.178   4.095  0.2921  1.3535 -1.2190
   40MOL   C12719705   4.277   7.652   3.854 -0.4896  0.4589  0.6156
   40MOL   C12819706   4.348   7.615   3.719  0.3964  0.2996 -0.6418
   40MOL   C12919707   4.499   7.655   3.742 -0.5092  0.0924  0.2365
   40MOL   C13019708   4.283   7.708   3.606 -0.2428  0.0315 -0.5352
   40MOL   O13119709   4.203   7.669   3.526 -0.0679 -0.0370 -0.3114
   40MOL   O13219710   4.320   7.837   3.621 -0.2363  0.8266 -0.5279
   40MOL   C13319711   4.253   7.941   3.552  0.1899 -0.3422 -0.1567
   40MOL   C13419712   4.289   0.065   3.631 -0.6052  0.3878 -0.3516
   40MOL   C13519713   4.331   0.185   3.559  0.1849 -0.1916 -0.2609
   40MOL   C13619714   4.345   0.302   3.631  0.0460 -0.0450  0.3129
   40MOL   C13719715   4.318   0.305   3.770 -0.1244  0.7350  0.2893
   40MOL   C13819716   4.271   0.191   3.832  0.4815 -0.1530  0.6618
   40MOL   C13919717   4.263   0.066   3.766 -0.2227  0.1659 -0.1080
   40MOL   H14019718   4.336   7.607   3.934  0.0471 -0.5038 -0.2996
   40MOL   H14119719   4.276   7.761   3.859 -1.3545  0.5683 -1.2237
   40MOL   H14219720   4.552   7.576   3.796 -1.1475 -0.2615  0.3509
   40MOL   H14319721   4.500   7.749   3.797  0.4196  0.2990 -0.1308
   40MOL   H14419722   4.548   7.687   3.651  0.3520 -0.9874  0.3104
   40MOL   H14519723   4.284   7.940   3.448  0.0255 -2.3338 -0.2068
   40MOL   H14619724   4.147   7.917   3.567  0.4455 -0.3132  1.9195
   40MOL   H14719725   4.342   0.192   3.452  2.7610  0.0674  0.0053
   40MOL   H14819726   4.379   0.389   3.576  3.4823 -1.5413 -0.0686
   40MOL   H14919727   4.344   0.392   3.829  0.8855  0.6770 -0.0567
   40MOL   H15019728   4.262   0.205   3.939  1.1585 -1.5084  0.9091
   40MOL   H15119729   4.224   7.982   3.810  1.1162  0.3313  1.4425
   40MOL   C15219730   4.336   7.461   3.679  0.1899  0.4135  0.1517
   40MOL   C15319731   4.421   7.377   3.576  0.5800  0.2822 -0.2778
   40MOL   C15419732   4.570   7.368   3.628  0.5664 -0.2363 -0.1682
   40MOL   C15519733   4.428   7.441   3.436 -0.2244 -0.6483  0.1367
   40MOL   O15619734   4.537   7.477   3.384 -0.2012  0.2459 -0.3024
   40MOL   O15719735   4.306   7.455   3.377 -0.1362  1.0422  0.0179
   40MOL   C15819736   4.294   7.509   3.246 -0.1819  0.1027 -0.1387
   40MOL   C15919737   4.263   7.408   3.140 -0.1280 -0.5976 -0.0795
   40MOL   C16019738   4.328   7.415   3.015 -0.5485 -0.3656  0.3235
   40MOL   C16119739   4.296   7.320   2.914 -0.4486 -0.0912  0.2972
   40MOL   C16219740   4.191   7.231   2.929  0.7144  0.6517 -0.3814
   40MOL   C16319741   4.110   7.239   3.046  0.5157  0.1525 -0.0826
   40MOL   C16419742   4.149   7.324   3.150 -0.0252  0.9377 -0.2074
   40MOL   H16519743   4.232   7.446   3.650  0.6169  0.0150 -1.1929
   40MOL   H16619744   4.344   7.405   3.772 -1.4573  0.0671  0.1080
   40MOL   H16719745   4.626   7.461   3.624 -0.6910  0.5762  0.9114
   40MOL   H16819746   4.622   7.294   3.567  1.3196 -0.9283  1.2890
   40MOL   H16919747   4.573   7.331   3.731 -0.3842 -0.0172 -0.0643
   40MOL   H17019748   4.219   7.587   3.246  0.2223  0.4999  0.6468
   40MOL   H17119749   4.378   7.575   3.225 -0.4721  0.0316 -1.5562
   40MOL   H17219750   4.413   7.481   3.005 -0.8151  0.0160  0.5899
   40MOL   H17319751   4.354   7.318   2.823 -1.8118  2.3672 -0.6749
   40MOL   H17419752   4.156   7.169   2.847 -0.5600  1.3631 -0.3764
   40MOL   H17519753   4.020   7.180   3.050  0.5592  0.1657  1.3164
   40MOL   H17619754   4.094   7.336   3.243  0.4746  0.5564  0.1401
   40MOL   C17719755   4.352   7.238   3.577  0.8375  0.6532 -0.0745
   40MOL   C17819756   4.423   7.109   3.523  0.3176  0.2911 -0.2765
   40MOL   C17919757   4.506   7.118   3.397 -0.5483 -0.0696  0.1800
   40MOL   C18019758   4.304   7.012   3.488  1.1602 -0.0216  0.3068
   40MOL   O18119759   4.274   6.969   3.374  0.0124  0.0081  0.2901
   40MOL   O18219760   4.219   6.989   3.590 -0.3961  0.4320  0.0855
   40MOL   C18319761   4.124   6.890   3.564  0.5000  0.3235  0.5039
   40MOL   C18419762   4.049   6.850   3.696  0.2907 -0.3144  0.4123
   40MOL   C18519763   4.122   6.859   3.818  0.4196  0.2126 -0.8749
   40MOL   C18619764   4.058   6.827   3.943 -0.2443 -0.4387  0.1143
   40MOL   C18719765   3.920   6.799   3.949 -1.0135  0.5905  0.8628
   40MOL   C18819766   3.855   6.775   3.825 -0.4801 -0.2964  0.2100
   40MOL   C18919767   3.919   6.794   3.699  0.3933  0.3137  0.1806
   40MOL   H19019768   4.269   7.260   3.510  1.0608 -0.6926 -0.7982
   40MOL   H19119769   4.310   7.212   3.675  1.7167 -0.7663 -0.0656
   40MOL   H19219770   4.458   7.184   3.325  0.1105  0.4504  0.2131
   40MOL   H19319771   4.508   7.019   3.349 -1.8474 -0.4271  0.8424
   40MOL   H19419772   4.609   7.150   3.411 -0.6979 -1.1122  4.1026
   40MOL   H19519773   4.061   6.922   3.482 -0.3855  2.8373  2.1249
   40MOL   H19619774   4.171   6.800   3.525 -1.9091 -0.8472  0.1777
   40MOL   H19719775   4.229   6.873   3.816  0.3459  1.1983  1.2115
   40MOL   H19819776   4.121   6.833   4.030 -0.1005 -0.8410  0.0418
   40MOL   H19919777   3.875   6.785   4.046  1.9642 -0.2617  2.1681
   40MOL   H20019778   3.753   6.741   3.824 -0.0581 -1.6303  1.5643
   40MOL   H20119779   3.868   6.765   3.608  1.0024  0.0921 -0.0947
   40MOL   C20219780   4.494   7.048   3.654 -0.3218  0.3321 -0.1414
   40MOL   C20319781   4.611   6.933   3.661 -0.0360 -0.0827  0.6460
   40MOL   C20419782   4.731   6.967   3.558  0.5302 -0.3611 -0.6030
   40MOL   C20519783   4.551   6.792   3.614 -1.4559 -0.1545 -0.2147
   40MOL   O20619784   4.433   6.778   3.582 -0.0570  0.4712 -0.1466
   40MOL   O20719785   4.641   6.696   3.629 -0.5804 -0.4406  0.1180
   40MOL   C20819786   4.613   6.562   3.609  0.2305  0.4536 -1.3818
   40MOL   C20919787   4.535   6.482   3.721 -0.2044 -0.6060  0.1708
   40MOL   C21019788   4.390   6.485   3.713  0.2237  0.5907  0.6399
   40MOL   C21119789   4.315   6.424   3.813  0.0861 -0.4843 -0.5300
   40MOL   C21219790   4.386   6.359   3.919  0.5436 -0.0524  0.8792
   40MOL   C21319791   4.526   6.356   3.924 -0.7219 -0.0003  0.1908
   40MOL   C21419792   4.600   6.422   3.829 -0.5630 -0.1061 -0.1056
   40MOL   H21519793   4.413   7.024   3.723 -0.6848  0.7702 -0.4152
   40MOL   H21619794   4.547   7.127   3.707  0.3666 -0.4409  0.3624
   40MOL   H21719795   4.761   7.070   3.580  0.6816  0.0209 -2.5442
   40MOL   H21819796   4.693   6.948   3.458 -0.8107 -1.0917  0.0387
   40MOL   H21919797   4.831   6.923   3.564  1.3023  1.2078 -1.4029
   40MOL   H22019798   4.566   6.550   3.511 -2.5037 -0.1353 -0.0236
   40MOL   H22119799   4.715   6.522   3.609 -0.2277 -0.8288  2.2180
   40MOL   H22219800   4.342   6.525   3.625 -0.7450 -0.8816  0.4727
   40MOL   H22319801   4.207   6.423   3.808  0.0327  1.7127 -0.2815
   40MOL   H22419802   4.326   6.317   3.997 -0.5336 -0.6325 -0.2397
   40MOL   H22519803   4.575   6.296   3.999 -0.7429  0.4367  0.5528
   40MOL   H22619804   4.707   6.408   3.828 -0.8393 -2.2126 -2.1383
   40MOL   C22719805   4.688   6.941   3.797  0.1243  0.0640  0.3068
   40MOL   C22819806   4.617   6.908   3.935 -0.0778 -0.7257  0.5431
   40MOL   C22919807   4.535   6.770   3.925  0.3703 -0.4486 -0.4667
   40MOL   C23019808   4.513   7.015   3.979  0.7397 -0.3437  0.7023
   40MOL   O23119809   4.391   6.996   3.995  0.2800 -0.0060  0.7301
   40MOL   O23219810   4.581   7.133   3.995  0.3290 -0.2287 -0.4013
   40MOL   C23319811   4.509   7.248   4.024 -0.1122 -0.4792  0.8119
   40MOL   C23419812   4.589   7.368   4.066 -1.0980 -0.3624 -0.7978
   40MOL   C23519813   4.722   7.375   4.018  0.1874 -0.0671 -0.1510
   40MOL   C23619814   4.801   7.482   4.059 -0.3649 -0.1082 -0.9560
   40MOL   C23719815   4.757   7.578   4.151  0.0548 -0.8250 -0.0868
   40MOL   C23819816   4.626   7.568   4.198 -0.0555  0.1705 -0.6142
   40MOL   C23919817   4.543   7.461   4.159  0.0764  0.0037  0.7457
   40MOL   H24019818   4.726   7.043   3.802  0.3590 -0.0716  1.5226
   40MOL   H24119819   4.768   6.869   3.786  0.4118  0.0629  2.2335
   40MOL   H24219820   4.588   6.680   3.896  1.0539 -0.0304 -0.5258
   40MOL   H24319821   4.446   6.783   3.862 -0.2007  0.1866  0.4537
   40MOL   H24419822   4.473   6.753   4.013 -1.5545 -0.1340 -1.7188
   40MOL   H24519823   4.446   7.280   3.941  1.2323  1.5493  0.5201
   40MOL   H24619824   4.438   7.232   4.104 -1.3241 -0.0624 -0.1674
   40MOL   H24719825   4.762   7.300   3.952  1.7655  1.3284 -0.8248
   40MOL   H24819826   4.897   7.490   4.009 -0.0385 -1.5072 -0.5917
   40MOL   H24919827   4.827   7.656   4.177 -0.3782 -0.5845  0.3404
   40MOL   H25019828   4.581   7.642   4.263  1.5751 -0.3563  1.1549
   40MOL   H25119829   4.441   7.449   4.192 -0.5323  2.2639 -0.2332
   40MOL   C25219830   4.735   6.890   4.040 -0.1427 -0.1105 -0.3586
   40MOL   C25319831   4.723   6.829   4.189 -0.6842  0.5380  0.7728
   40MOL   C25419832   4.848   6.887   4.261 -0.0655 -0.7693  1.2359
   40MOL   C25519833   4.741   6.672   4.186  0.5136 -0.3525 -0.8511
   40MOL   O25619834   4.726   6.603   4.084 -0.6028 -0.5574 -0.0908
   40MOL   O25719835   4.781   6.616   4.298 -0.0641  0.0707 -0.9730
   40MOL   C25819836   4.797   6.472   4.305  0.5271 -0.2356  0.1204
   40MOL   C25919837   4.941   6.430   4.282 -0.1759 -0.5756 -0.4225
   40MOL   C26019838   5.041   6.475   4.373 -0.4451 -0.4301  0.5484
   40MOL   C26119839   5.179   6.443   4.349  0.1073 -0.2716 -0.2668
   40MOL   C26219840   5.207   6.348   4.251 -0.5383  0.2108 -0.0149
   40MOL   C26319841   5.104   6.302   4.169 -0.7908  0.5949  0.1380
   40MOL   C26419842   4.978   6.348   4.174  0.1319  0.0622 -0.2200
   40MOL   H26519843   4.787   6.985   4.045 -0.9342  0.3903 -1.4202
   40MOL   H26619844   4.809   6.832   3.986  1.3933 -0.5271  2.1132
   40MOL   H26719845   4.933   6.897   4.194 -0.8446 -0.9822  0.2128
   40MOL   H26819846   4.877   6.840   4.356  0.6749  1.1467  1.9777
   40MOL   H26919847   4.828   6.990   4.287  0.4005 -0.3113 -0.1756
   40MOL   H27019848   4.764   6.441   4.404 -1.2731 -0.1982 -0.4423
   40MOL   H27119849   4.728   6.424   4.236 -0.9714 -0.1205  1.5022
   40MOL   H27219850   5.016   6.544   4.453 -0.4351  1.5478 -1.1017
   40MOL   H27319851   5.250   6.498   4.408 -0.8223 -0.1935  0.7919
   40MOL   H27419852   5.307   6.309   4.239 -0.5717 -0.3114  1.2738
   40MOL   H27519853   5.132   6.239   4.086  0.4467 -2.4304  2.7466
   40MOL   H27619854   4.912   6.323   4.092 -0.5773 -0.8118  0.6058
   40MOL   C27719855   4.595   6.879   4.257  0.7482  0.1837  0.1141
   40MOL   C27819856   4.544   6.860   4.408 -0.2966 -0.0562  0.3119
   40MOL   C27919857   4.430   6.964   4.428 -0.5918  0.5109 -1.1394
   40MOL   C28019858   4.648   6.899   4.516 -0.1673 -0.1786  0.3097
   40MOL   O28119859   4.696   6.821   4.600 -0.2217  0.0778 -0.3267
   40MOL   O28219860   4.689   7.019   4.503  0.5086  0.1892  0.1086
   40MOL   C28319861   4.801   7.060   4.596 -0.1101 -0.5280  0.4413
   40MOL   C28419862   4.866   7.195   4.554  0.1900  0.6960 -0.3523
   40MOL   C28519863   4.958   7.259   4.643 -1.0751 -0.2807  0.2695
   40MOL   C28619864   5.017   7.381   4.606 -0.0407  0.5970 -0.1690
   40MOL   C28719865   4.997   7.428   4.475  0.8500 -0.2453  0.4373
   40MOL   C28819866   4.911   7.369   4.388 -0.0109  0.0980 -0.0123
   40MOL   C28919867   4.848   7.247   4.427  0.0186  0.5856 -0.6915
   40MOL   H29019868   4.509   6.862   4.193  0.3990  0.1924  0.5789
   40MOL   H29119869   4.604   6.987   4.250 -0.5196  0.1431 -2.5880
   40MOL   H29219870   4.407   6.975   4.533  0.2933  1.1691 -1.0021
   40MOL   H29319871   4.338   6.949   4.372  0.7015  0.0042 -3.2059
   40MOL   H29419872   4.464   7.065   4.405  2.6849  0.3584  2.5860
   40MOL   H29519873   4.748   7.085   4.688  1.5092  2.0827  0.7192
   40MOL   H29619874   4.874   6.981   4.613  0.1527 -0.2457  0.6378
   40MOL   H29719875   4.977   7.225   4.744 -1.6632 -0.5342  0.2981
   40MOL   H29819876   5.096   7.427   4.663  1.8498 -3.3755  0.6251
   40MOL   H29919877   5.046   7.519   4.443  2.5407 -1.7896 -1.4803
   40MOL   H30019878   4.882   7.416   4.295 -0.1915 -0.5568 -0.2875
   40MOL   H30119879   4.784   7.198   4.355  0.4251  1.0628 -1.3790
   40MOL   C30219880   4.490   6.718   4.448  0.7440 -0.1762 -0.1011
   40MOL   C30319881   4.378   6.636   4.391  0.2795  0.2350  0.8097
   40MOL   C30419882   4.394   6.617   4.241  0.0800  0.3288  0.5233
   40MOL   C30519883   4.232   6.694   4.419 -0.4133  0.0550  0.4781
   40MOL   O30619884   4.214   6.781   4.502  0.1249  0.3948  0.3523
   40MOL   O30719885   4.135   6.654   4.342  0.1992 -0.0685 -0.2267
   40MOL   C30819886   4.002   6.699   4.374  0.1347  0.3246  0.0417
   40MOL   C30919887   3.907   6.626   4.283  0.0867  0.1811  0.1328
   40MOL   C31019888   3.948   6.564   4.164  0.1406 -0.0738 -0.0895
   40MOL   C31119889   3.866   6.482   4.086  0.2544 -0.5458 -0.7093
   40MOL   C31219890   3.734   6.455   4.129  0.0735 -0.1533 -0.1352
   40MOL   C31319891   3.689   6.518   4.247 -0.0362  0.3421 -0.7290
   40MOL   C31419892   3.770   6.605   4.322 -0.5636 -0.8085 -0.3893
   40MOL   H31519893   4.465   6.709   4.554  1.4643 -0.0854  0.0795
   40MOL   H31619894   4.580   6.660   4.428  1.7587  1.5321 -0.5296
   40MOL   H31719895   4.322   6.550   4.196 -0.3847  1.3030 -0.1988
   40MOL   H31819896   4.492   6.577   4.216 -0.0330  1.5255 -1.9560
   40MOL   H31919897   4.375   6.707   4.183  0.2470  0.8780  1.3191
   40MOL   H32019898   3.967   6.685   4.476 -0.9843 -2.6183 -0.6872
   40MOL   H32119899   3.991   6.806   4.361 -0.4160  0.2711  0.0549
   40MOL   H32219900   4.051   6.577   4.132  0.2997 -0.8146  0.0948
   40MOL   H32319901   3.913   6.435   4.001  0.4274  2.4533 -2.3593
   40MOL   H32419902   3.667   6.384   4.082 -1.3396 -0.1928  1.8909
   40MOL   H32519903   3.591   6.489   4.280 -1.1812  3.5577 -1.1314
   40MOL   H32619904   3.735   6.632   4.421  1.5029  3.4869 -0.6920
   40MOL   C32719905   4.387   6.490   4.444  0.1149  0.0359  0.3079
   40MOL   C32819906   4.378   6.444   4.599  0.2586  0.8913  1.1885
   40MOL   C32919907   4.258   6.516   4.673  0.3200 -0.4256 -0.2183
   40MOL   C33019908   4.508   6.474   4.681 -0.0899  0.4775  0.1031
   40MOL   O33119909   4.618   6.506   4.631  1.2277 -0.6990 -0.4709
   40MOL   O33219910   4.492   6.458   4.808  0.4867 -0.4445 -0.6513
   40MOL   C33319911   4.604   6.452   4.900 -0.2057  0.6418  0.0305
   40MOL   C33419912   4.588   6.345   5.006  0.6798  0.2919 -0.4038
   40MOL   C33519913   4.699   6.268   5.032  0.3327  0.1213  0.2718
   40MOL   C33619914   4.705   6.177   5.140  0.5463  0.3303 -0.5601
   40MOL   C33719915   4.591   6.163   5.227 -0.0195 -1.7450 -0.1913
   40MOL   C33819916   4.479   6.240   5.197 -0.3939 -0.1189 -0.1655
   40MOL   C33919917   4.470   6.326   5.083 -0.7778 -0.1427 -0.0160
   40MOL   H34019918   4.477   6.449   4.397  0.1704 -0.1287  0.5510
   40MOL   H34119919   4.310   6.426   4.400  0.1511  0.6230 -0.6186
   40MOL   H34219920   4.250   6.482   4.777  0.5783  0.6932  0.1764
   40MOL   H34319921   4.167   6.512   4.613  1.3731 -0.5009 -1.8245
   40MOL   H34419922   4.285   6.622   4.677 -1.8637  0.1116  2.6169
   40MOL   H34519923   4.695   6.429   4.846 -0.1783  2.7614 -0.8698
   40MOL   H34619924   4.619   6.546   4.953 -0.7593 -0.1511  1.6650
   40MOL   H34719925   4.788   6.284   4.973 -1.0108 -1.5015 -2.3352
   40MOL   H34819926   4.801   6.138   5.173 -0.0693 -0.4060  0.3740
   40MOL   H34919927   4.590   6.087   5.304 -2.3414  1.4943  3.1298
   40MOL   H35019928   4.391   6.223   5.258 -0.2725  0.4761  0.1836
   40MOL   H35119929   4.381   6.384   5.061 -0.0742  0.9917  0.0836
   40MOL   C35219930   4.353   6.291   4.612 -0.5899  0.2077  0.1921
   40MOL   C35319931   4.429   6.180   4.527 -0.3908  0.8958 -0.0715
   40MOL   C35419932   4.585   6.195   4.525 -0.5829  0.3677  0.1038
   40MOL   C35519933   4.372   6.183   4.380 -0.4153  1.0297 -0.6376
   40MOL   O35619934   4.445   6.194   4.283  0.4087  0.2586 -0.4009
   40MOL   O35719935   4.239   6.178   4.370  0.4482  0.0500 -0.4289
   40MOL   C35819936   4.175   6.199   4.241 -0.1143 -0.6090 -0.0523
   40MOL   C35919937   4.057   6.120   4.221  0.3194 -0.3069  0.1320
   40MOL   C36019938   3.933   6.177   4.259 -0.3177  0.1965 -0.6239
   40MOL   C36119939   3.809   6.110   4.240 -0.9072 -0.1952 -0.2967
   40MOL   C36219940   3.814   5.977   4.187 -0.2611  0.7022  0.7996
   40MOL   C36319941   3.939   5.928   4.138  0.0455  0.8588  1.0867
   40MOL   C36419942   4.055   5.993   4.159 -0.1707  0.1053 -0.3995
   40MOL   H36519943   4.247   6.277   4.593 -1.3763  0.4061  3.9856
   40MOL   H36619944   4.354   6.264   4.718 -1.5821  1.4206  0.5172
   40MOL   H36719945   4.615   6.279   4.462 -2.0010 -0.1700 -1.3318
   40MOL   H36819946   4.648   6.111   4.495  0.6725  0.3124  2.8176
   40MOL   H36919947   4.611   6.208   4.630 -2.1734 -0.6629  0.6439
   40MOL   H37019948   4.126   6.295   4.223 -1.7752 -1.8629 -2.4253
   40MOL   H37119949   4.242   6.172   4.159  0.3507  2.7992 -0.8847
   40MOL   H37219950   3.932   6.276   4.302  1.9964 -0.8322  2.0017
   40MOL   H37319951   3.716   6.150   4.278  0.0910  0.8602  1.1116
   40MOL   H37419952   3.720   5.924   4.182 -0.2223  0.7773 -0.9005
   40MOL   H37519953   3.949   5.826   4.103  1.5367  1.5307 -0.5097
   40MOL   H37619954   4.146   5.944   4.127 -0.9543 -0.1763 -2.2691
   40MOL   C37719955   4.394   6.049   4.601 -0.2567  0.0032  0.4747
   40MOL   C37819956   4.406   5.899   4.549 -0.8898  0.6627  0.6339
   40MOL   C37919957   4.517   5.878   4.442  0.4011 -0.2608  0.3522
   40MOL   C38019958   4.275   5.854   4.478  0.1219  0.2710 -0.1851
   40MOL   O38119959   4.273   5.839   4.354  0.4749 -0.1227  0.3256
   40MOL   O38219960   4.168   5.844   4.558 -0.1604 -0.3067  0.1006
   40MOL   C38319961   4.039   5.819   4.507  0.8101  0.7627  0.5279
   40MOL   C38419962   3.935   5.792   4.622  0.0278  0.7793 -0.1522
   40MOL   C38519963   3.803   5.834   4.592 -0.2005  0.0816  0.7092
   40MOL   C38619964   3.702   5.824   4.694  0.0196  0.5501 -0.4113
   40MOL   C38719965   3.733   5.765   4.818 -0.3568  0.3586 -0.0852
   40MOL   C38819966   3.867   5.721   4.850  0.4163  0.6822 -0.6769
   40MOL   C38919967   3.969   5.747   4.754 -0.1236 -0.3719 -0.3408
   40MOL   H39019968   4.288   6.058   4.621 -0.1606 -0.5681  1.2690
   40MOL   H39119969   4.442   6.066   4.698 -0.5082  0.3221  0.5432
   40MOL   H39219970   4.619   5.889   4.480 -0.0082 -0.9307  1.6832
   40MOL   H39319971   4.494   5.948   4.362  1.7637 -1.7662 -1.4170
   40MOL   H39419972   4.517   5.778   4.399 -0.4663 -1.1864  2.4124
   40MOL   H39519973   4.010   5.905   4.446 -1.5785 -0.7742 -0.5681
   40MOL   H39619974   4.034   5.737   4.435  0.3317  1.1778  0.0782
   40MOL   H39719975   3.770   5.882   4.501 -1.6341 -0.7511  0.7717
   40MOL   H39819976   3.603   5.857   4.666  0.8289  1.7779 -1.8743
   40MOL   H39919977   3.654   5.756   4.891 -1.9280  0.1695 -1.8016
   40MOL   H40019978   3.890   5.684   4.948 -0.5075 -2.3381 -1.5354
   40MOL   H40119979   4.073   5.727   4.777  0.7528  2.9159 -1.1008
   40MOL   C40219980   4.427   5.803   4.676 -0.3063 -0.0452  0.2425
   40MOL   C40319981   4.567   5.781   4.758  0.3803  0.4894  0.1328
   40MOL   C40419982   4.625   5.918   4.811  0.1106  0.4377  0.2050
   40MOL   C40519983   4.677   5.712   4.672  0.0946  0.1223  0.5264
   40MOL   O40619984   4.788   5.762   4.662 -0.7847  0.3286 -0.2666
   40MOL   O40719985   4.642   5.594   4.618  0.3908  0.0825 -0.1682
   40MOL   C40819986   4.742   5.523   4.549 -0.3916 -0.0225  0.0960
   40MOL   C40919987   4.706   5.446   4.430 -0.3890  0.6365 -0.0397
   40MOL   C41019988   4.797   5.346   4.386  0.2376  0.2546 -0.3979
   40MOL   C41119989   4.765   5.253   4.280  0.2295  0.1125 -0.0315
   40MOL   C41219990   4.637   5.274   4.228 -0.1651 -0.1276  0.2303
   40MOL   C41319991   4.541   5.369   4.270 -0.0202  0.5492 -0.1426
   40MOL   C41419992   4.583   5.466   4.365 -0.5738 -0.4074  0.4872
   40MOL   H41519993   4.394   5.704   4.644 -0.2824  0.7496 -2.3637
   40MOL   H41619994   4.348   5.836   4.742 -1.5787 -0.5227 -0.9977
   40MOL   H41719995   4.721   5.912   4.862  0.1404  1.3611  0.2702
   40MOL   H41819996   4.547   5.976   4.861 -1.1205  1.1358 -2.4275
   40MOL   H41919997   4.640   5.989   4.729 -0.5441  1.8587  1.2979
   40MOL   H42019998   4.814   5.595   4.509 -0.5131 -0.2176 -0.4747
   40MOL   H42119999   4.777   5.451   4.623  0.1011  1.3751  1.2524
   40MOL   H42220000   4.886   5.323   4.443 -0.1916 -2.1100 -0.6082
   40MOL   H42320001   4.840   5.181   4.249 -1.8606 -0.9916 -2.7492
   40MOL   H42420002   4.596   5.202   4.158 -2.1376 -0.0315  1.2607
   40MOL   H42520003   4.443   5.385   4.228 -0.8792  0.1530  1.6334
   40MOL   H42620004   4.523   5.546   4.406  1.1508  1.8267 -1.2253
   40MOL   C42720005   4.552   5.684   4.886  0.2506  0.1775  0.2411
   40MOL   C42820006   4.439   5.682   4.989 -0.0770 -0.2725 -0.5922
   40MOL   C42920007   4.308   5.619   4.927 -0.4220  0.2128 -0.1480
   40MOL   C43020008   4.413   5.827   5.045 -0.3657  0.6284  0.4483
   40MOL   O43120009   4.474   5.876   5.140 -0.5629  0.1741  0.6986
   40MOL   O43220010   4.316   5.890   4.986  0.5276 -0.1897  0.1492
   40MOL   C43320011   4.271   6.013   5.036 -0.3680  0.1366  0.0157
   40MOL   C43420012   4.146   6.061   4.964 -0.1201  0.3100  1.2656
   40MOL   C43520013   4.158   6.180   4.890 -0.1236 -1.2316 -0.0295
   40MOL   C43620014   4.048   6.248   4.835  0.7548  0.6478 -1.1669
   40MOL   C43720015   3.922   6.181   4.848  0.1088  0.3082  0.6556
   40MOL   C43820016   3.911   6.057   4.917 -0.3861 -0.2328 -0.3670
   40MOL   C43920017   4.024   5.997   4.979 -0.0005  0.0547  0.5239
   40MOL   H44020018   4.644   5.689   4.944  0.3154 -1.4743  0.3301
   40MOL   H44120019   4.551   5.577   4.861 -0.0707  0.8028 -2.6393
   40MOL   H44220020   4.224   5.666   4.978 -1.0423 -0.7973 -0.2239
   40MOL   H44320021   4.298   5.510   4.934  0.0984  0.1767  0.0688
   40MOL   H44420022   4.303   5.641   4.820  3.0572  1.1556 -0.1834
   40MOL   H44520023   4.243   6.010   5.141 -0.8263 -3.1104 -0.1475
   40MOL   H44620024   4.350   6.087   5.023 -1.3410  0.6599 -3.4980
   40MOL   H44720025   4.255   6.227   4.893 -0.3723 -0.7435  0.5352
   40MOL   H44820026   4.058   6.347   4.794 -0.2026  1.9452  1.6368
   40MOL   H44920027   3.838   6.224   4.795  0.1640  0.0824  0.3847
   40MOL   H45020028   3.815   6.010   4.931 -0.5967 -0.1588 -1.4517
   40MOL   H45120029   4.018   5.902   5.029 -3.0140  1.9129  3.9663
   40MOL   C45220030   4.479   5.586   5.108 -0.2643 -0.1397  0.5729
   40MOL   C45320031   4.399   5.543   5.236 -0.3205 -0.4961  0.0194
   40MOL   C45420032   4.275   5.463   5.206 -0.7460  0.3822  0.3870
   40MOL   C45520033   4.370   5.656   5.338 -0.1174 -0.4707 -0.5566
   40MOL   O45620034   4.254   5.701   5.351 -0.1103 -0.1970 -0.0258
   40MOL   O45720035   4.481   5.717   5.384 -0.1709  0.1369 -0.3727
   40MOL   C45820036   4.472   5.834   5.474 -0.4292  0.3975  0.1179
   40MOL   C45920037   4.525   5.796   5.615  0.1270 -0.3782  0.5456
   40MOL   C46020038   4.451   5.696   5.684 -0.6432  0.2915  0.3150
   40MOL   C46120039   4.500   5.665   5.814  0.0895  0.5304 -1.2913
   40MOL   C46220040   4.619   5.724   5.867  0.0652  0.4644  0.2136
   40MOL   C46320041   4.698   5.807   5.791  0.0953  0.8562  0.3521
   40MOL   C46420042   4.651   5.842   5.664  0.3170  0.4935 -0.5634
   40MOL   H46520043   4.575   5.620   5.146  1.0269 -1.7543 -1.1691
   40MOL   H46620044   4.506   5.492   5.061 -0.6866  0.2092 -0.3821
   40MOL   H46720045   4.243   5.410   5.295  0.9355 -3.1479 -1.0437
   40MOL   H46820046   4.292   5.390   5.127  1.3411 -0.6167  1.7153
   40MOL   H46920047   4.202   5.536   5.171 -1.6508 -0.4950  0.4275
   40MOL   H47020048   4.530   5.913   5.427 -1.6895  0.3859 -1.4923
   40MOL   H47120049   4.365   5.855   5.477 -0.5532  0.4674 -3.1069
   40MOL   H47220050   4.356   5.658   5.649 -1.2457  2.9737 -1.0399
   40MOL   H47320051   4.439   5.610   5.885  0.7570 -0.4922 -1.4938
   40MOL   H47420052   4.644   5.693   5.968  1.5581  1.0175  0.0249
   40MOL   H47520053   4.795   5.843   5.821  0.9319  2.1061 -3.5472
   40MOL   H47620054   4.705   5.897   5.589 -2.0331  2.6542 -0.7373
   40MOL   C47720055   4.497   5.443   5.305  0.2062  0.0770 -0.1832
   40MOL   C47820056   4.468   5.388   5.444  0.4714  0.1735 -0.3514
   40MOL   C47920057   4.597   5.410   5.527  0.1235 -0.1041  0.2797
   40MOL   C48020058   4.425   5.239   5.455  0.0847 -0.5855  0.5259
   40MOL   O48120059   4.486   5.154   5.514  0.0654  0.0526  0.1570
   40MOL   O48220060   4.308   5.218   5.406  0.7853  0.2413  0.3193
   40MOL   C48320061   4.244   5.093   5.413  0.6354 -0.2282  0.2558
   40MOL   C48420062   4.097   5.091   5.398 -0.2810  0.0553  0.1437
   40MOL   C48520063   4.034   4.968   5.401  0.6684 -0.3421  0.1717
   40MOL   C48620064   3.898   4.959   5.378 -0.3970  0.3126 -0.4597
   40MOL   C48720065   3.816   5.074   5.362 -0.2688 -0.3604  0.0270
   40MOL   C48820066   3.882   5.198   5.358  0.6935 -0.1024  0.1412
   40MOL   C48920067   4.015   5.210   5.389 -0.4216 -0.0006 -0.0862
   40MOL   H49020068   4.597   5.486   5.309 -0.1758  0.7729  2.9401
   40MOL   H49120069   4.518   5.355   5.243 -0.0465  0.6419 -1.0733
   40MOL   H49220070   4.609   5.373   5.629  1.0839  0.6211  0.4395
   40MOL   H49320071   4.628   5.514   5.518  2.1459 -0.6833  0.1528
   40MOL   H49420072   4.680   5.359   5.477  0.0439  2.4069 -2.5421
   40MOL   H49520073   4.274   5.037   5.324 -3.1878 -0.0457 -1.2014
   40MOL   H49620074   4.280   5.039   5.501 -0.9890  0.0250  1.0813
   40MOL   H49720075   4.094   4.878   5.407 -0.0231 -0.7503  1.2392
   40MOL   H49820076   3.856   4.860   5.366  2.9936 -1.4913  1.6951
   40MOL   H49920077   3.714   5.057   5.331 -0.5974  0.0650  0.8523
   40MOL   H50020078   3.833   5.292   5.342  0.6748 -0.0900  0.2702
   40MOL   H50120079   4.068   5.303   5.399  2.8839 -1.6530 -1.5850
   40MOL   H50220080   4.395   5.436   5.509  0.4931 -1.3893  0.8527
   41MOL     C120081   2.466   0.469   4.177 -0.1936  0.2547  0.0028
   41MOL     C220082   2.627   0.463   4.158  0.6107 -0.3630  0.3128
   41MOL     C320083   2.658   0.533   4.020 -0.5128  0.3970 -0.0471
   41MOL     C420084   2.666   0.309   4.136 -0.6588 -0.4736  0.7373
   41MOL     O520085   2.583   0.221   4.125  0.5640 -0.1168  0.0859
   41MOL     O620086   2.797   0.286   4.148  0.5780 -0.1548 -0.5158
   41MOL     C720087   2.850   0.158   4.172  0.4787 -0.2984 -0.5500
   41MOL     C820088   2.985   0.151   4.241 -0.6994  0.3394  0.0082
   41MOL     C920089   3.059   0.026   4.253 -0.1859  0.1252 -0.0560
   41MOL    C1020090   3.181   0.016   4.317 -0.1501 -0.0746 -0.3350
   41MOL    C1120091   3.237   0.123   4.392  0.2921  0.3911  0.2755
   41MOL    C1220092   3.156   0.243   4.391  0.5626 -0.3142  0.0634
   41MOL    C1320093   3.040   0.251   4.317  0.1184  0.3390 -0.1720
   41MOL    H1420094   2.413   0.447   4.085 -1.2158  0.1410  0.6089
   41MOL    H1520095   2.426   0.411   4.260  0.9164  0.7395  0.8963
   41MOL    H1620096   2.756   0.498   3.989 -0.9638 -0.8999 -0.0520
   41MOL    H1720097   2.647   0.640   4.004 -1.7992  0.4426  1.0669
   41MOL    H1820098   2.598   0.498   3.935 -1.3749 -0.6419  0.9818
   41MOL    H1920099   2.788   0.097   4.237  0.4818 -1.3645 -1.5287
   41MOL    H2020100   2.854   0.114   4.073  0.7476  0.0714 -0.7034
   41MOL    H2120101   3.013   7.951   4.200  1.2982  0.7065 -2.3757
   41MOL    H2220102   3.226   7.928   4.343 -0.4723  0.1150  0.9783
   41MOL    H2320103   3.319   0.115   4.461 -0.4832  2.4302  1.4827
   41MOL    H2420104   3.181   0.329   4.451 -0.9558  0.7136 -0.7493
   41MOL    H2520105   2.978   0.340   4.324  2.2980  1.8109  0.8180
   41MOL    H2620106   2.442   0.575   4.192 -1.2255  0.1052 -0.5356
   41MOL    C2720107   2.700   0.529   4.279 -0.3914 -0.0818  1.0423
   41MOL    C2820108   2.673   0.500   4.435 -0.5371  0.5671  0.2863
   41MOL    C2920109   2.533   0.542   4.480  0.3698 -0.2276  0.1454
   41MOL    C3020110   2.787   0.588   4.501  0.1743  0.6302  0.4411
   41MOL    O3120111   2.906   0.542   4.514  0.1175  0.0819  0.0769
   41MOL    O3220112   2.744   0.704   4.540 -0.0608  0.4066 -0.0930
   41MOL    C3320113   2.847   0.791   4.588 -0.5554  0.1299  0.9262
   41MOL    C3420114   2.779   0.913   4.650 -0.2288 -0.4536  0.0204
   41MOL    C3520115   2.649   0.917   4.709 -0.2805  0.0609 -0.3161
   41MOL    C3620116   2.581   1.030   4.743  0.4302  0.5540  0.1900
   41MOL    C3720117   2.652   1.152   4.734 -0.4456  0.5379 -0.0315
   41MOL    C3820118   2.782   1.151   4.696  0.1380 -0.0332 -0.1489
   41MOL    C3920119   2.845   1.035   4.648 -0.2744  0.1709  0.6307
   41MOL    H4020120   2.678   0.634   4.260  0.9547  0.3402  1.7667
   41MOL    H4120121   2.805   0.517   4.255 -0.9702 -0.0591 -1.5864
   41MOL    H4220122   2.456   0.468   4.456  1.6037 -1.2619 -0.7223
   41MOL    H4320123   2.497   0.633   4.432 -0.6207 -0.1119  1.0846
   41MOL    H4420124   2.532   0.566   4.586  2.4636 -1.5653  0.4839
   41MOL    H4520125   2.910   0.744   4.663 -0.7115 -0.9095  0.4143
   41MOL    H4620126   2.916   0.837   4.517 -0.6352  0.3869  1.0132
   41MOL    H4720127   2.598   0.822   4.717 -1.1306  0.5194 -0.1785
   41MOL    H4820128   2.474   1.024   4.757  0.6549 -2.3715  0.9450
   41MOL    H4920129   2.603   1.246   4.757  0.9155  1.7057 -1.8094
   41MOL    H5020130   2.857   1.229   4.691  0.8603 -0.8489 -2.6390
   41MOL    H5120131   2.945   1.043   4.607  0.2116  0.3036  1.8130
   41MOL    C5220132   2.685   0.337   4.458  0.0717  0.5804 -1.0038
   41MOL    C5320133   2.698   0.262   4.595 -0.0561  0.5135  0.5398
   41MOL    C5420134   2.687   0.114   4.559 -0.4183 -0.3884  0.7189
   41MOL    C5520135   2.574   0.302   4.676  0.4686 -0.4017 -0.1103
   41MOL    O5620136   2.581   0.367   4.781  0.1519 -0.0457 -0.1600
   41MOL    O5720137   2.457   0.272   4.608 -0.3693 -0.7579  0.0509
   41MOL    C5820138   2.336   0.310   4.670  0.9076  0.7758  1.0122
   41MOL    C5920139   2.213   0.265   4.596  0.2766 -0.1680  0.3994
   41MOL    C6020140   2.080   0.275   4.651  0.4118  0.5775 -0.8664
   41MOL    C6120141   1.964   0.218   4.579 -0.7716 -0.0540 -0.5310
   41MOL    C6220142   1.987   0.164   4.454  0.2139  0.3013  0.0082
   41MOL    C6320143   2.114   0.160   4.399 -0.2681 -0.0635 -0.1279
   41MOL    C6420144   2.227   0.211   4.466 -0.4382  0.3354  0.3230
   41MOL    H6520145   2.769   0.296   4.402 -2.0086 -0.1191 -3.7153
   41MOL    H6620146   2.595   0.300   4.409  1.3560 -0.4101 -2.6935
   41MOL    H6720147   2.774   0.078   4.504  0.4434  1.2824  0.9538
   41MOL    H6820148   2.610   0.091   4.486  1.1826 -1.0219 -0.8160
   41MOL    H6920149   2.652   0.045   4.636 -0.1215  0.3333  1.5020
   41MOL    H7020150   2.334   0.261   4.768  1.0980 -0.6517  0.3078
   41MOL    H7120151   2.346   0.417   4.688 -1.5835  1.5249 -1.6848
   41MOL    H7220152   2.068   0.322   4.748  0.9422 -0.2360 -0.4018
   41MOL    H7320153   1.868   0.226   4.628 -1.7580  0.9079 -2.5755
   41MOL    H7420154   1.900   0.125   4.402  0.9099 -2.4865  0.8432
   41MOL    H7520155   2.149   0.124   4.304  0.1669  1.8074 -0.7135
   41MOL    H7620156   2.325   0.210   4.421  0.8655 -0.0184  3.0421
   41MOL    C7720157   2.834   0.292   4.672  0.1813  0.0700 -0.0805
   41MOL    C7820158   2.901   0.200   4.781 -0.0587  0.1453 -0.1449
   41MOL    C7920159   2.929   0.058   4.725 -0.0760  0.2604 -0.2415
   41MOL    C8020160   2.825   0.196   4.916 -0.5679  0.2487  0.0287
   41MOL    O8120161   2.798   0.090   4.962  0.3544  0.0463 -0.0837
   41MOL    O8220162   2.816   0.314   4.971  0.1197  0.2481  0.4532
   41MOL    C8320163   2.762   0.323   5.103 -0.7235  0.4286 -1.0252
   41MOL    C8420164   2.726   0.459   5.147  0.2968  0.3245 -0.5994
   41MOL    C8520165   2.788   0.508   5.264 -0.4720 -0.2474  0.3019
   41MOL    C8620166   2.745   0.632   5.317 -0.3761  0.5957  0.0557
   41MOL    C8720167   2.646   0.700   5.251 -0.2988  0.0464  0.5479
   41MOL    C8820168   2.594   0.664   5.127  0.2614  0.5144 -0.1111
   41MOL    C8920169   2.627   0.535   5.079 -0.1680  0.0367 -0.1827
   41MOL    H9020170   2.829   0.389   4.720  4.2805  0.2391  0.1967
   41MOL    H9120171   2.904   0.301   4.589 -0.3491  1.1541 -0.4159
   41MOL    H9220172   2.971   0.062   4.624  1.3375  0.3289  0.3512
   41MOL    H9320173   2.841   7.999   4.730 -0.3046  0.5840 -0.0191
   41MOL    H9420174   3.005   0.010   4.786 -0.2112  0.9149  0.4362
   41MOL    H9520175   2.671   0.262   5.105 -0.5371  0.1509 -0.9513
   41MOL    H9620176   2.838   0.275   5.165  0.0080  2.9490  0.0919
   41MOL    H9720177   2.864   0.452   5.316  0.2528 -0.5130 -1.0193
   41MOL    H9820178   2.779   0.661   5.415 -1.2719  1.3140  0.1609
   41MOL    H9920179   2.618   0.797   5.289  0.5933  0.0315  1.2760
   41MOL   H10020180   2.525   0.731   5.077 -0.2616 -0.0057 -0.0896
   41MOL   H10120181   2.593   0.514   4.978 -0.0098 -0.5485 -0.1151
   41MOL   C10220182   3.048   0.263   4.787  0.4474 -0.0792  0.0254
   41MOL   C10320183   3.154   0.243   4.910 -0.8956  0.0436  0.5928
   41MOL   C10420184   3.169   0.102   4.965 -0.5892 -0.3446  0.2433
   41MOL   C10520185   3.119   0.341   5.026  0.3396  0.3335 -0.2564
   41MOL   O10620186   3.110   0.294   5.142  0.0381  0.3980 -0.6183
   41MOL   O10720187   3.116   0.473   4.998  0.1183  0.4533 -0.2413
   41MOL   C10820188   3.119   0.568   5.098 -0.3635  0.1265 -0.4813
   41MOL   C10920189   3.119   0.702   5.042 -0.0860  0.1064  0.0602
   41MOL   C11020190   3.243   0.755   5.004  0.0078 -0.0370  0.0469
   41MOL   C11120191   3.243   0.874   4.935  0.1382  0.5909  0.3744
   41MOL   C11220192   3.125   0.939   4.911  0.1939 -0.2925 -0.3412
   41MOL   C11320193   3.001   0.896   4.955  0.3790  0.0885  0.0306
   41MOL   C11420194   3.001   0.774   5.022  0.1358 -0.2138 -0.6113
   41MOL   H11520195   3.023   0.369   4.777 -0.9376 -0.5783 -1.9925
   41MOL   H11620196   3.105   0.235   4.699 -1.4568  0.1343 -1.2958
   41MOL   H11720197   3.233   0.093   5.053  1.1717 -0.2402 -1.0091
   41MOL   H11820198   3.203   0.034   4.887  0.5815 -0.1814  0.6064
   41MOL   H11920199   3.070   0.072   5.000 -0.7953  1.2426  1.0886
   41MOL   H12020200   3.024   0.553   5.149 -0.3338 -0.6886 -0.6470
   41MOL   H12120201   3.202   0.548   5.165 -0.5257 -2.0281 -0.8811
   41MOL   H12220202   3.333   0.700   5.030 -1.0650 -1.3538  1.0059
   41MOL   H12320203   3.329   0.933   4.906  0.0106 -0.2963 -1.8638
   41MOL   H12420204   3.119   1.038   4.867  0.4794  0.8433  2.0929
   41MOL   H12520205   2.907   0.947   4.939  0.8541  0.5617 -1.3535
   41MOL   H12620206   2.908   0.738   5.061 -1.1411  1.4364 -2.0095
   41MOL   C12720207   3.299   0.282   4.843  0.5206 -0.3249  0.6413
   41MOL   C12820208   3.443   0.263   4.903  0.4177 -0.5881 -0.4360
   41MOL   C12920209   3.445   0.298   5.056  0.3890  0.4419 -1.1406
   41MOL   C13020210   3.539   0.349   4.822  0.1924  0.3814  0.1742
   41MOL   O13120211   3.587   0.448   4.872 -0.0541  0.3174 -0.6306
   41MOL   O13220212   3.551   0.307   4.697  0.4773 -0.0240  0.2932
   41MOL   C13320213   3.632   0.359   4.594 -0.3492 -0.5110  0.7485
   41MOL   C13420214   3.545   0.409   4.489  0.6613  0.1218  0.0543
   41MOL   C13520215   3.467   0.523   4.507 -0.3330  0.8249  0.0187
   41MOL   C13620216   3.389   0.574   4.404 -0.0694 -0.1016  0.6838
   41MOL   C13720217   3.400   0.515   4.276 -0.3063  0.4203  1.3466
   41MOL   C13820218   3.469   0.394   4.259 -0.4129  0.5013  0.0020
   41MOL   C13920219   3.549   0.345   4.362  0.6511  0.0574  0.4636
   41MOL   H14020220   3.302   0.382   4.800  0.8598 -0.7015 -0.2155
   41MOL   H14120221   3.304   0.220   4.753 -0.7298  0.1246  0.2437
   41MOL   H14220222   3.373   0.250   5.123  1.7748 -0.0966 -0.0199
   41MOL   H14320223   3.432   0.405   5.070 -0.2929  0.3015 -0.6195
   41MOL   H14420224   3.539   0.272   5.105 -0.1845 -0.3642 -0.4476
   41MOL   H14520225   3.698   0.438   4.630 -1.4724  0.4100  0.8441
   41MOL   H14620226   3.700   0.283   4.558  0.2518 -0.0054  0.8105
   41MOL   H14720227   3.456   0.564   4.606 -2.3432 -0.6168  0.4229
   41MOL   H14820228   3.330   0.663   4.419 -0.1334 -0.1051  0.4470
   41MOL   H14920229   3.343   0.554   4.192  1.2262 -1.6161 -0.7042
   41MOL   H15020230   3.460   0.353   4.159 -1.3817 -1.9432  1.0775
   41MOL   H15120231   3.596   0.249   4.348  0.5837 -0.0728  1.1019
   41MOL   C15220232   3.497   0.113   4.887  0.5533  0.3548  0.2678
   41MOL   C15320233   3.616   0.040   4.957 -0.0281 -0.0140 -0.2475
   41MOL   C15420234   3.743   0.121   4.942  0.7014 -0.3284  0.1984
   41MOL   C15520235   3.638   7.915   4.875 -0.5183 -0.1252  0.0853
   41MOL   O15620236   3.755   7.867   4.863 -0.1908 -0.7319 -0.4327
   41MOL   O15720237   3.528   7.865   4.811 -0.4069  0.0709  0.2470
   41MOL   C15820238   3.546   7.761   4.725  0.1305  0.5965 -0.6503
   41MOL   C15920239   3.418   7.730   4.640 -0.4328  0.0901 -0.0928
   41MOL   C16020240   3.414   7.628   4.542 -0.3693 -0.1529  0.5890
   41MOL   C16120241   3.298   7.610   4.464 -0.0393 -0.4256 -0.8955
   41MOL   C16220242   3.184   7.693   4.481 -0.5564  0.4900  0.0210
   41MOL   C16320243   3.185   7.793   4.583 -0.3340  0.0566 -0.2225
   41MOL   C16420244   3.301   7.813   4.661  0.7301  0.8758  0.2052
   41MOL   H16520245   3.489   0.081   4.783 -0.4230  1.9546 -0.1634
   41MOL   H16620246   3.409   0.055   4.917 -0.6683  1.2026 -1.6217
   41MOL   H16720247   3.742   0.211   5.003  0.7912 -0.4026  0.3096
   41MOL   H16820248   3.771   0.155   4.842  0.3985  1.4548  0.7091
   41MOL   H16920249   3.840   0.089   4.982  0.8931 -1.7103 -1.2958
   41MOL   H17020250   3.624   7.784   4.652  1.4600  0.5022  0.7243
   41MOL   H17120251   3.569   7.669   4.778 -0.1584 -0.4771 -2.3337
   41MOL   H17220252   3.500   7.568   4.520  0.1193  0.2457  1.3978
   41MOL   H17320253   3.305   7.536   4.386  0.2995 -2.0575  0.6453
   41MOL   H17420254   3.104   7.692   4.409  1.6535 -2.9200 -2.5634
   41MOL   H17520255   3.104   7.864   4.576  1.2198  1.8385 -0.6207
   41MOL   H17620256   3.304   7.895   4.731  2.3741  1.1933 -0.2036
   41MOL   C17720257   3.588   0.010   5.111  0.7842  0.0748 -0.4696
   41MOL   C17820258   3.601   7.888   5.198  0.2913  0.1988 -0.2485
   41MOL   C17920259   3.741   7.830   5.168 -0.3444  0.0822 -0.4673
   41MOL   C18020260   3.498   7.782   5.154  0.0546 -0.4861  0.0226
   41MOL   O18120261   3.404   7.811   5.082  0.1532  0.6148  0.5787
   41MOL   O18220262   3.511   7.664   5.219  0.1076  0.1961 -0.6818
   41MOL   C18320263   3.392   7.580   5.222 -0.1493 -0.4158 -0.0550
   41MOL   C18420264   3.383   7.497   5.350  0.3724  0.0993 -0.5807
   41MOL   C18520265   3.285   7.523   5.449 -0.1941 -0.0975 -0.2441
   41MOL   C18620266   3.283   7.448   5.569  0.8140  0.1320 -0.5137
   41MOL   C18720267   3.380   7.339   5.581 -0.0593 -0.2865  0.0646
   41MOL   C18820268   3.480   7.322   5.489  0.7962  1.0608 -0.4087
   41MOL   C18920269   3.481   7.398   5.373  0.6413  0.9414 -0.2966
   41MOL   H19020270   3.485   0.040   5.127  1.5657  1.3325  2.5051
   41MOL   H19120271   3.655   0.078   5.163  0.4815  0.2137 -0.2651
   41MOL   H19220272   3.818   7.904   5.147  0.1122  0.0113  0.9107
   41MOL   H19320273   3.735   7.764   5.081  1.3486  1.8956 -2.0070
   41MOL   H19420274   3.774   7.756   5.240 -2.6812 -2.6038 -2.0313
   41MOL   H19520275   3.299   7.637   5.221 -0.0774 -0.3061 -0.7179
   41MOL   H19620276   3.407   7.521   5.131 -2.0945 -0.0556 -0.6305
   41MOL   H19720277   3.211   7.601   5.435  0.9100  0.8753 -0.8085
   41MOL   H19820278   3.204   7.460   5.641  0.4565  1.2304 -1.0829
   41MOL   H19920279   3.364   7.279   5.670 -0.2074 -1.5458 -0.8047
   41MOL   H20020280   3.555   7.247   5.508  0.6291  0.4724 -1.9677
   41MOL   H20120281   3.561   7.378   5.302  0.6112  1.2718 -0.4275
   41MOL   C20220282   3.584   7.915   5.349 -0.2239 -0.0182 -0.4944
   41MOL   C20320283   3.456   7.980   5.410 -0.7899 -0.8462  0.0617
   41MOL   C20420284   3.324   7.920   5.357 -0.4631  0.5409 -0.6175
   41MOL   C20520285   3.443   0.130   5.391 -0.0521 -0.0942  0.6542
   41MOL   O20620286   3.539   0.195   5.356  0.3515  0.1153  0.4462
   41MOL   O20720287   3.321   0.178   5.430  0.2797 -0.2669  0.1774
   41MOL   C20820288   3.303   0.319   5.422  0.6409  0.5029 -0.2437
   41MOL   C20920289   3.175   0.365   5.482  0.7982 -0.1947 -0.4155
   41MOL   C21020290   3.166   0.488   5.543 -0.0027  0.0879  0.5113
   41MOL   C21120291   3.046   0.534   5.595 -0.0620 -0.1281  1.0439
   41MOL   C21220292   2.941   0.441   5.614 -0.1700 -0.2493 -0.6394
   41MOL   C21320293   2.948   0.311   5.564  0.2399 -0.4869  0.7363
   41MOL   C21420294   3.059   0.287   5.478 -0.0084  0.7992 -0.4711
   41MOL   H21520295   3.671   7.981   5.359  1.3310 -2.1501  0.4618
   41MOL   H21620296   3.597   7.821   5.402 -2.0904  1.4823  2.7970
   41MOL   H21720297   3.311   7.812   5.356  0.5418  0.4205 -1.4655
   41MOL   H21820298   3.314   7.965   5.258 -0.7776 -0.0611 -0.8626
   41MOL   H21920299   3.241   7.962   5.414  1.7474  2.6009  1.2312
   41MOL   H22020300   3.392   0.355   5.472  1.9749 -2.2350 -0.5447
   41MOL   H22120301   3.304   0.359   5.320 -0.6251  0.5877 -0.2312
   41MOL   H22220302   3.260   0.542   5.544  1.2859 -2.0927 -0.9382
   41MOL   H22320303   3.054   0.629   5.644 -0.4789 -1.2302  3.2897
   41MOL   H22420304   2.863   0.478   5.679  0.2878  0.1437 -0.3106
   41MOL   H22520305   2.862   0.246   5.561 -0.7109  0.6228  2.6489
   41MOL   H22620306   3.055   0.189   5.433 -0.6272 -0.6055  2.5046
   41MOL   C22720307   3.461   7.935   5.564  0.2547  1.0303  0.3316
   41MOL   C22820308   3.539   8.000   5.683  0.3267 -0.1078  0.4884
   41MOL   C22920309   3.494   0.135   5.706 -0.3312 -0.3122 -0.5276
   41MOL   C23020310   3.695   7.989   5.656 -0.8883  0.3584 -0.7247
   41MOL   O23120311   3.743   7.879   5.638 -0.5640 -0.4228 -0.6428
   41MOL   O23220312   3.767   0.095   5.636 -0.0382 -0.1944 -0.0953
   41MOL   C23320313   3.908   0.097   5.633  0.1080  0.0552  0.2621
   41MOL   C23420314   3.949   0.077   5.491  0.4084 -0.6599  0.4600
   41MOL   C23520315   4.016   7.969   5.454 -0.2803 -1.4422  1.3215
   41MOL   C23620316   4.052   7.951   5.323 -0.2684  0.0602  0.1911
   41MOL   C23720317   4.029   0.037   5.225 -0.3678  0.0479  0.4955
   41MOL   C23820318   3.966   0.153   5.260  0.4218 -0.1120 -0.1591
   41MOL   C23920319   3.910   0.167   5.385 -0.0842  0.9440 -0.1233
   41MOL   H24020320   3.470   7.827   5.571  0.3163  0.9956 -0.2172
   41MOL   H24120321   3.356   7.943   5.591  0.1412  2.1562 -0.3886
   41MOL   H24220322   3.516   0.207   5.627 -2.3638  1.4338  0.4547
   41MOL   H24320323   3.537   0.165   5.802  2.0651  0.8363 -1.9275
   41MOL   H24420324   3.386   0.139   5.716 -0.4498 -1.2784 -1.3230
   41MOL   H24520325   3.948   0.191   5.673  0.9363 -0.9778  1.9336
   41MOL   H24620326   3.956   0.011   5.679 -0.0510  0.9113  2.0834
   41MOL   H24720327   4.035   7.894   5.529 -1.4158 -0.0518  3.0088
   41MOL   H24820328   4.101   7.858   5.299 -0.8415 -1.2085  3.7107
   41MOL   H24920329   4.064   0.006   5.127 -1.4008  1.3809 -0.3231
   41MOL   H25020330   3.945   0.235   5.193 -0.6321  0.2364  0.5826
   41MOL   H25120331   3.854   0.256   5.411 -2.3819 -0.6138  0.3916
   41MOL   C25220332   3.502   7.891   5.795 -0.0515  0.4935 -0.0364
   41MOL   C25320333   3.492   7.920   5.949 -0.0337  0.1858 -0.7299
   41MOL   C25420334   3.358   7.997   5.969  0.2419 -0.2571  0.6434
   41MOL   C25520335   3.613   8.006   6.001 -0.1867 -0.0822  0.5497
   41MOL   O25620336   3.708   0.040   5.934 -0.5159 -0.0955  0.0124
   41MOL   O25720337   3.590   0.028   6.128  0.0787  0.2803  0.6522
   41MOL   C25820338   3.691   0.108   6.202  1.0293  0.4164  0.2962
   41MOL   C25920339   3.671   0.093   6.349  0.3282 -0.4097  0.2343
   41MOL   C26020340   3.743   8.005   6.419 -0.4691  0.1187  0.6468
   41MOL   C26120341   3.722   7.990   6.552 -0.3339 -0.1738  0.0201
   41MOL   C26220342   3.646   0.072   6.629 -0.3060  0.2911  0.3225
   41MOL   C26320343   3.583   0.179   6.560  0.1294  0.5989  0.3415
   41MOL   C26420344   3.597   0.190   6.419  0.1778  0.5524 -0.1987
   41MOL   H26520345   3.578   7.813   5.786 -0.9679 -0.8732  3.5528
   41MOL   H26620346   3.407   7.844   5.772 -0.3977  0.6301  1.0984
   41MOL   H26720347   3.275   7.950   5.917  1.7680 -0.0914 -1.9989
   41MOL   H26820348   3.366   0.090   5.926 -0.1936  0.0439  1.2407
   41MOL   H26920349   3.332   0.006   6.074 -1.7827  1.4495 -0.0915
   41MOL   H27020350   3.791   0.072   6.178  0.9885 -0.5805  1.6471
   41MOL   H27120351   3.691   0.214   6.176 -1.3126  0.9837  2.3984
   41MOL   H27220352   3.815   7.940   6.372  0.8162  1.6922  0.3549
   41MOL   H27320353   3.771   7.908   6.603 -2.5202 -2.0611 -0.8375
   41MOL   H27420354   3.638   0.057   6.735  1.7177 -2.2192  0.1692
   41MOL   H27520355   3.521   0.256   6.602 -0.9639  0.0461 -0.2539
   41MOL   H27620356   3.548   0.268   6.361 -0.0811  0.3685 -0.2284
   41MOL   C27720357   3.473   7.786   6.029 -0.3753  0.6033 -0.1715
   41MOL   C27820358   3.591   7.677   6.031 -0.0772 -0.0715  0.4397
   41MOL   C27920359   3.735   7.734   6.049  0.0607  0.8092 -0.5743
   41MOL   C28020360   3.577   7.586   5.902 -0.0800 -0.4630 -0.0225
   41MOL   O28120361   3.467   7.542   5.865 -0.4047  0.3284 -0.8149
   41MOL   O28220362   3.683   7.590   5.827 -0.1707  0.5130 -0.4929
   41MOL   C28320363   3.668   7.550   5.691 -0.4011  0.5066 -0.3288
   41MOL   C28420364   3.806   7.535   5.618  0.0862 -0.1769 -0.7981
   41MOL   C28520365   3.807   7.555   5.478 -0.6696 -0.2464  0.6518
   41MOL   C28620366   3.935   7.545   5.416  0.5392  0.0751 -0.3552
   41MOL   C28720367   4.049   7.495   5.484 -0.9638 -0.5145 -0.6412
   41MOL   C28820368   4.039   7.466   5.623 -0.4049  0.6547  0.3755
   41MOL   C28920369   3.916   7.493   5.687  0.4287 -0.1149  0.1589
   41MOL   H29020370   3.374   7.748   6.004  0.3467 -2.8100  1.9442
   41MOL   H29120371   3.462   7.817   6.132  0.6639  0.2626  0.0537
   41MOL   H29220372   3.753   7.793   6.139 -0.4795 -0.5070  0.4056
   41MOL   H29320373   3.759   7.789   5.958  3.7970 -1.4663 -1.1023
   41MOL   H29420374   3.797   7.644   6.048 -1.4455 -0.2482 -2.1458
   41MOL   H29520375   3.620   7.452   5.697 -0.8387  0.6631 -1.2019
   41MOL   H29620376   3.598   7.622   5.650  0.5190  1.4544 -0.2724
   41MOL   H29720377   3.724   7.597   5.424 -1.3871  0.5935  2.3490
   41MOL   H29820378   3.947   7.564   5.310 -1.4374  0.6065 -0.4859
   41MOL   H29920379   4.148   7.490   5.443 -1.3052 -1.2110 -1.3814
   41MOL   H30020380   4.126   7.434   5.679 -0.1311  0.9144  0.0963
   41MOL   H30120381   3.913   7.472   5.793 -0.6059 -0.0488  0.1497
   41MOL   C30220382   3.574   7.573   6.153 -0.8256  0.2197  0.5804
   41MOL   C30320383   3.626   7.586   6.304  0.4059  1.0654 -0.2062
   41MOL   C30420384   3.578   7.727   6.356  0.2085 -0.1706  0.8007
   41MOL   C30520385   3.782   7.587   6.317 -0.4947  0.2186 -0.1445
   41MOL   O30620386   3.845   7.668   6.384 -0.2052 -0.1940 -0.2216
   41MOL   O30720387   3.834   7.480   6.253  0.2973 -0.0726  0.9277
   41MOL   C30820388   3.972   7.444   6.278 -0.5112 -0.2123  0.0517
   41MOL   C30920389   4.071   7.541   6.213  0.5267 -0.5707  0.6284
   41MOL   C31020390   4.159   7.618   6.287 -0.1515 -0.4575  0.1566
   41MOL   C31120391   4.239   7.714   6.220  0.4777 -0.6112  0.2439
   41MOL   C31220392   4.234   7.723   6.081  0.0944 -0.0371 -0.0457
   41MOL   C31320393   4.143   7.645   6.005  0.3969 -0.3003  0.4178
   41MOL   C31420394   4.065   7.549   6.068 -0.1598 -0.2631 -0.3487
   41MOL   H31520395   3.603   7.476   6.112  1.1673  0.8140  0.4984
   41MOL   H31620396   3.466   7.561   6.153 -0.8904  0.7787  0.6429
   41MOL   H31720397   3.617   7.740   6.457  0.3152 -4.6357  1.4718
   41MOL   H31820398   3.469   7.730   6.359  0.1395 -1.5060  0.3690
   41MOL   H31920399   3.604   7.809   6.289  0.0462 -1.7861 -1.3239
   41MOL   H32020400   4.013   7.439   6.379 -0.9195  0.1448  0.2398
   41MOL   H32120401   3.983   7.341   6.245 -0.0304 -0.2995  0.4857
   41MOL   H32220402   4.167   7.598   6.393  0.7537 -0.6599  0.0490
   41MOL   H32320403   4.317   7.768   6.272 -0.0490  1.4904 -1.0954
   41MOL   H32420404   4.294   7.795   6.027 -0.2628  2.0351  2.2449
   41MOL   H32520405   4.142   7.664   5.899 -1.7011  0.9805  0.6189
   41MOL   H32620406   3.993   7.491   6.011  0.8681 -2.0381  0.1106
   41MOL   C32720407   3.552   7.464   6.377  0.1263  0.2280 -0.8322
   41MOL   C32820408   3.606   7.411   6.520 -0.0702  0.6808 -0.5509
   41MOL   C32920409   3.617   7.526   6.615  0.1411  0.2719  0.1392
   41MOL   C33020410   3.738   7.332   6.501  0.6255 -0.0425 -0.0541
   41MOL   O33120411   3.767   7.273   6.401  0.0265 -0.3192 -0.4737
   41MOL   O33220412   3.804   7.311   6.616  0.4565 -0.6259 -0.0756
   41MOL   C33320413   3.921   7.227   6.622  0.5641 -0.4047  0.2522
   41MOL   C33420414   4.037   7.318   6.643 -0.5967  0.1070  0.2460
   41MOL   C33520415   4.146   7.309   6.556 -0.4739 -0.2543  0.6495
   41MOL   C33620416   4.265   7.384   6.568 -0.2973 -0.4125 -0.7071
   41MOL   C33720417   4.276   7.465   6.685  0.2434 -0.7020 -0.3990
   41MOL   C33820418   4.169   7.471   6.781  0.5789 -0.0161  0.4869
   41MOL   C33920419   4.048   7.402   6.753  0.4532  0.0047 -0.7056
   41MOL   H34020420   3.537   7.379   6.312 -1.8251 -1.6208  1.9368
   41MOL   H34120421   3.448   7.493   6.390  0.8666  2.8111 -0.3657
   41MOL   H34220422   3.612   7.508   6.723 -0.5649  1.9580  0.4017
   41MOL   H34320423   3.528   7.589   6.606  0.8501  1.0485 -1.4977
   41MOL   H34420424   3.708   7.584   6.604  0.9212 -0.7349  1.1040
   41MOL   H34520425   3.904   7.161   6.707 -1.7028 -0.6889 -0.3832
   41MOL   H34620426   3.931   7.165   6.533  1.6192 -1.6084  1.1937
   41MOL   H34720427   4.139   7.251   6.465 -1.2465 -1.9723  1.7858
   41MOL   H34820428   4.342   7.389   6.493  1.0166 -3.2780  0.3462
   41MOL   H34920429   4.363   7.528   6.696  0.9774 -1.6122 -1.0226
   41MOL   H35020430   4.184   7.524   6.873 -0.3048 -1.8976  1.7424
   41MOL   H35120431   3.960   7.403   6.814 -1.1281  1.2768 -2.9327
   41MOL   C35220432   3.483   7.319   6.567 -0.0960 -0.3568 -0.8690
   41MOL   C35320433   3.496   7.194   6.670 -0.1504  0.1120  0.0783
   41MOL   C35420434   3.570   7.249   6.800  0.4222 -0.4470  0.3283
   41MOL   C35520435   3.587   7.087   6.607  0.2357 -0.1685  0.1727
   41MOL   O35620436   3.681   7.043   6.672  0.4140 -0.0665  0.2644
   41MOL   O35720437   3.554   7.043   6.487  0.2575  0.4651 -0.5817
   41MOL   C35820438   3.654   6.964   6.422  0.8647 -0.1185 -0.1857
   41MOL   C35920439   3.591   6.835   6.373 -0.3690  0.0325  0.3750
   41MOL   C36020440   3.668   6.718   6.362  0.4714  0.3709 -0.3290
   41MOL   C36120441   3.611   6.604   6.298 -0.1695 -0.9945  0.1477
   41MOL   C36220442   3.475   6.608   6.255  0.2438  0.3414 -0.0593
   41MOL   C36320443   3.399   6.727   6.268 -0.2838 -0.3159 -0.1910
   41MOL   C36420444   3.462   6.842   6.320 -0.5508 -0.2406 -0.3590
   41MOL   H36520445   3.430   7.272   6.484  0.6986 -1.3679 -0.8156
   41MOL   H36620446   3.414   7.387   6.616  0.8687  0.5511 -0.7635
   41MOL   H36720447   3.560   7.183   6.887 -1.5976  0.8210  1.1026
   41MOL   H36820448   3.516   7.341   6.818 -2.0952 -1.3846 -2.1076
   41MOL   H36920449   3.678   7.266   6.797  0.4530 -0.9024 -2.2689
   41MOL   H37020450   3.678   7.028   6.337  1.5020  0.2578  0.2665
   41MOL   H37120451   3.741   6.935   6.482 -0.2335  2.1203  2.6436
   41MOL   H37220452   3.772   6.715   6.390  0.5152 -1.2748 -0.5749
   41MOL   H37320453   3.670   6.515   6.287  2.6143  0.6802  1.2110
   41MOL   H37420454   3.427   6.528   6.201  1.2546 -0.9098  0.8640
   41MOL   H37520455   3.296   6.724   6.236 -0.2655 -0.1402 -0.2662
   41MOL   H37620456   3.410   6.937   6.322 -0.5933 -0.2802  0.5078
   41MOL   C37720457   3.353   7.136   6.714  0.2197  0.3749 -0.9114
   41MOL   C37820458   3.333   7.001   6.796  0.5393  0.0348  0.5499
   41MOL   C37920459   3.181   7.011   6.835 -0.2270  0.7241  0.2038
   41MOL   C38020460   3.420   6.995   6.923 -0.1989  0.1983  0.0030
   41MOL   O38120461   3.516   6.919   6.930  0.1101 -0.5343  0.3075
   41MOL   O38220462   3.371   7.070   7.025 -0.2617  0.2316  0.0422
   41MOL   C38320463   3.439   7.060   7.147 -0.1356  0.3809 -0.0520
   41MOL   C38420464   3.342   7.024   7.254  0.4613  0.0514 -0.6432
   41MOL   C38520465   3.228   6.942   7.240  0.0291  0.0974  0.0672
   41MOL   C38620466   3.155   6.897   7.347 -0.2868  0.7007 -0.2080
   41MOL   C38720467   3.199   6.926   7.478  0.5800  0.2193 -0.2916
   41MOL   C38820468   3.316   7.005   7.496  1.2630  0.1595 -0.0097
   41MOL   C38920469   3.377   7.063   7.385 -0.5507  0.1137  0.0539
   41MOL   H39020470   3.297   7.126   6.621  0.1164  0.4632 -0.8592
   41MOL   H39120471   3.305   7.223   6.759 -0.9632 -0.3996 -0.6354
   41MOL   H39220472   3.153   7.095   6.900  1.2062  2.0705 -0.8780
   41MOL   H39320473   3.149   6.921   6.888 -2.2705  0.5745 -1.2047
   41MOL   H39420474   3.118   7.023   6.747 -2.4335  0.8262  1.7387
   41MOL   H39520475   3.526   6.994   7.144  0.2047  0.8717 -1.8619
   41MOL   H39620476   3.473   7.160   7.175  0.9995 -0.0503  0.1501
   41MOL   H39720477   3.206   6.900   7.143  1.5758 -0.4832 -0.0460
   41MOL   H39820478   3.074   6.830   7.324  0.9727  0.0853 -2.9587
   41MOL   H39920479   3.141   6.890   7.562 -1.8046  0.2690 -1.9026
   41MOL   H40020480   3.356   7.022   7.595  2.5427  0.8853 -0.6457
   41MOL   H40120481   3.461   7.129   7.402 -1.5466  0.8644  2.4159
   41MOL   C40220482   3.350   6.869   6.708  0.2352 -0.2404 -0.0532
   41MOL   C40320483   3.279   6.724   6.726  0.2912  0.0762 -0.0146
   41MOL   C40420484   3.147   6.729   6.644 -0.0164  0.1879 -0.3820
   41MOL   C40520485   3.258   6.682   6.872 -0.2698 -0.1162  0.3806
   41MOL   O40620486   3.144   6.680   6.924 -0.2960  0.1856 -0.0125
   41MOL   O40720487   3.361   6.686   6.954  0.1178  0.4500 -0.0323
   41MOL   C40820488   3.346   6.629   7.083  0.1223  0.5927  0.0372
   41MOL   C40920489   3.477   6.626   7.162 -0.1019 -0.4008 -0.7474
   41MOL   C41020490   3.474   6.681   7.297  0.4923  0.8814  0.2581
   41MOL   C41120491   3.584   6.653   7.383  0.6451 -0.6201  0.2495
   41MOL   C41220492   3.695   6.570   7.341  0.5489 -0.2699  0.5500
   41MOL   C41320493   3.694   6.522   7.207  0.3551  0.2508 -0.0107
   41MOL   C41420494   3.584   6.542   7.125  0.8383  0.0160 -0.3533
   41MOL   H41520495   3.456   6.846   6.712 -0.1275 -1.8645  0.7552
   41MOL   H41620496   3.333   6.899   6.605 -3.3009  0.0192  0.5368
   41MOL   H41720497   3.094   6.636   6.663  1.1808 -0.4122  0.0872
   41MOL   H41820498   3.165   6.742   6.538 -0.3779 -0.5466 -0.5331
   41MOL   H41920499   3.076   6.806   6.674 -1.3325 -0.9286 -0.6188
   41MOL   H42020500   3.275   6.687   7.142 -0.6246 -0.2901  0.0340
   41MOL   H42120501   3.317   6.523   7.083  1.2243  0.2828  0.8807
   41MOL   H42220502   3.383   6.734   7.321  0.6292  1.9556 -1.4693
   41MOL   H42320503   3.593   6.693   7.483  1.8662  0.9943 -0.4869
   41MOL   H42420504   3.780   6.549   7.405  1.3414  0.4816 -0.2376
   41MOL   H42520505   3.777   6.462   7.172 -0.5619  0.7013 -3.1270
   41MOL   H42620506   3.592   6.497   7.027 -1.7341 -1.8594  0.2316
   41MOL   C42720507   3.369   6.610   6.665 -0.4400 -0.1841  0.1720
   41MOL   C42820508   3.348   6.458   6.655 -0.0495  0.8605 -0.7732
   41MOL   C42920509   3.470   6.386   6.596 -0.2922  0.1201  0.5451
   41MOL   C43020510   3.229   6.427   6.562 -0.7163 -0.3960 -0.3407
   41MOL   O43120511   3.123   6.377   6.593  0.6121  0.2004  0.3442
   41MOL   O43220512   3.256   6.466   6.427 -0.4284  0.9675  0.1873
   41MOL   C43320513   3.183   6.393   6.323  0.4538  0.4023  1.0604
   41MOL   C43420514   3.243   6.256   6.291  0.0161  1.2261  0.0774
   41MOL   C43520515   3.381   6.230   6.278 -0.3958  0.5421 -0.0728
   41MOL   C43620516   3.424   6.095   6.268 -0.1498 -0.1156 -0.1797
   41MOL   C43720517   3.327   5.995   6.245  0.0498 -0.9049 -0.0388
   41MOL   C43820518   3.188   6.021   6.253  0.1686  0.4697  0.0350
   41MOL   C43920519   3.151   6.153   6.283 -0.2480 -0.4127  0.1772
   41MOL   H44020520   3.461   6.626   6.722 -1.6408  3.3701  1.2590
   41MOL   H44120521   3.402   6.649   6.569 -0.1622  0.2607  0.4486
   41MOL   H44220522   3.565   6.397   6.649  0.3653 -1.0635 -0.3679
   41MOL   H44320523   3.477   6.415   6.492 -2.3061  3.1351  1.1788
   41MOL   H44420524   3.449   6.280   6.584  0.0552  0.0860  0.2443
   41MOL   H44520525   3.074   6.387   6.328  0.4790 -2.3227 -0.7629
   41MOL   H44620526   3.168   6.451   6.232 -1.6675 -1.3486  0.2561
   41MOL   H44720527   3.455   6.306   6.257 -0.2393  0.7210  1.1188
   41MOL   H44820528   3.531   6.076   6.275 -0.0638  0.5489  0.3964
   41MOL   H44920529   3.356   5.893   6.229 -1.2283 -0.9980 -1.8752
   41MOL   H45020530   3.122   5.939   6.228 -2.5851  3.1012 -1.7111
   41MOL   H45120531   3.045   6.168   6.280 -0.2361 -0.5669 -1.6725
   41MOL   C45220532   3.311   6.390   6.800 -0.6123 -0.1024 -0.4482
   41MOL   C45320533   3.317   6.235   6.839 -0.3424  0.0988  0.4363
   41MOL   C45420534   3.289   6.241   6.993 -0.3871  0.0981  0.5226
   41MOL   C45520535   3.449   6.163   6.812  0.0790 -0.9930 -0.5380
   41MOL   O45620536   3.461   6.065   6.734  0.5470 -0.1447 -0.1713
   41MOL   O45720537   3.547   6.217   6.877  0.6086  0.3470  0.2690
   41MOL   C45820538   3.680   6.179   6.866 -0.7156  0.3217 -0.6669
   41MOL   C45920539   3.708   6.081   6.982  0.2111 -0.0077  0.3533
   41MOL   C46020540   3.723   6.125   7.116  0.4958 -0.2006  0.3407
   41MOL   C46120541   3.725   6.031   7.217  0.2950 -0.1852 -0.6272
   41MOL   C46220542   3.725   5.893   7.188  0.0938  0.3962  0.0775
   41MOL   C46320543   3.712   5.850   7.054  0.2535  0.4345 -0.2028
   41MOL   C46420544   3.706   5.946   6.955 -0.9137  0.1135 -0.2873
   41MOL   H46520545   3.217   6.434   6.834  0.2677  0.9912  0.6062
   41MOL   H46620546   3.387   6.436   6.864 -1.2043  3.1490 -2.0007
   41MOL   H46720547   3.200   6.298   7.018 -0.3787  0.8181 -1.0073
   41MOL   H46820548   3.378   6.275   7.046 -0.0671 -0.5549  0.4095
   41MOL   H46920549   3.284   6.143   7.039  1.9864  0.6080  1.9795
   41MOL   H47020550   3.694   6.130   6.769  1.3051 -0.5864  0.0549
   41MOL   H47120551   3.749   6.264   6.868  0.6882 -0.7944 -0.5681
   41MOL   H47220552   3.723   6.231   7.138  0.1266 -0.4641  1.6940
   41MOL   H47320553   3.724   6.056   7.322 -0.4050 -2.3194 -0.1055
   41MOL   H47420554   3.715   5.831   7.276 -3.8496 -0.1123 -0.6368
   41MOL   H47520555   3.701   5.745   7.032  0.5231  0.2772  0.3870
   41MOL   H47620556   3.700   5.908   6.854 -2.0403 -1.1721  0.2471
   41MOL   C47720557   3.201   6.160   6.777  0.2429  0.2831  0.8323
   41MOL   C47820558   3.170   6.020   6.830 -0.5818  0.4181  0.1707
   41MOL   C47920559   3.127   5.927   6.720 -0.4814 -0.0080  0.0452
   41MOL   C48020560   3.072   6.011   6.945 -0.7508 -0.6423 -0.3617
   41MOL   O48120561   3.090   5.936   7.042 -0.7908  0.3141 -0.2512
   41MOL   O48220562   2.974   6.089   6.922 -0.0491  0.0542 -0.2173
   41MOL   C48320563   2.880   6.127   7.025 -0.9355 -1.3152 -0.0898
   41MOL   C48420564   2.932   6.249   7.098 -0.4030 -0.0537 -0.4216
   41MOL   C48520565   2.919   6.383   7.054  0.5736 -0.0281  0.1799
   41MOL   C48620566   2.974   6.490   7.131  0.0520  0.5415  0.7842
   41MOL   C48720567   3.042   6.465   7.252  0.0130  0.4388  0.1141
   41MOL   C48820568   3.049   6.334   7.302 -0.3212  0.4705  0.1809
   41MOL   C48920569   3.000   6.228   7.221 -0.0445  0.7438 -0.1668
   41MOL   H49020570   3.217   6.166   6.669  2.8388 -0.2073  1.1549
   41MOL   H49120571   3.120   6.229   6.801 -0.1095  0.0922  0.2093
   41MOL   H49220572   3.203   5.906   6.645 -0.5163 -2.0329  0.5217
   41MOL   H49320573   3.036   5.965   6.673  1.1742  0.9634 -2.4186
   41MOL   H49420574   3.098   5.826   6.751  2.0896 -0.4100  1.2903
   41MOL   H49520575   2.785   6.142   6.975 -1.1076 -0.3964  0.4991
   41MOL   H49620576   2.878   6.044   7.096 -3.0418  0.5006  2.0904
   41MOL   H49720577   2.870   6.404   6.960 -0.2842  0.3932  0.7212
   41MOL   H49820578   2.959   6.593   7.105 -1.4178  0.6162  1.8793
   41MOL   H49920579   3.096   6.542   7.305  0.5590 -0.7745  1.3411
   41MOL   H50020580   3.094   6.320   7.399 -2.5158  1.6287  1.3990
   41MOL   H50120581   3.011   6.125   7.251 -2.7087  0.2070 -0.9774
   41MOL   H50220582   3.265   5.980   6.867  0.5902  1.8619 -1.1952
   42MOL     C120583   6.476   1.021   4.723  0.0131 -0.1683  0.1639
   42MOL     C220584   6.626   1.040   4.764  0.3401  0.1987 -0.1665
   42MOL     C320585   6.709   1.033   4.627  0.0317 -0.1814 -0.2699
   42MOL     C420586   6.667   0.921   4.858 -0.5789  0.1533  0.4607
   42MOL     O520587   6.589   0.831   4.884  0.7896 -0.3429 -0.5865
   42MOL     O620588   6.791   0.940   4.913  0.2378  0.7665 -0.8833
   42MOL     C720589   6.835   0.847   5.014 -0.5183 -0.0524 -0.5802
   42MOL     C820590   6.833   0.900   5.159  0.1484  0.3217  0.0819
   42MOL     C920591   6.842   1.039   5.183 -0.6449  0.3848  0.1137
   42MOL    C1020592   6.842   1.081   5.319 -0.7706 -0.6709  0.7169
   42MOL    C1120593   6.824   0.994   5.425  0.4634 -0.0295 -0.5828
   42MOL    C1220594   6.811   0.859   5.393 -0.2238  0.2982  0.0311
   42MOL    C1320595   6.811   0.811   5.263 -0.0857  0.1104  1.0522
   42MOL    H1420596   6.440   1.081   4.640 -1.2119 -0.6348  0.3420
   42MOL    H1520597   6.484   0.925   4.673 -0.6231  0.9263 -2.0808
   42MOL    H1620598   6.719   0.929   4.595  0.4864  0.2058 -1.4159
   42MOL    H1720599   6.812   1.052   4.660  0.6494 -0.5880 -1.8981
   42MOL    H1820600   6.669   1.091   4.544 -0.3725 -2.2587 -1.5599
   42MOL    H1920601   6.791   0.747   5.002  0.3102 -0.6350  1.0627
   42MOL    H2020602   6.942   0.833   5.002 -0.3933  3.0207 -3.7207
   42MOL    H2120603   6.869   1.106   5.103  0.4654 -2.7316 -2.2348
   42MOL    H2220604   6.878   1.182   5.332 -2.1630 -0.0472 -0.0860
   42MOL    H2320605   6.816   1.025   5.528 -0.9589 -0.9999 -0.3870
   42MOL    H2420606   6.817   0.783   5.469 -0.3870  0.7771  0.5191
   42MOL    H2520607   6.804   0.705   5.241  1.5477 -0.1584  1.7681
   42MOL    H2620608   6.400   1.014   4.800 -1.2470  0.4866 -1.0006
   42MOL    C2720609   6.652   1.181   4.824 -0.4001 -0.0264  0.0092
   42MOL    C2820610   6.549   1.252   4.911 -0.7105 -0.3626 -0.0757
   42MOL    C2920611   6.501   1.164   5.030 -0.6844 -0.4567  0.0914
   42MOL    C3020612   6.418   1.298   4.830 -0.3264  0.0082  0.4404
   42MOL    O3120613   6.426   1.314   4.710  0.0330 -0.0854  0.3581
   42MOL    O3220614   6.318   1.351   4.909 -0.0383  0.0407  0.1504
   42MOL    C3320615   6.224   1.441   4.859  0.3588  0.8434 -0.3580
   42MOL    C3420616   6.106   1.370   4.797 -0.2463 -0.0160  0.3680
   42MOL    C3520617   6.021   1.293   4.877  0.0055  0.1944 -0.5534
   42MOL    C3620618   5.904   1.231   4.824 -0.2906 -0.5678 -0.4317
   42MOL    C3720619   5.883   1.244   4.687  0.2668 -0.0336 -0.3530
   42MOL    C3820620   5.972   1.310   4.603 -0.2887 -0.4038  0.2316
   42MOL    C3920621   6.075   1.383   4.665  0.1947  0.1991 -0.5225
   42MOL    H4020622   6.669   1.251   4.742  0.7739 -1.0105 -0.5985
   42MOL    H4120623   6.748   1.174   4.873  0.4567  3.1145 -1.1236
   42MOL    H4220624   6.582   1.152   5.102 -0.1640  0.1823 -0.3793
   42MOL    H4320625   6.466   1.064   5.003 -1.4522 -0.8216  2.3390
   42MOL    H4420626   6.414   1.208   5.079 -0.2058  1.5071 -0.7761
   42MOL    H4520627   6.189   1.508   4.938 -0.8183  0.8808 -0.9120
   42MOL    H4620628   6.268   1.508   4.785  0.2406  0.2035 -1.0084
   42MOL    H4720629   6.043   1.277   4.981 -0.7537  2.8530  0.0405
   42MOL    H4820630   5.837   1.182   4.893  0.5540 -1.2561 -0.0795
   42MOL    H4920631   5.794   1.196   4.649 -0.3736 -1.2076  2.4763
   42MOL    H5020632   5.950   1.323   4.498 -0.0426  0.1403  0.2431
   42MOL    H5120633   6.140   1.435   4.597 -0.3910 -1.0651 -2.0700
   42MOL    C5220634   6.618   1.373   4.985  0.8360  0.5075  0.4042
   42MOL    C5320635   6.677   1.501   4.914 -0.9035  0.6937  0.2398
   42MOL    C5420636   6.583   1.567   4.811 -0.0541 -1.3684 -0.2703
   42MOL    C5520637   6.807   1.472   4.835 -0.0921  0.4677  0.4001
   42MOL    O5620638   6.865   1.367   4.851  0.0156 -0.4000 -0.0305
   42MOL    O5720639   6.854   1.579   4.767 -0.0554 -0.2713 -0.2146
   42MOL    C5820640   6.976   1.567   4.690 -0.0515  0.4441 -0.2364
   42MOL    C5920641   7.048   1.701   4.673  0.5031  0.0362  0.8094
   42MOL    C6020642   7.155   1.711   4.587  0.1626  0.0895  0.6642
   42MOL    C6120643   7.208   1.836   4.556 -0.3838 -0.1063 -0.8161
   42MOL    C6220644   7.156   1.954   4.610  0.2323  0.2281  0.2847
   42MOL    C6320645   7.061   1.945   4.711  0.1994  0.3165  0.0862
   42MOL    C6420646   7.003   1.816   4.742 -0.8109  0.0502 -0.0477
   42MOL    H6520647   6.707   1.343   5.039 -0.0224  1.1926  2.2119
   42MOL    H6620648   6.546   1.418   5.053 -0.8391  0.6089 -1.3683
   42MOL    H6720649   6.480   1.571   4.848  0.4866 -0.1965  1.1419
   42MOL    H6820650   6.568   1.502   4.725  0.6607  1.1410 -2.3631
   42MOL    H6920651   6.605   1.666   4.773 -0.3881 -0.8563  0.8500
   42MOL    H7020652   7.032   1.486   4.738 -1.9838 -1.4814 -1.1431
   42MOL    H7120653   6.952   1.522   4.593  0.8104  0.5741 -0.5187
   42MOL    H7220654   7.191   1.622   4.538 -0.0062  0.0752  0.5629
   42MOL    H7320655   7.280   1.836   4.475  1.2116 -1.6057  0.5262
   42MOL    H7420656   7.200   2.050   4.586  0.0798  0.0314 -0.7920
   42MOL    H7520657   7.027   2.036   4.759  0.2779  0.0448  0.6698
   42MOL    H7620658   6.921   1.807   4.812 -1.7673 -1.3882 -1.3304
   42MOL    C7720659   6.703   1.616   5.022 -0.0641  0.2573  0.5547
   42MOL    C7820660   6.799   1.609   5.146  0.3961 -0.4973 -0.2226
   42MOL    C7920661   6.935   1.544   5.113  0.3928 -0.8980  0.3075
   42MOL    C8020662   6.730   1.521   5.258 -0.6484 -0.0977  0.5017
   42MOL    O8120663   6.794   1.443   5.327  0.4026  0.2506  0.0577
   42MOL    O8220664   6.600   1.535   5.269  0.6693 -0.0970 -0.3280
   42MOL    C8320665   6.529   1.470   5.372  0.5767  0.0844  0.1534
   42MOL    C8420666   6.383   1.502   5.367  0.0039  0.2025  0.5892
   42MOL    C8520667   6.308   1.467   5.253  0.0071  0.0628  0.2213
   42MOL    C8620668   6.170   1.499   5.246  0.0755  0.5311 -0.6239
   42MOL    C8720669   6.104   1.560   5.355 -0.2313  0.6175  0.2696
   42MOL    C8820670   6.180   1.587   5.470 -0.0597 -0.6727 -0.2519
   42MOL    C8920671   6.318   1.567   5.474  0.1952  0.3457 -0.2828
   42MOL    H9020672   6.605   1.659   5.044 -0.1783 -0.3784  1.3399
   42MOL    H9120673   6.751   1.697   4.967 -0.1599 -0.2656 -0.2929
   42MOL    H9220674   6.988   1.601   5.037  0.7835 -0.0571  1.2049
   42MOL    H9320675   6.932   1.436   5.096 -0.3298 -0.4376 -2.9846
   42MOL    H9420676   6.998   1.546   5.202  0.3136  2.8140  0.3440
   42MOL    H9520677   6.553   1.364   5.376 -1.5639 -0.4239  0.1004
   42MOL    H9620678   6.562   1.504   5.470  0.7059 -1.1333  0.5369
   42MOL    H9720679   6.352   1.408   5.174  0.3325  0.3450  0.1886
   42MOL    H9820680   6.105   1.469   5.164  1.7529 -0.6752 -1.5421
   42MOL    H9920681   5.996   1.570   5.351 -0.1574  1.2145 -0.2468
   42MOL   H10020682   6.132   1.635   5.554  0.1492 -1.0667  0.0928
   42MOL   H10120683   6.370   1.599   5.563  1.3729 -0.0742 -0.8231
   42MOL   C10220684   6.838   1.753   5.197 -0.3444 -0.3019 -0.6105
   42MOL   C10320685   6.753   1.846   5.298 -0.5527 -0.2360  0.1532
   42MOL   C10420686   6.752   1.779   5.440  0.1067 -0.3553  0.4998
   42MOL   C10520687   6.602   1.866   5.260  0.0200  0.7769 -0.3663
   42MOL   O10620688   6.521   1.861   5.346  0.6687  0.0337 -0.1944
   42MOL   O10720689   6.570   1.874   5.137 -0.0589 -0.2554 -0.2109
   42MOL   C10820690   6.437   1.854   5.097 -0.3478 -0.4239 -0.4685
   42MOL   C10920691   6.415   1.862   4.947  0.2735 -0.0852 -0.0518
   42MOL   C11020692   6.510   1.926   4.858  0.1281 -0.2028 -0.1985
   42MOL   C11120693   6.470   1.943   4.720  0.0912  0.5012 -0.3775
   42MOL   C11220694   6.350   1.892   4.671  0.0971 -0.4522  0.0162
   42MOL   C11320695   6.267   1.815   4.755  0.4013  0.0958  0.3774
   42MOL   C11420696   6.298   1.802   4.892 -0.1854  0.3461 -0.8006
   42MOL   H11520697   6.852   1.811   5.106 -0.2390 -0.3420 -0.6199
   42MOL   H11620698   6.939   1.751   5.237 -0.6335  1.2246  0.1983
   42MOL   H11720699   6.684   1.695   5.455  0.0819 -0.4227  0.0051
   42MOL   H11820700   6.717   1.851   5.515  0.4711  0.8925 -0.5159
   42MOL   H11920701   6.855   1.749   5.460 -0.2019 -0.4235  2.0837
   42MOL   H12020702   6.419   1.752   5.132  0.3307 -1.2467 -2.3840
   42MOL   H12120703   6.369   1.921   5.149 -0.4923 -0.3034 -0.8105
   42MOL   H12220704   6.601   1.963   4.903 -0.5189 -1.2542  2.0424
   42MOL   H12320705   6.533   1.999   4.653  0.3919  1.1524  0.4445
   42MOL   H12420706   6.324   1.905   4.567  0.6664  0.0412 -0.0654
   42MOL   H12520707   6.173   1.775   4.718  1.1091 -1.4949  0.2791
   42MOL   H12620708   6.232   1.749   4.960 -0.6970 -0.2843 -1.7772
   42MOL   C12720709   6.822   1.987   5.319 -0.8905  0.2735 -0.3746
   42MOL   C12820710   6.850   2.101   5.220 -0.2483 -0.3855  0.0787
   42MOL   C12920711   6.725   2.154   5.147 -0.0143 -0.3406  0.2917
   42MOL   C13020712   6.959   2.057   5.115  0.2851  0.5602 -0.3227
   42MOL   O13120713   6.934   2.056   4.995  0.3767 -0.0940  0.8460
   42MOL   O13220714   7.076   2.018   5.174 -0.6236  0.1971 -0.4770
   42MOL   C13320715   7.183   1.989   5.092 -0.6055 -0.0479  0.3678
   42MOL   C13420716   7.311   1.957   5.166  0.0568 -0.8690  0.2772
   42MOL   C13520717   7.405   1.875   5.101  0.2240 -0.9085 -0.4165
   42MOL   C13620718   7.522   1.843   5.159 -0.1444 -0.1960 -0.3491
   42MOL   C13720719   7.556   1.896   5.288  0.1483 -0.6284 -0.2427
   42MOL   C13820720   7.463   1.976   5.355 -0.4337 -0.1587 -0.4692
   42MOL   C13920721   7.341   2.011   5.293 -0.3436  0.5733 -0.1990
   42MOL   H14020722   6.918   1.960   5.362 -0.9703  0.6531  0.0541
   42MOL   H14120723   6.780   2.033   5.409 -1.1351  0.9165 -0.8205
   42MOL   H14220724   6.677   2.075   5.089 -1.4593  1.1908 -0.6551
   42MOL   H14320725   6.747   2.225   5.067  0.0519 -0.0928  0.5288
   42MOL   H14420726   6.649   2.189   5.216  1.6935  2.1099  0.9987
   42MOL   H14520727   7.162   1.905   5.026  0.7768  2.0799 -2.8885
   42MOL   H14620728   7.194   2.072   5.022 -1.2113 -0.1134  0.1892
   42MOL   H14720729   7.385   1.824   5.008 -0.1671 -2.4658  0.5210
   42MOL   H14820730   7.592   1.781   5.106  2.7465  2.0809  0.6676
   42MOL   H14920731   7.649   1.867   5.334 -0.9912 -1.6362  1.5188
   42MOL   H15020732   7.495   2.009   5.453  1.7028 -0.3464 -1.0741
   42MOL   H15120733   7.264   2.068   5.343  0.2626  0.4410  0.8925
   42MOL   C15220734   6.922   2.220   5.296  0.0152  0.0189 -0.2007
   42MOL   C15320735   6.924   2.380   5.253  0.0070  1.1115 -0.1598
   42MOL   C15420736   6.786   2.441   5.271 -0.1083  0.0556 -0.0853
   42MOL   C15520737   6.977   2.384   5.104 -0.4199 -0.0787 -0.0566
   42MOL   O15620738   6.903   2.428   5.021  0.4042 -0.4207  0.2481
   42MOL   O15720739   7.100   2.335   5.085 -0.6087 -0.2027  0.6310
   42MOL   C15820740   7.156   2.351   4.957 -0.1154  0.1982  0.2548
   42MOL   C15920741   7.296   2.290   4.943 -0.0940 -0.0917  0.1979
   42MOL   C16020742   7.384   2.288   5.058  0.5497 -0.4215 -0.0757
   42MOL   C16120743   7.508   2.222   5.051  0.8821  0.3342  0.1304
   42MOL   C16220744   7.558   2.178   4.930 -0.1978 -0.3219  0.2356
   42MOL   C16320745   7.474   2.189   4.815 -0.3961  0.6779 -1.0524
   42MOL   C16420746   7.348   2.246   4.820 -0.4467  0.0582  0.0369
   42MOL   H16520747   7.027   2.201   5.318  0.0539  0.5131  0.0525
   42MOL   H16620748   6.868   2.228   5.391  0.4761  0.6406  0.0160
   42MOL   H16720749   6.698   2.381   5.248 -0.0959 -0.3029  0.8004
   42MOL   H16820750   6.764   2.534   5.218 -0.4444  0.8904  1.4809
   42MOL   H16920751   6.760   2.471   5.373 -2.5062 -1.4672 -0.2037
   42MOL   H17020752   7.089   2.306   4.884  1.2221  0.4305 -1.1334
   42MOL   H17120753   7.166   2.456   4.929  1.2834 -0.1353 -0.5149
   42MOL   H17220754   7.354   2.330   5.153 -0.8033 -2.0904  0.2568
   42MOL   H17320755   7.575   2.213   5.136 -1.2926  1.1294  1.9978
   42MOL   H17420756   7.658   2.139   4.919 -0.6644 -1.5436  0.2591
   42MOL   H17520757   7.511   2.171   4.715  1.4159  2.6717 -0.7555
   42MOL   H17620758   7.276   2.255   4.740 -0.6332  1.8897  0.3873
   42MOL   C17720759   7.020   2.452   5.348  0.2605  0.0910 -0.1761
   42MOL   C17820760   7.042   2.608   5.383  0.3457  0.3544 -0.0428
   42MOL   C17920761   6.958   2.666   5.498  0.2155  0.0433 -0.3045
   42MOL   C18020762   7.023   2.688   5.252 -0.3147  0.8481  1.4611
   42MOL   O18120763   7.113   2.686   5.165 -0.0587  0.4320  0.4311
   42MOL   O18220764   6.898   2.731   5.243  0.0886  0.3240 -0.7157
   42MOL   C18320765   6.857   2.798   5.125 -0.1213  0.6679  0.6621
   42MOL   C18420766   6.706   2.779   5.108 -0.1409  0.1538  0.0685
   42MOL   C18520767   6.659   2.765   4.976 -0.0876 -0.1021  0.3176
   42MOL   C18620768   6.522   2.752   4.947 -0.1929 -0.2587 -0.6384
   42MOL   C18720769   6.430   2.757   5.057  0.5797 -0.0577 -0.5216
   42MOL   C18820770   6.476   2.768   5.191 -0.5755 -0.9238  0.5863
   42MOL   C18920771   6.611   2.785   5.216 -0.2853  0.7016  0.3873
   42MOL   H19020772   7.120   2.418   5.320 -0.3548  0.3361 -2.7839
   42MOL   H19120773   6.989   2.412   5.445  0.2328  0.7481  0.0896
   42MOL   H19220774   6.981   2.627   5.597  0.9744  0.0270 -0.4861
   42MOL   H19320775   6.861   2.636   5.458 -0.7186 -0.8647  2.5802
   42MOL   H19420776   6.961   2.774   5.516  0.4719 -0.1167  0.6346
   42MOL   H19520777   6.875   2.905   5.134 -0.0412  0.7249 -0.1334
   42MOL   H19620778   6.913   2.754   5.043 -1.5108  1.6868 -0.8659
   42MOL   H19720779   6.726   2.772   4.891  0.1578 -1.6583  0.3687
   42MOL   H19820780   6.499   2.712   4.850 -0.8810 -0.7205 -0.2828
   42MOL   H19920781   6.326   2.732   5.041  0.5133  0.1002 -0.3347
   42MOL   H20020782   6.397   2.772   5.265 -1.2232 -0.4168 -0.1276
   42MOL   H20120783   6.645   2.811   5.315 -0.1232  1.3494  0.1634
   42MOL   C20220784   7.196   2.633   5.412  0.1848 -0.1448 -0.7467
   42MOL   C20320785   7.265   2.595   5.552 -0.1002 -0.0937 -0.2692
   42MOL   C20420786   7.224   2.458   5.604 -0.2687  0.3301 -0.5297
   42MOL   C20520787   7.233   2.710   5.654  0.4918  0.7338  0.7819
   42MOL   O20620788   7.193   2.686   5.766 -0.0783  0.0952 -0.0567
   42MOL   O20720789   7.257   2.826   5.608 -0.0389  0.5153  0.0815
   42MOL   C20820790   7.254   2.937   5.692 -1.0883 -1.0339  0.3701
   42MOL   C20920791   7.282   3.072   5.622 -0.3559  0.5546 -0.6537
   42MOL   C21020792   7.335   3.071   5.493  0.5479 -0.4545  0.4292
   42MOL   C21120793   7.330   3.190   5.416 -0.3278  0.4131 -0.4532
   42MOL   C21220794   7.275   3.309   5.469  0.8251  0.1417 -0.4714
   42MOL   C21320795   7.235   3.310   5.606 -0.0373  0.4579 -0.8499
   42MOL   C21420796   7.238   3.196   5.685  0.4286  0.1474  0.3109
   42MOL   H21520797   7.226   2.734   5.386 -0.9111  0.7796  1.4714
   42MOL   H21620798   7.251   2.575   5.338 -1.6552 -2.2017 -0.5595
   42MOL   H21720799   7.119   2.461   5.631  0.2230 -2.3911  1.9404
   42MOL   H21820800   7.277   2.442   5.698  0.8440  0.9729 -1.0379
   42MOL   H21920801   7.246   2.362   5.556  1.1422 -0.1438  0.9936
   42MOL   H22020802   7.155   2.942   5.737 -1.4825  2.3698 -0.7687
   42MOL   H22120803   7.321   2.933   5.778 -1.8971  0.9030  1.1203
   42MOL   H22220804   7.376   2.981   5.450  1.4576  0.4688 -0.6455
   42MOL   H22320805   7.371   3.198   5.317  0.7810 -0.6389 -0.0922
   42MOL   H22420806   7.265   3.405   5.421  0.0396  0.4689  0.3237
   42MOL   H22520807   7.195   3.401   5.650  0.6140  0.2956  0.0874
   42MOL   H22620808   7.199   3.189   5.785  0.8514 -2.8068  0.3160
   42MOL   C22720809   7.429   2.605   5.550  0.1882 -0.0394  0.3698
   42MOL   C22820810   7.525   2.485   5.498 -0.5201  0.7980  0.0921
   42MOL   C22920811   7.474   2.443   5.358 -1.1045 -0.2563 -0.5138
   42MOL   C23020812   7.531   2.361   5.595 -0.4172 -0.4714 -0.5598
   42MOL   O23120813   7.496   2.252   5.555  0.2047 -0.1248  0.1943
   42MOL   O23220814   7.579   2.390   5.708  0.1516  0.4480  0.5487
   42MOL   C23320815   7.608   2.288   5.802 -0.1679 -0.9297  0.4892
   42MOL   C23420816   7.664   2.348   5.934 -0.0835 -0.0766  0.0531
   42MOL   C23520817   7.789   2.410   5.936  0.0098  0.7520  0.2439
   42MOL   C23620818   7.847   2.439   6.060 -0.5739 -0.7978  0.9353
   42MOL   C23720819   7.784   2.427   6.180  0.0603 -0.0620 -0.1069
   42MOL   C23820820   7.646   2.380   6.176  0.4409 -0.3321  0.3514
   42MOL   C23920821   7.593   2.337   6.052  0.2170 -0.0218 -0.2567
   42MOL   H24020822   7.464   2.634   5.649  0.2618  2.6176 -0.4058
   42MOL   H24120823   7.438   2.697   5.493 -0.4251  0.4010  0.9658
   42MOL   H24220824   7.543   2.363   5.329 -1.6812 -1.0593  0.2939
   42MOL   H24320825   7.463   2.524   5.286  0.5334 -0.5433 -1.1218
   42MOL   H24420826   7.380   2.388   5.364 -0.2879 -1.4942  1.6612
   42MOL   H24520827   7.514   2.234   5.814 -0.2849 -0.8406  0.0177
   42MOL   H24620828   7.684   2.218   5.766  0.6545 -0.3173  1.0216
   42MOL   H24720829   7.845   2.416   5.844 -2.8922 -0.3137 -1.6606
   42MOL   H24820830   7.947   2.482   6.057 -1.2062  0.6382 -0.4565
   42MOL   H24920831   7.839   2.450   6.271 -1.0493  1.7655  0.1307
   42MOL   H25020832   7.597   2.385   6.272  0.4869  1.0775  0.3024
   42MOL   H25120833   7.496   2.293   6.067 -0.5844  2.5570  2.7572
   42MOL   C25220834   7.669   2.550   5.488 -0.3772  0.4735  0.0468
   42MOL   C25320835   7.782   2.512   5.389 -0.3021  0.2590 -0.0317
   42MOL   C25420836   7.736   2.537   5.235  0.9234 -0.5562 -0.0100
   42MOL   C25520837   7.822   2.367   5.417  0.5904 -0.2424  0.1348
   42MOL   O25620838   7.842   2.321   5.537  0.0886  0.4310  0.2023
   42MOL   O25720839   7.850   2.297   5.305 -0.1013 -0.1639 -0.2533
   42MOL   C25820840   7.892   2.167   5.312 -0.4573 -1.0376 -0.3453
   42MOL   C25920841   7.893   2.095   5.180  0.1740 -0.3650  0.1779
   42MOL   C26020842   7.903   2.161   5.059  0.2257  0.2644 -0.1847
   42MOL   C26120843   7.913   2.087   4.942 -0.2659  0.5433 -0.2788
   42MOL   C26220844   7.917   1.942   4.947  0.2496  0.0630 -0.4519
   42MOL   C26320845   7.914   1.876   5.068 -0.2530 -0.1805 -0.3102
   42MOL   C26420846   7.899   1.955   5.186  0.3618  0.2406  0.1212
   42MOL   H26520847   7.708   2.561   5.589  1.1386  1.3063 -0.6040
   42MOL   H26620848   7.655   2.657   5.474  0.3934  0.3258 -1.9902
   42MOL   H26720849   7.708   2.449   5.177  0.2400 -0.1721 -0.2606
   42MOL   H26820850   7.819   2.579   5.178  1.4238 -1.5604 -0.0399
   42MOL   H26920851   7.658   2.613   5.226  3.6971  2.3389 -0.5629
   42MOL   H27020852   7.990   2.151   5.357 -1.8474 -1.1278  2.7158
   42MOL   H27120853   7.823   2.118   5.380  1.7667 -3.0408  0.5413
   42MOL   H27220854   7.910   2.269   5.058  1.8252  0.2338  2.2151
   42MOL   H27320855   7.920   2.136   4.846 -0.8952  0.7457 -0.2204
   42MOL   H27420856   7.911   1.885   4.856 -0.3252 -1.1154  0.3119
   42MOL   H27520857   7.926   1.770   5.080  0.0802 -0.0191  0.9270
   42MOL   H27620858   7.898   1.908   5.283  0.4269 -0.5730 -0.2675
   42MOL   C27720859   7.905   2.610   5.425 -0.6170 -0.2816  0.1858
   42MOL   C27820860   0.052   2.581   5.392 -0.1719 -0.2081 -0.2726
   42MOL   C27920861   0.071   2.565   5.243 -0.0968 -0.1485  0.3954
   42MOL   C28020862   0.110   2.458   5.478 -0.3171 -0.6061  0.1580
   42MOL   O28120863   0.175   2.371   5.424  0.7586 -0.2938 -0.1338
   42MOL   O28220864   0.086   2.462   5.602  0.4778  0.4846 -0.8338
   42MOL   C28320865   0.143   2.368   5.691 -0.1535  0.2018  0.0980
   42MOL   C28420866   0.168   2.430   5.820  0.2959  0.3896 -0.6957
   42MOL   C28520867   0.167   2.351   5.933  0.3224  0.1257 -0.8859
   42MOL   C28620868   0.187   2.406   6.063 -0.0358 -0.3311 -0.2981
   42MOL   C28720869   0.217   2.543   6.072  0.5948  0.7625 -0.1194
   42MOL   C28820870   0.232   2.620   5.952 -0.0772 -0.7369 -0.3681
   42MOL   C28920871   0.200   2.566   5.827  0.1793 -0.1789  0.1236
   42MOL   H29020872   7.905   2.625   5.533  0.2056  0.3963  0.1007
   42MOL   H29120873   7.871   2.701   5.376  0.8175  1.4726  2.3520
   42MOL   H29220874   0.026   2.646   5.186 -1.0250 -1.3873 -0.6716
   42MOL   H29320875   0.042   2.463   5.214 -2.7876  1.0963 -1.5896
   42MOL   H29420876   0.178   2.554   5.224 -0.2054 -1.6536  0.5800
   42MOL   H29520877   0.065   2.292   5.699  0.0830 -0.0294  0.2614
   42MOL   H29620878   0.232   2.315   5.657 -0.0828 -0.5596  1.4294
   42MOL   H29720879   0.137   2.248   5.928 -1.1463  0.5613 -1.0727
   42MOL   H29820880   0.178   2.348   6.154  0.2868  1.7907  1.1125
   42MOL   H29920881   0.237   2.579   6.172  0.2259 -0.9574  0.5801
   42MOL   H30020882   0.242   2.727   5.966 -1.5363 -0.7962  1.3098
   42MOL   H30120883   0.177   2.628   5.742 -1.1435 -0.7878  0.0369
   42MOL   C30220884   0.124   2.712   5.449  0.2827  0.7433  0.1334
   42MOL   C30320885   0.274   2.740   5.415 -0.0676  0.5330  0.0560
   42MOL   C30420886   0.367   2.615   5.417  0.0777 -1.1843 -0.0782
   42MOL   C30520887   0.313   2.828   5.532  0.4774 -0.1087 -0.4834
   42MOL   O30620888   0.388   2.790   5.619  0.5378 -0.3303  0.2645
   42MOL   O30720889   0.263   2.952   5.522  0.1406 -0.3112 -0.3699
   42MOL   C30820890   0.301   3.048   5.626  0.2161  0.5493  0.1084
   42MOL   C30920891   0.270   3.195   5.589 -0.1609 -0.1499  0.2819
   42MOL   C31020892   0.267   3.291   5.693 -0.4372 -0.5062 -0.7874
   42MOL   C31120893   0.224   3.420   5.668  0.1260  0.0563 -0.5717
   42MOL   C31220894   0.214   3.469   5.536  0.7826 -0.0921  0.4165
   42MOL   C31320895   0.228   3.381   5.429 -0.1423  0.0606  0.0780
   42MOL   C31420896   0.253   3.240   5.457 -0.1525 -0.5934 -0.8057
   42MOL   H31520897   0.101   2.709   5.555  1.0604  0.4820  0.3022
   42MOL   H31620898   0.068   2.799   5.416 -0.4619  0.6467  1.1316
   42MOL   H31720899   0.344   2.549   5.334  0.5424 -1.3303 -0.0936
   42MOL   H31820900   0.356   2.572   5.517 -0.3013 -0.3823  0.2288
   42MOL   H31920901   0.473   2.638   5.403 -0.4581  0.5155 -1.5609
   42MOL   H32020902   0.257   3.023   5.722 -1.1350  0.9244 -0.3925
   42MOL   H32120903   0.410   3.048   5.636  0.4300 -3.1611 -1.5237
   42MOL   H32220904   0.282   3.262   5.796  1.3076 -0.0496 -0.8897
   42MOL   H32320905   0.193   3.489   5.744 -1.4505 -1.7072  0.4330
   42MOL   H32420906   0.189   3.572   5.519  0.0719 -0.3638 -0.2180
   42MOL   H32520907   0.230   3.407   5.324  0.6801 -0.0026  0.0741
   42MOL   H32620908   0.258   3.161   5.385 -0.5314 -1.2923 -0.0753
   42MOL   C32720909   0.284   2.821   5.283 -0.5181 -0.8739  0.4917
   42MOL   C32820910   0.416   2.860   5.209 -0.4417  0.3399 -0.7142
   42MOL   C32920911   0.468   2.733   5.128 -0.1166  0.4685  0.3901
   42MOL   C33020912   0.529   2.906   5.305 -0.2975 -0.1925 -0.1434
   42MOL   O33120913   0.527   3.020   5.355 -0.2738  0.3401 -0.2753
   42MOL   O33220914   0.632   2.821   5.326  0.2637  0.0080  0.3000
   42MOL   C33320915   0.752   2.851   5.392  0.9954 -0.7808 -0.4873
   42MOL   C33420916   0.878   2.791   5.331  0.6358  0.5075  0.8049
   42MOL   C33520917   0.998   2.798   5.413 -0.2666  0.1257  0.1606
   42MOL   C33620918   1.123   2.741   5.370  0.0029  0.3054  0.6705
   42MOL   C33720919   1.131   2.679   5.245 -0.0143  0.7407 -0.0786
   42MOL   C33820920   1.008   2.674   5.168  0.3867  0.1022 -0.4744
   42MOL   C33920921   0.883   2.720   5.213 -0.1215 -0.5761 -0.2523
   42MOL   H34020922   0.221   2.909   5.295  1.4074  0.6360 -0.0838
   42MOL   H34120923   0.222   2.778   5.205  0.2113  0.3493 -0.7717
   42MOL   H34220924   0.395   2.724   5.047  0.3593 -1.4953  0.1371
   42MOL   H34320925   0.461   2.638   5.181 -1.6214  0.5350  0.3380
   42MOL   H34420926   0.571   2.746   5.095 -0.2344  0.6047  0.0685
   42MOL   H34520927   0.770   2.958   5.399 -0.1509 -0.3630 -3.0754
   42MOL   H34620928   0.736   2.825   5.496 -1.9563 -0.6198 -0.8333
   42MOL   H34720929   0.988   2.844   5.510 -1.0063  0.6754 -0.1742
   42MOL   H34820930   1.208   2.749   5.436 -1.0826 -1.6576  2.3632
   42MOL   H34920931   1.227   2.640   5.217 -0.5157 -0.4306 -0.1922
   42MOL   H35020932   1.011   2.616   5.076  0.6760 -0.8040  0.1028
   42MOL   H35120933   0.797   2.696   5.153  1.3682 -1.6969 -2.0132
   42MOL   C35220934   0.373   2.983   5.108  0.1384 -0.3575  0.0381
   42MOL   C35320935   0.455   3.032   4.978  0.2146 -0.3416 -0.5618
   42MOL   C35420936   0.399   3.173   4.945  0.6411 -0.4282  1.0110
   42MOL   C35520937   0.427   2.932   4.867  0.3209 -0.5205  0.3576
   42MOL   O35620938   0.503   2.833   4.842 -0.6340  0.2695  0.4999
   42MOL   O35720939   0.312   2.965   4.803 -0.3673 -0.2785  0.5089
   42MOL   C35820940   0.267   2.874   4.703  0.0345  0.9471  0.7438
   42MOL   C35920941   0.140   2.805   4.751 -0.1047  0.3905  0.1687
   42MOL   C36020942   0.014   2.846   4.698 -0.0924  0.8232 -0.0721
   42MOL   C36120943   7.907   2.782   4.747 -0.9545  0.4267 -0.0670
   42MOL   C36220944   7.909   2.681   4.848 -0.3620  0.3859  0.1041
   42MOL   C36320945   0.033   2.638   4.894  0.7162 -0.4966  0.2026
   42MOL   C36420946   0.147   2.697   4.836 -0.6823  1.1090  0.4114
   42MOL   H36520947   0.361   3.064   5.180  0.3221  0.0273 -0.3643
   42MOL   H36620948   0.268   2.972   5.083 -0.0537 -0.8578  1.0352
   42MOL   H36720949   0.419   3.253   5.015  1.6062 -0.0639  0.3262
   42MOL   H36820950   0.290   3.171   4.939  0.5880 -0.0190  1.8615
   42MOL   H36920951   0.430   3.214   4.849 -0.3766 -1.3462  0.2749
   42MOL   H37020952   0.237   2.919   4.609  0.8961 -0.8053 -0.3927
   42MOL   H37120953   0.348   2.806   4.673  0.0671  1.2134  0.2227
   42MOL   H37220954   8.005   2.918   4.619  0.4376  1.1905  0.1501
   42MOL   H37320955   7.814   2.815   4.705 -0.0172  2.6338 -0.4862
   42MOL   H37420956   7.822   2.646   4.901 -1.0754  1.4380 -0.3451
   42MOL   H37520957   0.035   2.552   4.960  1.6970 -0.6747 -0.0501
   42MOL   H37620958   0.243   2.655   4.863  0.6778  2.2520 -2.4821
   42MOL   C37720959   0.604   3.053   5.008  0.0585  0.8047 -0.4952
   42MOL   C37820960   0.712   3.145   4.942  0.7911 -0.0448 -0.3540
   42MOL   C37920961   0.678   3.294   4.986 -0.0346 -0.3204  0.3170
   42MOL   C38020962   0.714   3.147   4.791 -0.3535 -0.1309  0.5199
   42MOL   O38120963   0.716   3.250   4.725 -0.0485  0.0686  0.3219
   42MOL   O38220964   0.707   3.030   4.732  0.3657 -0.1689 -0.0502
   42MOL   C38320965   0.677   3.028   4.594 -0.3001  0.3909 -0.4826
   42MOL   C38420966   0.728   2.904   4.522  0.1534  0.5554 -0.1906
   42MOL   C38520967   0.668   2.781   4.554 -0.1627 -0.0605  0.4318
   42MOL   C38620968   0.710   2.665   4.486 -0.0314  0.1059 -0.3220
   42MOL   C38720969   0.823   2.668   4.402 -0.0818 -0.4248 -0.7109
   42MOL   C38820970   0.880   2.788   4.369  0.3491 -1.2421  0.1405
   42MOL   C38920971   0.833   2.909   4.432 -0.5415 -0.4028  0.5042
   42MOL   H39020972   0.649   2.955   4.996  0.9727  1.1415  0.1461
   42MOL   H39120973   0.600   3.070   5.115 -1.0521 -0.4515 -0.3243
   42MOL   H39220974   0.767   3.357   4.979 -0.4940  0.4491  1.2763
   42MOL   H39320975   0.656   3.297   5.092 -1.8510 -2.6679  0.0310
   42MOL   H39420976   0.602   3.348   4.930 -1.4751 -1.6273  0.9951
   42MOL   H39520977   0.569   3.023   4.579 -0.3418  1.1008 -0.3987
   42MOL   H39620978   0.709   3.115   4.536  1.2307 -0.8257 -1.5279
   42MOL   H39720979   0.576   2.780   4.610 -0.8697 -0.3581 -0.7152
   42MOL   H39820980   0.661   2.573   4.514  0.3718 -0.4631 -1.4628
   42MOL   H39920981   0.857   2.575   4.360 -0.4153 -2.1861  2.6877
   42MOL   H40020982   0.963   2.788   4.300  1.4621 -1.4756  1.4556
   42MOL   H40120983   0.882   3.001   4.403 -1.0517 -0.6360 -1.1621
   42MOL   C40220984   0.837   3.095   5.017  0.2374 -0.0599  0.2029
   42MOL   C40320985   0.978   3.113   4.951  0.1950  0.3164  0.3674
   42MOL   C40420986   1.005   3.255   4.893  0.2337  0.2150 -0.0937
   42MOL   C40520987   0.991   3.012   4.840 -0.1419  0.2383  0.6562
   42MOL   O40620988   1.033   3.044   4.731  0.2452  0.6091  0.1170
   42MOL   O40720989   0.964   2.880   4.866  0.0315 -0.1345  0.0034
   42MOL   C40820990   0.986   2.778   4.767 -0.0004  0.7022  0.3331
   42MOL   C40920991   0.906   2.657   4.809 -0.6192 -0.1973 -0.6116
   42MOL   C41020992   0.776   2.662   4.861 -0.7158  0.6456  0.0053
   42MOL   C41120993   0.702   2.543   4.883 -0.1684 -0.2963  0.1491
   42MOL   C41220994   0.764   2.417   4.870 -0.0431  0.8029 -0.5312
   42MOL   C41320995   0.900   2.418   4.834  0.3331  0.4750  0.1697
   42MOL   C41420996   0.975   2.533   4.804 -0.2114 -0.1164 -0.5272
   42MOL   H41520997   0.831   2.992   5.053  0.0118  0.5677  2.0001
   42MOL   H41620998   0.842   3.155   5.107  1.1809  1.7124 -0.9900
   42MOL   H41720999   1.098   3.254   4.837 -0.8314  2.2726 -1.9685
   42MOL   H41821000   1.021   3.318   4.981  2.3995 -0.3862 -0.0381
   42MOL   H41921001   0.924   3.303   4.838 -0.0705  2.4812  2.2470
   42MOL   H42021002   0.968   2.817   4.667  0.2362 -0.2746 -0.0999
   42MOL   H42121003   1.082   2.729   4.782  0.0047  0.3287 -0.9225
   42MOL   H42221004   0.725   2.757   4.870 -1.2304  0.6481 -2.4771
   42MOL   H42321005   0.603   2.564   4.921 -0.1448 -1.0018  0.6105
   42MOL   H42421006   0.722   2.322   4.897  1.9146 -0.8590 -3.0541
   42MOL   H42521007   0.942   2.318   4.831  0.1427  0.4023 -0.0774
   42MOL   H42621008   1.078   2.527   4.770  0.3396  0.5773  0.9550
   42MOL   C42721009   1.083   3.067   5.062  0.2925 -0.2821  0.2388
   42MOL   C42821010   1.240   3.040   5.044  0.2561  0.2713 -0.1548
   42MOL   C42921011   1.261   2.909   4.971  0.1946  0.0938 -0.8474
   42MOL   C43021012   1.299   3.022   5.189 -0.6506  0.7453 -0.2557
   42MOL   O43121013   1.373   2.929   5.220  0.3715 -0.0407 -0.1762
   42MOL   O43221014   1.273   3.123   5.263  0.4648  0.6100 -0.3024
   42MOL   C43321015   1.308   3.114   5.401  0.2039 -0.2193  0.3700
   42MOL   C43421016   1.325   3.254   5.447 -0.4534  0.0141 -0.5439
   42MOL   C43521017   1.236   3.353   5.394  0.2585  0.5106  0.2473
   42MOL   C43621018   1.272   3.490   5.411  0.9392  0.1670  0.2087
   42MOL   C43721019   1.387   3.528   5.479  0.2846 -0.1562  0.2721
   42MOL   C43821020   1.466   3.430   5.536 -0.5022 -0.4000 -1.1237
   42MOL   C43921021   1.439   3.295   5.513 -0.2802  0.0021  0.3865
   42MOL   H44021022   1.039   2.984   5.118 -1.4823 -0.3804 -1.2761
   42MOL   H44121023   1.075   3.146   5.137  1.5958 -0.7494  0.8943
   42MOL   H44221024   1.260   2.923   4.863  1.2744  0.7967 -0.7688
   42MOL   H44321025   1.176   2.845   4.997  0.5433 -1.6914 -3.8092
   42MOL   H44421026   1.350   2.847   4.981  0.1164  0.0925 -0.1388
   42MOL   H44521027   1.237   3.061   5.463 -1.4369  0.9233 -0.4821
   42MOL   H44621028   1.405   3.067   5.419  1.0605  1.6809  0.8656
   42MOL   H44721029   1.146   3.326   5.340  0.2400 -0.0776  0.5666
   42MOL   H44821030   1.221   3.568   5.357 -2.2047 -1.7651  0.2564
   42MOL   H44921031   1.404   3.634   5.491 -1.5253 -0.1340  3.4351
   42MOL   H45021032   1.558   3.460   5.584 -0.6229 -0.4404 -0.8665
   42MOL   H45121033   1.520   3.232   5.546 -0.0583 -0.8501 -1.7053
   42MOL   C45221034   1.312   3.162   4.975 -0.2549  0.2643  0.1255
   42MOL   C45321035   1.466   3.191   4.963 -0.1693  0.5768 -0.4620
   42MOL   C45421036   1.488   3.289   4.841  0.2394  0.0107  0.2608
   42MOL   C45521037   1.539   3.052   4.940 -0.0337  0.0010 -0.2783
   42MOL   O45621038   1.603   2.999   5.030  0.5722  0.0004 -0.7876
   42MOL   O45721039   1.524   3.003   4.807 -0.0478 -0.5103 -0.0958
   42MOL   C45821040   1.570   2.868   4.780  0.1840  0.1944 -0.1791
   42MOL   C45921041   1.478   2.795   4.688  0.0506  0.0859 -0.1230
   42MOL   C46021042   1.397   2.873   4.604  0.9034 -0.8569  0.3835
   42MOL   C46121043   1.309   2.804   4.515 -0.3768  0.3080  0.0235
   42MOL   C46221044   1.315   2.666   4.505 -0.1709 -0.1981 -0.2744
   42MOL   C46321045   1.402   2.594   4.584  0.6093 -0.9966 -0.5469
   42MOL   C46421046   1.479   2.656   4.685  0.3844  0.4208 -0.9712
   42MOL   H46521047   1.259   3.252   5.007  0.3475  0.4630  0.5683
   42MOL   H46621048   1.283   3.154   4.870 -0.3105 -0.6677  0.2062
   42MOL   H46721049   1.454   3.241   4.749 -0.8886  1.3619 -0.0518
   42MOL   H46821050   1.584   3.340   4.842 -1.0789  2.5761  0.6114
   42MOL   H46921051   1.416   3.369   4.861  0.4790  0.3292 -0.1667
   42MOL   H47021052   1.673   2.883   4.746 -0.3349  2.6830 -0.6953
   42MOL   H47121053   1.597   2.804   4.865  1.2255  1.6485  0.6182
   42MOL   H47221054   1.398   2.981   4.604  0.8768 -0.8113 -3.1126
   42MOL   H47321055   1.250   2.872   4.456 -1.6428  1.0007  2.0319
   42MOL   H47421056   1.240   2.621   4.442 -0.2199 -1.5697  0.7378
   42MOL   H47521057   1.420   2.489   4.564 -0.7593 -1.0360 -1.5914
   42MOL   H47621058   1.557   2.603   4.737  0.8285 -0.6490 -2.7081
   42MOL   C47721059   1.513   3.260   5.098  0.4106  0.7540  0.5264
   42MOL   C47821060   1.644   3.340   5.105  0.4239  0.1073  0.4441
   42MOL   C47921061   1.759   3.261   5.167  0.9180 -0.3166 -0.1145
   42MOL   C48021062   1.626   3.470   5.187  1.3961 -0.9494  0.0944
   42MOL   O48121063   1.702   3.501   5.284  0.2462  0.3316  0.1119
   42MOL   O48221064   1.538   3.545   5.126 -0.6376 -0.1195  0.0844
   42MOL   C48321065   1.503   3.676   5.170  0.1375 -0.7334  0.3781
   42MOL   C48421066   1.378   3.727   5.114 -0.0471  0.2928  0.0848
   42MOL   C48521067   1.337   3.682   4.982  0.2108  0.0699  0.1663
   42MOL   C48621068   1.215   3.730   4.927 -0.3229  0.0063 -0.4649
   42MOL   C48721069   1.132   3.816   4.995 -0.2209  0.2752 -0.3750
   42MOL   C48821070   1.171   3.850   5.128  0.8263  0.4694  0.3573
   42MOL   C48921071   1.294   3.803   5.188 -0.1028  0.5277 -0.0973
   42MOL   H49021072   1.526   3.180   5.171 -0.2591  1.0178  0.9404
   42MOL   H49121073   1.428   3.314   5.139  1.2211  1.5573  1.2004
   42MOL   H49221074   1.852   3.318   5.158  1.5577 -1.5045 -1.2326
   42MOL   H49321075   1.780   3.166   5.118  1.4472 -1.2168  1.8271
   42MOL   H49421076   1.731   3.246   5.271 -1.6058 -1.6269 -0.9592
   42MOL   H49521077   1.484   3.676   5.278 -3.2228  0.0058 -0.1887
   42MOL   H49621078   1.580   3.750   5.147 -0.3336 -0.5193 -0.5000
   42MOL   H49721079   1.410   3.628   4.923  0.6996  1.8003 -0.8430
   42MOL   H49821080   1.185   3.702   4.827 -2.6938 -2.8946  0.9851
   42MOL   H49921081   1.043   3.860   4.951 -1.2035  3.4893  4.4735
   42MOL   H50021082   1.103   3.914   5.182 -1.8036 -0.4767 -1.7338
   42MOL   H50121083   1.325   3.840   5.285 -1.6507  1.8420 -0.0756
   42MOL   H50221084   1.670   3.377   5.007 -1.0971 -1.6379 -0.6613
   43MOL     C121085   0.603   6.271   2.292  0.0325  0.0043 -0.1006
   43MOL     C221086   0.472   6.194   2.321  0.7912 -0.1011 -0.0729
   43MOL     C321087   0.401   6.189   2.185  0.4039  0.3632  0.7797
   43MOL     C421088   0.382   6.276   2.421 -0.0938  0.6618  0.1456
   43MOL     O521089   0.427   6.374   2.471 -0.0608 -0.6544 -0.1788
   43MOL     O621090   0.260   6.229   2.437 -0.2579 -0.1829 -0.2054
   43MOL     C721091   0.160   6.309   2.499 -0.2053 -0.4937 -0.5940
   43MOL     C821092   0.169   6.289   2.650 -0.3976  0.5741  0.5198
   43MOL     C921093   0.133   6.167   2.713 -0.0959  0.5336 -0.4656
   43MOL    C1021094   0.125   6.162   2.854  0.2548  0.7846 -0.2896
   43MOL    C1121095   0.168   6.274   2.932  0.2932 -0.0900  0.7426
   43MOL    C1221096   0.216   6.390   2.870  0.3689 -0.3093  0.1182
   43MOL    C1321097   0.213   6.397   2.729  0.2898  0.3270  0.6071
   43MOL    H1421098   0.666   6.220   2.219  0.0883  1.5833 -1.1736
   43MOL    H1521099   0.594   6.376   2.264  0.5872  0.5706  1.8074
   43MOL    H1621100   0.387   6.287   2.141  0.6849 -0.8867 -2.2390
   43MOL    H1721101   0.306   6.137   2.179  0.1754  0.8941 -0.3846
   43MOL    H1821102   0.458   6.139   2.106 -0.6454 -1.6858  1.2968
   43MOL    H1921103   0.161   6.412   2.465  0.7157  0.2657  1.6473
   43MOL    H2021104   0.058   6.278   2.475 -0.5126 -0.2769  0.4334
   43MOL    H2121105   0.103   6.084   2.651  0.8631 -1.6997  1.9732
   43MOL    H2221106   0.099   6.071   2.904  0.9180  0.4683 -0.5175
   43MOL    H2321107   0.168   6.259   3.039  0.5259  1.1628  0.9344
   43MOL    H2421108   0.255   6.479   2.916  2.1319 -0.8932 -0.2005
   43MOL    H2521109   0.230   6.495   2.686 -1.0495  0.2430 -0.1391
   43MOL    H2621110   0.662   6.282   2.383  3.5591  0.2154 -2.3006
   43MOL    C2721111   0.495   6.050   2.388  0.0270 -0.9820  0.0096
   43MOL    C2821112   0.606   6.012   2.493  0.2963  0.5625 -0.4299
   43MOL    C2921113   0.603   6.103   2.613  0.4358  0.2374  0.3969
   43MOL    C3021114   0.745   6.023   2.431 -0.1128  0.2269 -0.0473
   43MOL    O3121115   0.837   6.079   2.494 -0.4701 -0.1756  0.0834
   43MOL    O3221116   0.743   5.975   2.310 -0.0951  0.0952 -0.2403
   43MOL    C3321117   0.860   5.990   2.220  0.1763  0.3356 -0.2057
   43MOL    C3421118   0.824   6.047   2.079 -0.6423  0.2470 -0.9187
   43MOL    C3521119   0.880   6.165   2.039 -0.1239  0.5902  0.3582
   43MOL    C3621120   0.857   6.218   1.907 -0.4873  0.4604  0.5456
   43MOL    C3721121   0.763   6.150   1.830  0.3943 -0.0121  0.5239
   43MOL    C3821122   0.695   6.040   1.874 -0.0745 -0.0568  0.6657
   43MOL    C3921123   0.734   5.980   1.995  0.9066 -0.6961 -0.0666
   43MOL    H4021124   0.492   5.969   2.314  0.3172 -0.2917 -0.7632
   43MOL    H4121125   0.400   6.027   2.437 -0.4609  0.2394 -0.3489
   43MOL    H4221126   0.509   6.101   2.668 -0.2831  0.8212 -0.7969
   43MOL    H4321127   0.604   6.209   2.588 -0.3918  0.2211  0.2871
   43MOL    H4421128   0.681   6.094   2.689  0.4376  0.6902  0.4520
   43MOL    H4521129   0.932   6.056   2.269 -1.5376  1.1849  1.2484
   43MOL    H4621130   0.903   5.895   2.191  0.5095  0.7123 -0.9456
   43MOL    H4721131   0.953   6.207   2.106  1.2551  0.0100 -0.7561
   43MOL    H4821132   0.915   6.302   1.871  1.2052 -0.9147  0.0154
   43MOL    H4921133   0.750   6.195   1.733  4.2335  1.2209  0.5182
   43MOL    H5021134   0.622   5.994   1.808 -1.1948 -0.3503  2.1001
   43MOL    H5121135   0.673   5.899   2.033 -1.9276  1.1154 -0.5831
   43MOL    C5221136   0.587   5.865   2.563  0.2759  0.5717 -0.4538
   43MOL    C5321137   0.587   5.723   2.492  0.0633  0.5193 -0.2524
   43MOL    C5421138   0.709   5.695   2.408 -0.1960 -0.0580  0.4070
   43MOL    C5521139   0.455   5.706   2.409  0.3734 -0.2890  0.1660
   43MOL    O5621140   0.461   5.706   2.286 -0.1348  0.2173 -0.1273
   43MOL    O5721141   0.346   5.682   2.486 -0.0236  0.1096 -0.3744
   43MOL    C5821142   0.225   5.638   2.426  0.0268  0.2423 -0.9697
   43MOL    C5921143   0.155   5.738   2.334  0.6387 -0.2708 -0.2208
   43MOL    C6021144   0.126   5.870   2.376 -0.2244 -0.2759 -0.0134
   43MOL    C6121145   0.043   5.957   2.308 -0.4605  0.2443  0.9091
   43MOL    C6221146   7.997   5.912   2.184 -0.0189 -1.2424 -0.0182
   43MOL    C6321147   0.022   5.782   2.134  0.1528 -0.0133 -0.4243
   43MOL    C6421148   0.087   5.690   2.221 -0.5460  0.1374 -0.5280
   43MOL    H6521149   0.501   5.865   2.630  0.1193  0.4666 -0.6552
   43MOL    H6621150   0.678   5.861   2.623  0.1281  1.2549 -0.1844
   43MOL    H6721151   0.707   5.745   2.311  3.6238  0.7257  0.6810
   43MOL    H6821152   0.721   5.592   2.375 -0.8709  0.3169 -1.0767
   43MOL    H6921153   0.796   5.731   2.463 -1.3545  0.3129  2.0197
   43MOL    H7021154   0.234   5.542   2.376 -1.6961  0.0490 -0.9366
   43MOL    H7121155   0.164   5.620   2.515  0.9511  2.6853  0.2151
   43MOL    H7221156   0.151   5.895   2.478  1.0102  1.0754 -0.6212
   43MOL    H7321157   0.009   6.053   2.343  2.7068  1.4691  0.8624
   43MOL    H7421158   7.932   5.987   2.142  0.6730  0.6467  2.2291
   43MOL    H7521159   7.995   5.749   2.037  0.7316 -4.1822  0.6780
   43MOL    H7621160   0.091   5.587   2.188 -1.9558  0.2330 -1.0044
   43MOL    C7721161   0.582   5.613   2.607  0.2620  0.5921 -0.0593
   43MOL    C7821162   0.704   5.550   2.687 -0.3112  0.3571  0.5527
   43MOL    C7921163   0.809   5.660   2.721 -0.2209 -0.4411 -0.3184
   43MOL    C8021164   0.773   5.441   2.600  0.4551  0.0060  0.1745
   43MOL    O8121165   0.710   5.385   2.511 -0.2542  0.5974  0.3809
   43MOL    O8221166   0.892   5.400   2.647 -0.0921 -0.0159 -0.1122
   43MOL    C8321167   0.951   5.288   2.592  0.1107 -0.1725 -0.0489
   43MOL    C8421168   1.069   5.240   2.671  0.9013  0.2231 -0.8773
   43MOL    C8521169   1.204   5.266   2.634 -0.1830  0.0638  0.1606
   43MOL    C8621170   1.304   5.230   2.727 -0.3711 -0.2473 -0.5245
   43MOL    C8721171   1.280   5.190   2.858 -0.2896  0.8175 -0.1105
   43MOL    C8821172   1.147   5.157   2.890  1.0436  0.0637  0.4066
   43MOL    C8921173   1.043   5.185   2.803  0.1961  0.4596  0.4411
   43MOL    H9021174   0.523   5.529   2.569  0.4702  0.5629 -0.3199
   43MOL    H9121175   0.508   5.655   2.675  1.2438  0.2981  1.2128
   43MOL    H9221176   0.876   5.702   2.646 -1.5228 -0.7055 -1.6647
   43MOL    H9321177   0.881   5.619   2.792 -0.7563 -0.8238  0.0098
   43MOL    H9421178   0.756   5.744   2.766  1.3961  0.4272 -0.0091
   43MOL    H9521179   0.878   5.207   2.593  0.1022 -0.1594  0.3810
   43MOL    H9621180   0.982   5.321   2.493  0.6511  0.9737  0.4894
   43MOL    H9721181   1.230   5.306   2.537  1.5223 -1.4146 -0.0249
   43MOL    H9821182   1.405   5.244   2.693 -0.3349  0.8589  0.0081
   43MOL    H9921183   1.365   5.171   2.922 -2.4451  0.5494  2.7469
   43MOL   H10021184   1.120   5.130   2.991 -1.4951  0.2410 -0.1789
   43MOL   H10121185   0.939   5.186   2.832  0.1881 -0.5903  0.4867
   43MOL   C10221186   0.664   5.487   2.825 -0.4419  0.3774  0.2029
   43MOL   C10321187   0.568   5.363   2.845 -0.9519  0.7605  0.3438
   43MOL   C10421188   0.515   5.396   2.987 -0.2435  0.3125 -0.7954
   43MOL   C10521189   0.654   5.231   2.839  0.0357 -0.0496 -0.1065
   43MOL   O10621190   0.712   5.199   2.941 -1.1622  0.3234 -0.1046
   43MOL   O10721191   0.651   5.159   2.726  0.1696  0.1580 -0.0475
   43MOL   C10821192   0.677   5.018   2.721 -0.4188 -0.6173 -0.1814
   43MOL   C10921193   0.611   4.957   2.598 -0.0488  0.4785 -0.1225
   43MOL   C11021194   0.628   5.004   2.466 -0.3339 -0.0280  0.0617
   43MOL   C11121195   0.578   4.935   2.356 -0.8891 -0.3902 -0.4123
   43MOL   C11221196   0.500   4.822   2.380  0.9401 -0.9752  0.6091
   43MOL   C11321197   0.476   4.770   2.508 -0.0117 -0.4714  0.0719
   43MOL   C11421198   0.537   4.835   2.612 -0.2319 -0.0359  0.1938
   43MOL   H11521199   0.613   5.569   2.875  1.1359  0.0609  2.4338
   43MOL   H11621200   0.760   5.475   2.877 -1.3465  2.8374  2.5070
   43MOL   H11721201   0.608   5.409   3.043 -1.0529  1.4646  0.3082
   43MOL   H11821202   0.469   5.310   3.036  0.6767 -0.7214 -1.7388
   43MOL   H11921203   0.449   5.483   2.985 -1.1858 -0.3818 -0.0774
   43MOL   H12021204   0.783   4.993   2.716  0.1674  1.4303  1.4127
   43MOL   H12121205   0.632   4.971   2.808 -0.1357 -1.8364 -0.6844
   43MOL   H12221206   0.691   5.089   2.447 -1.9604  1.0482 -0.5972
   43MOL   H12321207   0.595   4.963   2.253 -0.8292 -0.4884 -0.4285
   43MOL   H12421208   0.455   4.759   2.304  0.2580  0.7866 -0.4809
   43MOL   H12521209   0.427   4.676   2.533 -0.6593 -0.1987 -0.1669
   43MOL   H12621210   0.532   4.789   2.709 -0.1432 -0.7769 -0.1469
   43MOL   C12721211   0.448   5.361   2.741 -0.0300  0.2513 -0.3891
   43MOL   C12821212   0.328   5.261   2.751 -0.2836  0.6487  0.2616
   43MOL   C12921213   0.297   5.222   2.606 -0.3394  0.5483 -0.2376
   43MOL   C13021214   0.208   5.345   2.792 -0.1637 -0.5343  0.5555
   43MOL   O13121215   0.108   5.374   2.717 -0.1535 -0.0801  0.3635
   43MOL   O13221216   0.220   5.376   2.925 -0.2536  0.1784  0.1629
   43MOL   C13321217   0.140   5.473   2.994 -0.2775  0.1361  0.2710
   43MOL   C13421218   0.192   5.612   2.983  0.3992 -0.6885 -0.0561
   43MOL   C13521219   0.195   5.675   2.854  0.0256 -0.2061 -0.3449
   43MOL   C13621220   0.257   5.806   2.835  0.1361  1.0618 -0.2921
   43MOL   C13721221   0.301   5.877   2.952 -0.1607  1.3516  0.0312
   43MOL   C13821222   0.293   5.814   3.078  0.1115 -0.1181  0.2471
   43MOL   C13921223   0.242   5.684   3.092 -0.1196 -0.4079  0.0753
   43MOL   H14021224   0.511   5.346   2.653  2.8277 -2.3882  1.9701
   43MOL   H14121225   0.413   5.464   2.737 -0.6517  0.1569  1.8227
   43MOL   H14221226   0.195   5.207   2.572  0.6329 -3.1084 -1.7603
   43MOL   H14321227   0.351   5.132   2.578  1.9353  0.8706  2.8760
   43MOL   H14421228   0.334   5.301   2.540  1.0744 -0.5406 -0.7773
   43MOL   H14521229   0.037   5.474   2.959 -0.5315  1.5245  1.0163
   43MOL   H14621230   0.124   5.442   3.097 -1.3366  0.6965  0.2802
   43MOL   H14721231   0.144   5.626   2.773 -1.4268 -1.2345  1.1567
   43MOL   H14821232   0.277   5.846   2.737  0.7507  0.3316 -0.4688
   43MOL   H14921233   0.350   5.972   2.935  1.4011  0.3774 -1.0067
   43MOL   H15021234   0.331   5.872   3.161  1.0351  0.4014 -0.5335
   43MOL   H15121235   0.238   5.639   3.190  0.1820  1.1029  0.8082
   43MOL   C15221236   0.342   5.131   2.842 -0.1789  0.0439  0.1851
   43MOL   C15321237   0.225   5.024   2.889  0.0481  0.4296 -0.3203
   43MOL   C15421238   0.106   5.012   2.781 -0.2753  0.4125  0.6275
   43MOL   C15521239   0.170   5.057   3.028  0.2302 -0.3470  0.1649
   43MOL   O15621240   0.244   5.114   3.111  0.0718  0.0546 -0.4828
   43MOL   O15721241   0.042   5.016   3.056  0.1322  0.3714  0.5618
   43MOL   C15821242   7.999   5.031   3.189  1.0503  0.4637 -0.5875
   43MOL   C15921243   7.942   5.167   3.216 -0.2996 -0.6454  0.4616
   43MOL   C16021244   0.016   5.253   3.291  0.1334 -0.1577  0.1195
   43MOL   C16121245   7.977   5.385   3.303  0.6157 -0.3485 -0.4275
   43MOL   C16221246   7.853   5.426   3.254  0.2778 -0.2923  0.7635
   43MOL   C16321247   7.770   5.330   3.186  0.0828 -0.7646  0.3940
   43MOL   C16421248   7.823   5.205   3.151 -0.0671 -0.5947 -0.2812
   43MOL   H16521249   0.393   5.169   2.931 -1.8241  0.3619  1.0089
   43MOL   H16621250   0.416   5.066   2.796  1.1085  2.0550 -0.6515
   43MOL   H16721251   0.063   5.112   2.780 -0.8277  0.1958 -2.0957
   43MOL   H16821252   0.021   4.948   2.805 -2.1577  1.8934 -1.8072
   43MOL   H16921253   0.145   4.989   2.682 -1.5721 -0.0752  0.2178
   43MOL   H17021254   7.916   4.964   3.209  1.4112  0.6932  1.8378
   43MOL   H17121255   0.073   5.018   3.261  2.9214 -0.4093 -2.7815
   43MOL   H17221256   0.115   5.225   3.325  1.5797  2.0551 -2.0682
   43MOL   H17321257   0.034   5.455   3.355  1.4429 -0.8109 -0.8168
   43MOL   H17421258   7.831   5.530   3.270  2.6204  0.3028  0.3537
   43MOL   H17521259   7.679   5.366   3.139 -0.3602 -2.2215  0.0925
   43MOL   H17621260   7.763   5.124   3.111 -0.3932 -0.8093  0.6295
   43MOL   C17721261   0.301   4.882   2.905  0.3154  0.3282 -0.0562
   43MOL   C17821262   0.258   4.753   2.976 -0.7420 -0.2469  0.2637
   43MOL   C17921263   0.118   4.715   2.907  0.2535  0.2192 -0.0607
   43MOL   C18021264   0.242   4.766   3.131  0.0030  0.2129 -0.0627
   43MOL   O18121265   0.162   4.703   3.203  0.3002 -0.1526 -0.1813
   43MOL   O18221266   0.338   4.842   3.180  0.6563 -0.1427 -0.3564
   43MOL   C18321267   0.352   4.859   3.321 -0.3056 -0.4143 -0.1531
   43MOL   C18421268   0.468   4.949   3.344 -0.3125 -0.7820  0.5255
   43MOL   C18521269   0.525   4.964   3.475 -0.5925  0.2115 -0.0363
   43MOL   C18621270   0.637   5.048   3.495  0.4957  0.0331  0.1706
   43MOL   C18721271   0.697   5.117   3.389 -0.8013 -0.3284 -0.0190
   43MOL   C18821272   0.647   5.098   3.254 -0.1120  0.7944 -0.1250
   43MOL   C18921273   0.535   5.010   3.233  0.3331 -0.0450 -0.4260
   43MOL   H19021274   0.404   4.903   2.934  0.6537  1.0199 -1.6577
   43MOL   H19121275   0.308   4.854   2.799 -1.0784 -0.8719  0.1529
   43MOL   H19221276   0.097   4.608   2.905 -1.9457  0.5422  2.5419
   43MOL   H19321277   0.104   4.736   2.802 -2.0132 -1.2301 -0.0759
   43MOL   H19421278   0.032   4.751   2.963  1.9300  0.5214  2.4311
   43MOL   H19521279   0.258   4.903   3.355 -1.5057 -0.9856 -2.6147
   43MOL   H19621280   0.365   4.761   3.367  1.4526 -0.0620  0.1401
   43MOL   H19721281   0.480   4.916   3.560 -0.5642 -2.1715 -1.3280
   43MOL   H19821282   0.678   5.046   3.595 -0.3429  0.7211  0.5329
   43MOL   H19921283   0.776   5.189   3.403 -0.7214 -0.8155  2.0926
   43MOL   H20021284   0.692   5.138   3.164  1.1455 -0.1409  0.0897
   43MOL   H20121285   0.507   5.003   3.129 -1.6706  0.4767  0.0522
   43MOL   C20221286   0.371   4.650   2.939  0.5382 -0.2809  0.2283
   43MOL   C20321287   0.387   4.511   3.008 -0.0927 -0.0178  0.1682
   43MOL   C20421288   0.457   4.522   3.151  0.0573 -0.3839  0.7108
   43MOL   C20521289   0.484   4.438   2.910  0.5426  0.1505  0.0341
   43MOL   O20621290   0.595   4.396   2.940 -0.3772  0.3025  0.2880
   43MOL   O20721291   0.437   4.433   2.784  0.4241 -0.2424  0.5296
   43MOL   C20821292   0.519   4.374   2.677 -0.0273  0.0736 -0.0566
   43MOL   C20921293   0.438   4.314   2.569 -0.3837 -0.2635  0.5564
   43MOL   C21021294   0.392   4.187   2.582  0.3561  0.0260 -0.4957
   43MOL   C21121295   0.294   4.132   2.487  0.1401 -1.0397  0.6360
   43MOL   C21221296   0.262   4.205   2.371  0.1505  0.5961 -0.6663
   43MOL   C21321297   0.334   4.324   2.345 -0.2032  0.9113  0.2236
   43MOL   C21421298   0.411   4.384   2.451  0.2152  0.7877 -0.3017
   43MOL   H21521299   0.468   4.698   2.950  0.3632  0.7373 -2.3953
   43MOL   H21621300   0.377   4.635   2.831  2.2635  0.2954  0.2368
   43MOL   H21721301   0.376   4.546   3.220  0.1164  1.4351  0.1778
   43MOL   H21821302   0.540   4.593   3.156  0.9854 -1.2831 -1.2661
   43MOL   H21921303   0.511   4.429   3.166  2.4668  0.4714 -2.1035
   43MOL   H22021304   0.580   4.456   2.639  1.0837  0.3231  2.2201
   43MOL   H22121305   0.591   4.303   2.715 -0.1025  0.3775  0.6592
   43MOL   H22221306   0.417   4.126   2.668  0.9513 -0.3922 -0.9581
   43MOL   H22321307   0.250   4.035   2.504 -1.9224 -0.5395 -1.7136
   43MOL   H22421308   0.199   4.159   2.297 -0.0443  0.5715 -0.4846
   43MOL   H22521309   0.304   4.378   2.257 -0.9673 -0.8445 -0.6132
   43MOL   H22621310   0.456   4.482   2.448  3.0714 -0.4647 -0.3545
   43MOL   C22721311   0.253   4.434   3.019 -0.2132  0.2493 -0.5577
   43MOL   C22821312   0.229   4.292   3.097  0.3112  0.1688 -0.1077
   43MOL   C22921313   0.228   4.314   3.253  0.2214 -0.2569  0.2836
   43MOL   C23021314   0.350   4.195   3.073  0.6252 -0.0865  0.1205
   43MOL   O23121315   0.442   4.178   3.154  0.7922  0.2246 -0.0704
   43MOL   O23221316   0.349   4.127   2.961 -0.1444 -0.5337 -0.0068
   43MOL   C23321317   0.438   4.019   2.941  0.2299 -0.3729  0.1747
   43MOL   C23421318   0.360   3.897   2.890  0.6743 -0.1379  0.8684
   43MOL   C23521319   0.416   3.771   2.920 -0.1003 -0.6716 -0.0828
   43MOL   C23621320   0.352   3.652   2.875 -0.0124  0.3241  1.4117
   43MOL   C23721321   0.225   3.660   2.808  0.2595  0.8966 -0.1946
   43MOL   C23821322   0.168   3.786   2.775 -0.2253  0.3295 -0.0135
   43MOL   C23921323   0.233   3.903   2.825 -0.0193 -0.2783  0.3324
   43MOL   H24021324   0.219   4.430   2.915 -1.7487  0.6306 -0.0823
   43MOL   H24121325   0.193   4.504   3.077  0.8840 -0.7649  1.8674
   43MOL   H24221326   0.185   4.231   3.308  0.1491  0.5238  1.4350
   43MOL   H24321327   0.175   4.408   3.271  0.1568 -0.1675 -0.3632
   43MOL   H24421328   0.324   4.331   3.302 -0.5676 -0.4692  1.9363
   43MOL   H24521329   0.511   4.039   2.862 -0.3011  1.8253  0.2186
   43MOL   H24621330   0.497   3.991   3.029  0.5431 -1.1706 -0.2792
   43MOL   H24721331   0.514   3.771   2.965 -0.6675  0.2229  1.2139
   43MOL   H24821332   0.407   3.560   2.880  1.1875  0.8134 -1.5432
   43MOL   H24921333   0.179   3.572   2.765  0.4197  0.3259  0.7841
   43MOL   H25021334   0.074   3.787   2.722 -0.3813  2.9435  0.2477
   43MOL   H25121335   0.184   3.999   2.816  0.1687 -0.2615 -0.6140
   43MOL   C25221336   0.098   4.216   3.053  0.3369 -0.5281 -0.3089
   43MOL   C25321337   7.956   4.271   3.076  0.0399 -0.0219 -0.7552
   43MOL   C25421338   7.924   4.400   2.992  0.0196  0.2004 -0.0704
   43MOL   C25521339   7.931   4.306   3.225  0.7876  0.2854 -0.7494
   43MOL   O25621340   7.914   4.425   3.264 -0.4377 -0.1413 -0.1369
   43MOL   O25721341   7.928   4.194   3.299  0.1042 -0.5839 -0.5111
   43MOL   C25821342   7.878   4.211   3.436 -0.5672  0.0130 -0.3553
   43MOL   C25921343   7.847   4.086   3.514  0.0773  0.3885 -0.5863
   43MOL   C26021344   7.815   3.965   3.453  0.2627  0.1173  0.1113
   43MOL   C26121345   7.773   3.851   3.528 -0.2124 -0.1919 -0.6055
   43MOL   C26221346   7.771   3.856   3.668  0.3335  0.4273  0.2406
   43MOL   C26321347   7.808   3.973   3.728  0.3353  0.0392 -0.5143
   43MOL   C26421348   7.851   4.093   3.656 -0.0779  0.0697  0.4079
   43MOL   H26521349   0.099   4.127   3.115  2.1251 -0.7745 -0.6568
   43MOL   H26621350   0.111   4.179   2.951 -1.0531  0.2458 -0.7833
   43MOL   H26721351   7.823   4.440   2.997 -0.5284 -1.2277  0.4602
   43MOL   H26821352   7.963   4.391   2.891 -0.2708 -1.9210 -0.0135
   43MOL   H26921353   7.991   4.479   3.026  0.2495  0.0914 -0.2716
   43MOL   H27021354   7.952   4.267   3.494  0.5095  0.2788 -1.9754
   43MOL   H27121355   7.790   4.272   3.416 -1.7814 -1.5228  0.2832
   43MOL   H27221356   7.827   3.953   3.346  2.1681  0.6418  0.2528
   43MOL   H27321357   7.747   3.759   3.478  0.9719 -0.7006 -0.3152
   43MOL   H27421358   7.759   3.767   3.728 -0.0936 -0.0188 -0.4925
   43MOL   H27521359   7.809   3.991   3.834 -1.0455  0.6355 -0.5990
   43MOL   H27621360   7.888   4.183   3.702  0.1992  0.6043 -0.8356
   43MOL   C27721361   7.870   4.150   3.019  0.0424 -0.6729 -0.2176
   43MOL   C27821362   7.716   4.152   2.998  0.0403 -0.1279 -0.3260
   43MOL   C27921363   7.679   4.004   2.951  0.4804  0.2990 -0.2840
   43MOL   C28021364   7.671   4.244   2.878  0.3944 -0.1459  0.7291
   43MOL   O28121365   7.606   4.343   2.896  0.2627 -0.0223 -0.1308
   43MOL   O28221366   7.724   4.201   2.766  0.7379 -0.9106 -0.1213
   43MOL   C28321367   7.694   4.269   2.640 -1.0636 -0.5206 -0.1867
   43MOL   C28421368   7.807   4.369   2.614 -0.3064  0.3607  0.1534
   43MOL   C28521369   7.937   4.315   2.601 -0.0617  0.3639 -0.8897
   43MOL   C28621370   0.043   4.401   2.588  0.2117 -1.2314 -0.3243
   43MOL   C28721371   0.029   4.537   2.584  0.4873 -0.8765 -0.2746
   43MOL   C28821372   7.908   4.594   2.617  0.5471 -0.3874  0.6350
   43MOL   C28921373   7.797   4.509   2.624  0.5536  0.4010 -0.5743
   43MOL   H29021374   7.886   4.057   3.074 -1.7520 -1.3371 -0.7698
   43MOL   H29121375   7.910   4.127   2.920  1.1879  0.6237 -0.0691
   43MOL   H29221376   7.752   3.954   2.888  0.1720 -1.5083  0.7471
   43MOL   H29321377   7.594   4.004   2.883 -0.1124  0.8091  0.4435
   43MOL   H29421378   7.660   3.936   3.034  0.6478  1.8541  1.0819
   43MOL   H29521379   7.699   4.191   2.563  0.3411 -1.4816  0.8513
   43MOL   H29621380   7.596   4.313   2.622 -0.7280  0.1393 -0.4356
   43MOL   H29721381   7.957   4.209   2.594  1.1931  0.5323  0.1688
   43MOL   H29821382   0.143   4.360   2.583  0.3148 -1.1154  0.7626
   43MOL   H29921383   0.119   4.596   2.585 -0.4297  0.6456 -2.3440
   43MOL   H30021384   7.906   4.699   2.644  0.7595 -0.8986  2.6969
   43MOL   H30121385   7.703   4.554   2.655  0.5732 -0.3285  0.5691
   43MOL   C30221386   7.641   4.182   3.133  0.4089 -0.1799  0.4020
   43MOL   C30321387   7.487   4.178   3.164 -0.2001  0.0557 -0.7066
   43MOL   C30421388   7.421   4.050   3.098  0.4115 -0.2690 -0.4773
   43MOL   C30521389   7.411   4.301   3.106 -0.1079 -0.2035 -0.2475
   43MOL   O30621390   7.334   4.288   3.010  0.2182 -0.2370 -0.3391
   43MOL   O30721391   7.462   4.416   3.156  0.2789 -0.2024  0.4729
   43MOL   C30821392   7.403   4.538   3.122 -0.0874  0.6193 -0.9650
   43MOL   C30921393   7.494   4.642   3.061 -0.3191 -0.1838 -0.1416
   43MOL   C31021394   7.445   4.716   2.952  0.7042  0.1850 -0.2299
   43MOL   C31121395   7.533   4.806   2.887 -0.1629 -0.6357 -0.2082
   43MOL   C31221396   7.664   4.828   2.945  0.2543 -0.4854 -0.0519
   43MOL   C31321397   7.707   4.764   3.059 -0.6679 -0.0796  0.3119
   43MOL   C31421398   7.626   4.667   3.115 -0.4631 -0.9032  0.3774
   43MOL   H31521399   7.673   4.283   3.161  0.8155 -0.3516  0.5597
   43MOL   H31621400   7.688   4.123   3.211  2.2055  1.4961  0.6241
   43MOL   H31721401   7.322   4.044   3.145  0.7538  1.8101  0.5792
   43MOL   H31821402   7.471   3.961   3.138  0.4414  0.9424  2.3505
   43MOL   H31921403   7.404   4.058   2.991 -1.7173 -0.6657 -0.1951
   43MOL   H32021404   7.318   4.512   3.059  0.8641 -1.5716 -1.3790
   43MOL   H32121405   7.357   4.567   3.216  0.9772  1.1261 -0.5934
   43MOL   H32221406   7.350   4.697   2.905  0.7273  0.5604 -0.4290
   43MOL   H32321407   7.503   4.849   2.793 -3.5659 -0.3381  0.9337
   43MOL   H32421408   7.737   4.893   2.899  0.6936 -2.3008 -2.0193
   43MOL   H32521409   7.804   4.795   3.095 -0.2602 -1.7340  0.6814
   43MOL   H32621410   7.657   4.601   3.194 -1.1145 -1.1099  0.4641
   43MOL   C32721411   7.474   4.170   3.324 -0.0878 -0.8534 -0.7927
   43MOL   C32821412   7.337   4.140   3.397  0.3645  0.8808  0.4088
   43MOL   C32921413   7.326   3.984   3.395  0.1467  0.1604 -0.7959
   43MOL   C33021414   7.206   4.208   3.336  0.0771 -0.1517  0.2871
   43MOL   O33121415   7.207   4.332   3.334  0.1566 -0.5561  0.4643
   43MOL   O33221416   7.103   4.125   3.302  0.0688  0.1255  0.3599
   43MOL   C33321417   6.974   4.176   3.263  0.3703  0.8965  0.3646
   43MOL   C33421418   6.968   4.188   3.113  0.2035  1.0903 -0.1013
   43MOL   C33521419   7.014   4.309   3.052 -0.3299  0.3282 -0.8742
   43MOL   C33621420   6.995   4.329   2.916  0.0368  0.5355  0.4171
   43MOL   C33721421   6.948   4.217   2.842  0.4624  0.3725  0.2690
   43MOL   C33821422   6.891   4.099   2.898 -0.6736 -0.5917 -0.0719
   43MOL   C33921423   6.909   4.090   3.037 -0.2060  0.5065 -0.2364
   43MOL   H34021424   7.519   4.258   3.371 -1.9478 -0.9175  1.2004
   43MOL   H34121425   7.537   4.087   3.356 -0.8186 -1.8421 -1.9042
   43MOL   H34221426   7.233   3.928   3.403  0.2908  0.0642  0.2108
   43MOL   H34321427   7.379   3.953   3.485 -0.5334 -0.5421 -0.6294
   43MOL   H34421428   7.380   3.931   3.316 -3.0971 -1.8791 -1.7410
   43MOL   H34521429   6.893   4.108   3.287 -0.3569  2.3381  2.0891
   43MOL   H34621430   6.953   4.276   3.301 -0.3541  0.7159  0.4330
   43MOL   H34721431   7.049   4.383   3.122  1.4131 -1.0828 -0.2024
   43MOL   H34821432   7.014   4.419   2.860 -2.2451  0.0603 -1.2016
   43MOL   H34921433   6.943   4.234   2.736 -0.0578  2.8697  0.6679
   43MOL   H35021434   6.855   4.024   2.829 -2.8912  0.9632 -0.6653
   43MOL   H35121435   6.885   4.000   3.093  0.3833  0.3264 -0.2727
   43MOL   C35221436   7.348   4.192   3.545  0.4326 -0.3132 -0.0905
   43MOL   C35321437   7.234   4.172   3.654  0.4333 -0.1480 -0.9077
   43MOL   C35421438   7.167   4.036   3.645 -0.5065 -0.5503  0.0150
   43MOL   C35521439   7.119   4.279   3.638  0.1199  0.2692  0.5108
   43MOL   O35621440   6.996   4.250   3.613 -0.2217 -0.1244  0.0011
   43MOL   O35721441   7.166   4.402   3.639 -0.5643  0.0742 -0.0180
   43MOL   C35821442   7.083   4.516   3.664 -0.0086 -0.4893 -0.0114
   43MOL   C35921443   6.990   4.547   3.550 -0.3744 -0.5476  0.1165
   43MOL   C36021444   7.051   4.595   3.432  0.8154 -0.0901 -0.1540
   43MOL   C36121445   6.979   4.608   3.313  0.1720 -0.0164  0.1878
   43MOL   C36221446   6.838   4.581   3.324  0.1922 -0.5509 -0.0322
   43MOL   C36321447   6.775   4.547   3.442 -0.2736 -0.3979 -0.3681
   43MOL   C36421448   6.855   4.524   3.557  0.2812  0.2066 -0.3501
   43MOL   H36521449   7.366   4.298   3.530 -0.0376 -0.2634 -0.2936
   43MOL   H36621450   7.436   4.142   3.587  1.2921  0.2333 -1.1845
   43MOL   H36721451   7.093   4.019   3.567  0.1307 -3.4360 -0.0185
   43MOL   H36821452   7.101   4.019   3.730  1.5519 -0.9763  1.5660
   43MOL   H36921453   7.232   3.949   3.643 -0.7360 -0.6983 -1.0229
   43MOL   H37021454   7.032   4.490   3.757  1.0526 -0.5266  0.5633
   43MOL   H37121455   7.143   4.605   3.685 -1.0955  0.5076 -1.1072
   43MOL   H37221456   7.159   4.609   3.432  1.1438 -2.3633 -0.3040
   43MOL   H37321457   7.040   4.639   3.229  0.5190  1.2102  0.8895
   43MOL   H37421458   6.783   4.588   3.231  2.9102 -2.2040 -1.8170
   43MOL   H37521459   6.670   4.520   3.444 -0.7372  1.3902  0.3130
   43MOL   H37621460   6.808   4.483   3.646  2.1083  2.2103  1.6216
   43MOL   C37721461   7.292   4.188   3.803 -0.3280  0.2599  0.1955
   43MOL   C37821462   7.371   4.073   3.882  0.5568  0.1807 -0.0185
   43MOL   C37921463   7.479   4.011   3.793 -0.6105 -0.0915  0.1372
   43MOL   C38021464   7.277   3.961   3.937 -1.0286 -0.2385  0.3489
   43MOL   O38121465   7.302   3.845   3.922 -0.3404  0.0332  0.2827
   43MOL   O38221466   7.166   4.014   3.993  0.4729 -0.2473  0.3734
   43MOL   C38321467   7.049   3.935   4.026 -0.4024  0.0754  0.4074
   43MOL   C38421468   6.929   4.015   3.982 -0.0677  0.3820 -0.1706
   43MOL   C38521469   6.820   3.951   3.914 -0.7270 -0.2612  0.0696
   43MOL   C38621470   6.719   4.023   3.856  0.0615  0.2216  0.2514
   43MOL   C38721471   6.723   4.163   3.868  0.1204  0.2567  0.2043
   43MOL   C38821472   6.829   4.227   3.934  0.4151 -0.5430  0.2801
   43MOL   C38921473   6.929   4.151   3.998 -0.0567 -0.3150  0.1241
   43MOL   H39021474   7.210   4.215   3.869 -1.2917 -2.0158 -0.0085
   43MOL   H39121475   7.357   4.275   3.797 -1.5968  1.1521 -1.3429
   43MOL   H39221476   7.534   3.934   3.846  1.2835  1.8592  1.0378
   43MOL   H39321477   7.549   4.087   3.760  0.4107 -1.1786 -0.2176
   43MOL   H39421478   7.441   3.952   3.709 -1.1475  0.6648 -0.1558
   43MOL   H39521479   7.054   3.835   3.984  2.3310 -0.3314  1.5863
   43MOL   H39621480   7.058   3.921   4.134 -0.8484 -2.2241  0.1581
   43MOL   H39721481   6.819   3.844   3.900  0.7714 -0.1257 -1.1274
   43MOL   H39821482   6.641   3.982   3.795 -0.0964  0.2929  0.4068
   43MOL   H39921483   6.659   4.226   3.808 -1.0722 -1.6634 -0.5859
   43MOL   H40021484   6.819   4.334   3.947  0.5077 -0.5455  0.3788
   43MOL   H40121485   6.999   4.207   4.058  0.3576  1.6529 -2.0774
   43MOL   C40221486   7.437   4.158   3.997 -0.2582  0.7193 -0.3117
   43MOL   C40321487   7.502   4.095   4.131 -0.1449 -0.1216 -0.4485
   43MOL   C40421488   7.585   3.974   4.102 -0.2394  0.3135  0.5474
   43MOL   C40521489   7.393   4.066   4.235 -0.1008  1.0866 -0.1977
   43MOL   O40621490   7.283   4.111   4.232 -0.4547  0.7219  0.5578
   43MOL   O40721491   7.433   3.974   4.329 -0.4749 -0.3407 -0.4879
   43MOL   C40821492   7.345   3.946   4.434 -0.4613 -0.0339 -0.3900
   43MOL   C40921493   7.349   4.057   4.541 -0.6829  0.6066 -0.5022
   43MOL   C41021494   7.234   4.131   4.567  0.1854  0.0509 -0.4302
   43MOL   C41121495   7.241   4.229   4.668 -0.7529  0.3054  0.2429
   43MOL   C41221496   7.363   4.257   4.733 -0.0550  0.1888  0.1327
   43MOL   C41321497   7.471   4.176   4.707  0.2472  0.4714  0.5764
   43MOL   C41421498   7.469   4.071   4.614 -1.1837 -0.4593 -0.8410
   43MOL   H41521499   7.360   4.229   4.026 -0.4715  0.8515 -1.1938
   43MOL   H41621500   7.503   4.227   3.945  1.7274 -0.2477  0.8506
   43MOL   H41721501   7.649   3.945   4.185 -2.0863 -3.3511  0.7980
   43MOL   H41821502   7.652   3.998   4.019  0.3032  1.1545  1.2173
   43MOL   H41921503   7.530   3.889   4.061  2.8698 -0.5536 -2.0135
   43MOL   H42021504   7.240   3.931   4.409 -0.3454  1.0265 -1.5377
   43MOL   H42121505   7.374   3.849   4.475 -2.5306 -0.3177  0.4949
   43MOL   H42221506   7.144   4.107   4.512  0.5210 -0.7209 -0.6593
   43MOL   H42321507   7.158   4.295   4.691  0.2766  3.3235 -3.8670
   43MOL   H42421508   7.374   4.329   4.813 -1.6243  1.6848 -0.9448
   43MOL   H42521509   7.560   4.180   4.768 -0.0001 -0.8059  1.0436
   43MOL   H42621510   7.561   4.016   4.600 -1.0290 -0.6669  0.9187
   43MOL   C42721511   7.605   4.196   4.189 -0.1311 -0.2064  0.3450
   43MOL   C42821512   7.577   4.338   4.248  1.1873  0.6977  0.0673
   43MOL   C42921513   7.524   4.327   4.394 -0.5464  0.3024 -0.1171
   43MOL   C43021514   7.487   4.432   4.158 -0.6200  0.3765 -0.0809
   43MOL   O43121515   7.376   4.466   4.196 -0.1791 -0.6116 -0.0973
   43MOL   O43221516   7.542   4.462   4.034  0.5986 -0.8448 -0.3302
   43MOL   C43321517   7.456   4.518   3.932 -0.0018 -0.2090  0.1447
   43MOL   C43421518   7.520   4.522   3.791 -0.5324 -0.2217  0.5189
   43MOL   C43521519   7.439   4.572   3.689 -0.6490  0.2501  0.5379
   43MOL   C43621520   7.485   4.559   3.554 -0.1304  0.0984 -0.1180
   43MOL   C43721521   7.607   4.504   3.532  0.2678  0.1439  0.4409
   43MOL   C43821522   7.685   4.451   3.636 -0.1862  0.2181  0.3856
   43MOL   C43921523   7.644   4.462   3.768 -0.8413 -0.3833 -0.5552
   43MOL   H44021524   7.676   4.209   4.108  0.5237  0.5166  1.0179
   43MOL   H44121525   7.635   4.145   4.280  1.1269 -0.0814  0.0064
   43MOL   H44221526   7.583   4.259   4.455 -3.0107 -1.6932  0.1395
   43MOL   H44321527   7.423   4.288   4.396 -0.1320 -0.8515 -1.3069
   43MOL   H44421528   7.518   4.422   4.448  4.2472 -0.4735  2.0530
   43MOL   H44521529   7.355   4.476   3.930  0.3255 -0.9792 -0.5318
   43MOL   H44621530   7.438   4.620   3.965 -2.9762 -0.8562  0.6495
   43MOL   H44721531   7.343   4.619   3.707  0.4383  1.3556  3.9025
   43MOL   H44821532   7.419   4.593   3.476  0.9495 -0.1285 -1.1433
   43MOL   H44921533   7.635   4.508   3.428 -2.2606  0.2487 -0.2806
   43MOL   H45021534   7.788   4.439   3.604 -0.7006  0.1652 -1.2869
   43MOL   H45121535   7.701   4.425   3.851 -0.4134  0.0307 -0.6639
   43MOL   C45221536   7.724   4.400   4.257 -0.6267 -0.1624 -0.9508
   43MOL   C45321537   7.770   4.528   4.330 -0.0180 -0.0623 -0.7716
   43MOL   C45421538   7.790   4.493   4.486  0.3579  0.1249  0.3507
   43MOL   C45521539   7.662   4.644   4.328  0.0551 -0.1317 -0.4304
   43MOL   O45621540   7.617   4.696   4.427 -0.4098 -0.7657  0.5244
   43MOL   O45721541   7.639   4.684   4.207  0.4801  0.6051  0.3064
   43MOL   C45821542   7.543   4.786   4.181  0.7490 -0.2590 -0.0591
   43MOL   C45921543   7.564   4.861   4.053 -0.2409 -0.2661 -0.2657
   43MOL   C46021544   7.681   4.838   3.970 -0.1933 -0.3442 -0.5570
   43MOL   C46121545   7.690   4.918   3.856  0.0582 -0.6240  0.3035
   43MOL   C46221546   7.599   5.023   3.837 -0.0186  0.1390 -0.7026
   43MOL   C46321547   7.493   5.047   3.924  0.4629 -0.0670 -0.8051
   43MOL   C46421548   7.478   4.970   4.037 -0.0720 -0.0211  0.2138
   43MOL   H46521549   7.748   4.409   4.152 -0.4013 -0.4567 -0.9283
   43MOL   H46621550   7.793   4.322   4.289  1.7195  2.0200 -0.5415
   43MOL   H46721551   7.864   4.555   4.537  2.0073 -0.1952 -1.5850
   43MOL   H46821552   7.828   4.391   4.486  0.9291  0.3098 -1.8347
   43MOL   H46921553   7.693   4.498   4.536  1.0013  0.4419  1.5943
   43MOL   H47021554   7.446   4.737   4.183  1.3720 -1.5150  0.4178
   43MOL   H47121555   7.544   4.856   4.264 -1.5331 -1.2246  0.8332
   43MOL   H47221556   7.753   4.762   3.997  2.2937  1.9266 -0.4760
   43MOL   H47321557   7.770   4.891   3.789  1.3227 -2.7063  2.5669
   43MOL   H47421558   7.617   5.094   3.757 -0.5128  0.1164 -0.8334
   43MOL   H47521559   7.424   5.125   3.894 -1.2864 -1.4492 -0.4914
   43MOL   H47621560   7.403   4.990   4.113  0.1123 -0.5452  0.5376
   43MOL   C47721561   7.904   4.572   4.259  0.0250  0.0604  0.2588
   43MOL   C47821562   0.002   4.468   4.202 -0.2479  0.1719  0.3095
   43MOL   C47921563   0.132   4.510   4.259 -0.2098 -0.0573 -0.0979
   43MOL   C48021564   0.001   4.467   4.048  0.2980 -0.7580 -0.1135
   43MOL   O48121565   7.952   4.376   3.982  0.2035  0.2688 -0.1180
   43MOL   O48221566   0.058   4.578   3.995 -0.7001 -0.8569  0.2046
   43MOL   C48321567   0.044   4.610   3.855 -0.1552  0.1962 -0.3723
   43MOL   C48421568   0.155   4.552   3.758 -0.2232  0.1064  0.1757
   43MOL   C48521569   0.273   4.627   3.738 -0.3434 -0.2203  0.0898
   43MOL   C48621570   0.373   4.575   3.652 -0.0122  0.5172 -0.3645
   43MOL   C48721571   0.354   4.447   3.593 -0.1494 -0.1857  0.1176
   43MOL   C48821572   0.244   4.369   3.623  0.4085 -0.5395  0.8599
   43MOL   C48921573   0.145   4.418   3.708 -0.2146 -0.3616 -0.0865
   43MOL   H49021574   7.953   4.637   4.331 -2.3649  1.1357  0.9691
   43MOL   H49121575   7.885   4.635   4.172  2.6740  0.0469 -0.3824
   43MOL   H49221576   0.213   4.446   4.223  1.3446  2.2898 -0.8230
   43MOL   H49321577   0.128   4.511   4.368  1.4173 -2.4592  0.0285
   43MOL   H49421578   0.151   4.612   4.227 -2.1492  0.2637 -0.2624
   43MOL   H49521579   7.957   4.577   3.812 -1.5921  2.9661  0.4801
   43MOL   H49621580   0.030   4.718   3.849 -0.1748  0.2167  0.0505
   43MOL   H49721581   0.276   4.730   3.771 -3.8461  0.0409 -0.2518
   43MOL   H49821582   0.463   4.629   3.627  1.2431 -1.3685  0.0162
   43MOL   H49921583   0.430   4.402   3.530  0.2754 -1.9772  1.8485
   43MOL   H50021584   0.233   4.266   3.592 -0.2315 -0.4992  0.9393
   43MOL   H50121585   0.063   4.352   3.729 -1.8456  0.3048 -3.9233
   43MOL   H50221586   7.982   4.370   4.242 -1.3355  0.1975 -0.3485
   44MOL     C121587   4.340   5.970   0.602 -0.4676 -0.3186  0.2475
   44MOL     C221588   4.352   5.993   0.750  0.4856 -1.4669  0.1344
   44MOL     C321589   4.463   5.896   0.804  0.1902 -0.2405  0.1005
   44MOL     C421590   4.215   5.967   0.811 -0.4208 -0.1069 -0.1765
   44MOL     O521591   4.199   5.870   0.881  0.0982  0.2461 -0.0763
   44MOL     O621592   4.125   6.057   0.791 -1.0704 -0.2504  1.0755
   44MOL     C721593   3.991   6.033   0.834  0.5692  0.0605  0.9305
   44MOL     C821594   3.890   6.136   0.787  0.4749  0.1283 -0.1310
   44MOL     C921595   3.771   6.094   0.720  0.1208  0.3053 -0.7331
   44MOL    C1021596   3.677   6.190   0.678  0.2488  0.2652 -0.4676
   44MOL    C1121597   3.691   6.323   0.719 -0.4013 -0.1316  0.0328
   44MOL    C1221598   3.804   6.364   0.795  0.4135 -0.2489  0.0458
   44MOL    C1321599   3.906   6.270   0.829  0.3208 -0.3458 -0.3095
   44MOL    H1421600   4.439   5.950   0.561 -0.0451 -1.0340  1.6167
   44MOL    H1521601   4.280   5.883   0.576 -0.2525 -0.1709 -0.7976
   44MOL    H1621602   4.452   5.877   0.911 -0.4671  0.8811  0.2295
   44MOL    H1721603   4.565   5.923   0.777  0.3382  0.4889  1.3868
   44MOL    H1821604   4.432   5.801   0.760 -0.8328 -0.5421  1.4588
   44MOL    H1921605   3.956   5.933   0.807  1.3853 -0.1274  0.5474
   44MOL    H2021606   3.991   6.034   0.943  1.1181 -2.0460  0.9752
   44MOL    H2121607   3.755   5.994   0.683 -0.6949  1.2784 -3.0696
   44MOL    H2221608   3.583   6.163   0.633 -1.9607  2.7670  2.4166
   44MOL    H2321609   3.620   6.400   0.694  0.0941  0.2505 -0.2123
   44MOL    H2421610   3.822   6.466   0.825 -2.8132  0.1455  0.8236
   44MOL    H2521611   3.991   6.311   0.882 -0.2306  0.0508  0.2876
   44MOL    H2621612   4.314   6.066   0.556 -0.3300  0.3412  1.5326
   44MOL    C2721613   4.401   6.141   0.780  0.0908 -0.2013  0.6821
   44MOL    C2821614   4.443   6.205   0.919 -0.1197 -0.2410  0.6454
   44MOL    C2921615   4.588   6.155   0.948 -0.4378 -0.5619 -0.2639
   44MOL    C3021616   4.357   6.151   1.039  0.2333 -0.1116 -0.7223
   44MOL    O3121617   4.401   6.065   1.122  0.4174 -0.2678  1.1267
   44MOL    O3221618   4.236   6.213   1.045  0.4346  0.1944 -0.1146
   44MOL    C3321619   4.148   6.182   1.147 -0.7310  0.4126 -0.0802
   44MOL    C3421620   4.033   6.278   1.146  0.1336  0.4958 -0.4855
   44MOL    C3521621   3.904   6.230   1.161  0.2114  0.3942  0.0710
   44MOL    C3621622   3.795   6.317   1.147 -0.1835 -0.6409 -0.4797
   44MOL    C3721623   3.815   6.455   1.121 -0.8968  0.0199 -0.3889
   44MOL    C3821624   3.947   6.505   1.112  0.1068 -0.1855 -0.2576
   44MOL    C3921625   4.055   6.416   1.129 -0.3526  0.1428 -0.6057
   44MOL    H4021626   4.330   6.207   0.730  0.9556  0.3027  0.1046
   44MOL    H4121627   4.478   6.158   0.705  0.1364  4.0508  1.5408
   44MOL    H4221628   4.589   6.050   0.977  0.6840 -0.2221  0.9725
   44MOL    H4321629   4.639   6.223   1.015  2.2318 -2.8142  0.0468
   44MOL    H4421630   4.647   6.167   0.857  0.6370 -0.6411  0.4163
   44MOL    H4521631   4.109   6.081   1.137 -0.0861  0.1079  0.4089
   44MOL    H4621632   4.185   6.190   1.249  1.2142  1.5317 -0.8317
   44MOL    H4721633   3.901   6.124   1.182 -2.1622  0.4865  0.3719
   44MOL    H4821634   3.693   6.281   1.151  1.1888 -4.5973  1.8748
   44MOL    H4921635   3.725   6.515   1.114  0.7384  2.7926  1.4824
   44MOL    H5021636   3.966   6.610   1.097  1.0467 -0.5628 -1.8354
   44MOL    H5121637   4.154   6.456   1.111  0.9341 -2.5929  0.1712
   44MOL    C5221638   4.449   6.363   0.922 -0.1684 -0.4753 -0.8245
   44MOL    C5321639   4.375   6.459   0.824 -0.3102  0.1621 -0.3578
   44MOL    C5421640   4.226   6.425   0.817  0.1307  0.1337 -0.1601
   44MOL    C5521641   4.440   6.450   0.684 -0.3017  0.3322  0.8615
   44MOL    O5621642   4.381   6.450   0.579 -0.1164 -0.2458 -0.5869
   44MOL    O5721643   4.570   6.433   0.686  0.2423 -0.4336 -0.0742
   44MOL    C5821644   4.641   6.413   0.568 -0.4722  1.1056 -0.2326
   44MOL    C5921645   4.646   6.265   0.527 -0.6118 -0.0323 -0.3176
   44MOL    C6021646   4.571   6.196   0.430  0.4463  0.5091  0.4750
   44MOL    C6121647   4.600   6.060   0.396  0.2929 -0.1390  0.3217
   44MOL    C6221648   4.699   5.993   0.472 -0.5369 -0.3323 -0.6017
   44MOL    C6321649   4.758   6.054   0.584  0.0296  0.0010 -0.1612
   44MOL    C6421650   4.740   6.196   0.600 -0.2062  0.1439  0.0462
   44MOL    H6521651   4.555   6.387   0.913 -0.0996  0.3199  1.6106
   44MOL    H6621652   4.440   6.402   1.024 -0.9097 -0.6739 -0.8102
   44MOL    H6721653   4.175   6.467   0.731  2.1359  1.5370 -0.6975
   44MOL    H6821654   4.187   6.470   0.908  0.0127 -0.3697  0.0402
   44MOL    H6921655   4.195   6.321   0.828 -2.5171  0.7594 -1.3299
   44MOL    H7021656   4.590   6.462   0.486  0.4854 -0.8078 -2.0040
   44MOL    H7121657   4.739   6.458   0.582  0.1565  0.2941 -1.9019
   44MOL    H7221658   4.506   6.251   0.364  1.8405 -0.0063 -1.3459
   44MOL    H7321659   4.546   6.012   0.316  1.3908  1.2367 -1.2779
   44MOL    H7421660   4.727   5.895   0.437 -0.5393 -1.2890  1.9788
   44MOL    H7521661   4.841   6.014   0.640 -0.5457 -0.7282  0.1791
   44MOL    H7621662   4.801   6.244   0.676  0.7270  2.3532 -2.0410
   44MOL    C7721663   4.410   6.605   0.879  1.2461  0.2147  0.1869
   44MOL    C7821664   4.363   6.739   0.806  0.6623  0.9747  0.3490
   44MOL    C7921665   4.208   6.738   0.785 -0.8634 -0.4793 -0.2845
   44MOL    C8021666   4.434   6.767   0.673  0.4171 -0.0783 -0.4570
   44MOL    O8121667   4.551   6.736   0.645  0.0995 -0.1825  0.0458
   44MOL    O8221668   4.355   6.844   0.588  0.5872 -0.1059 -0.2440
   44MOL    C8321669   4.422   6.936   0.505  0.4534 -0.3897 -0.2691
   44MOL    C8421670   4.418   7.079   0.554  0.2661  0.3989 -0.3991
   44MOL    C8521671   4.536   7.152   0.572  0.2600 -0.9949 -0.7596
   44MOL    C8621672   4.532   7.287   0.622 -0.2782 -0.3795 -0.2306
   44MOL    C8721673   4.409   7.339   0.659 -0.2051  0.5941 -0.4053
   44MOL    C8821674   4.291   7.267   0.640 -0.0150  0.6739  0.3495
   44MOL    C8921675   4.294   7.137   0.583 -0.1679 -0.0396 -0.5315
   44MOL    H9021676   4.519   6.603   0.884  1.2277  0.8476  0.8800
   44MOL    H9121677   4.386   6.614   0.985 -0.1369  0.5030 -0.1411
   44MOL    H9221678   4.182   6.663   0.711 -1.3241  0.8079 -1.4408
   44MOL    H9321679   4.163   6.835   0.765 -3.2090 -1.5492 -0.3681
   44MOL    H9421680   4.160   6.700   0.875  0.6198  0.7358  1.0563
   44MOL    H9521681   4.525   6.902   0.493  0.7051  0.3857 -0.3168
   44MOL    H9621682   4.360   6.931   0.415  0.9363 -0.8193 -0.5772
   44MOL    H9721683   4.625   7.093   0.556 -0.1173 -1.7019 -0.2121
   44MOL    H9821684   4.621   7.346   0.634 -1.0936  0.7111  0.4877
   44MOL    H9921685   4.410   7.438   0.702  0.6595 -0.0823  1.2262
   44MOL   H10021686   4.193   7.305   0.660 -1.1426 -1.4956 -0.8651
   44MOL   H10121687   4.206   7.077   0.565 -0.0521  0.4525 -2.8658
   44MOL   C10221688   4.384   6.861   0.897 -0.0898 -0.4247 -0.1002
   44MOL   C10321689   4.513   6.913   0.968 -0.3603  0.6374  0.2221
   44MOL   C10421690   4.550   6.798   1.080  0.5638  0.2519  0.4746
   44MOL   C10521691   4.466   7.041   1.043  0.9012  0.0048 -0.1738
   44MOL   O10621692   4.439   7.141   0.976  0.5795 -0.5242 -0.3853
   44MOL   O10721693   4.472   7.042   1.176  0.4966 -0.3389  0.2503
   44MOL   C10821694   4.483   7.169   1.246  0.3565  0.2087  0.0568
   44MOL   C10921695   4.608   7.174   1.333 -0.2570  0.1999 -0.0117
   44MOL   C11021696   4.635   7.062   1.425 -0.2908 -0.1619 -0.3331
   44MOL   C11121697   4.750   7.054   1.495  0.7959  0.8912 -0.3686
   44MOL   C11221698   4.835   7.167   1.497  0.5253 -0.1738  0.4624
   44MOL   C11321699   4.818   7.284   1.409  0.1956 -0.0386 -0.0854
   44MOL   C11421700   4.704   7.280   1.328 -0.5304 -0.3514  1.0872
   44MOL   H11521701   4.312   6.858   0.979  0.0015  0.3062  0.0139
   44MOL   H11621702   4.353   6.948   0.838  4.1040  2.2733  1.4400
   44MOL   H11721703   4.610   6.836   1.162  0.6087 -0.4075  0.7535
   44MOL   H11821704   4.610   6.729   1.020  1.9694  1.1973  0.7481
   44MOL   H11921705   4.469   6.757   1.140  1.0348 -0.4797  0.6197
   44MOL   H12021706   4.480   7.256   1.180 -1.7582 -0.0804 -0.2763
   44MOL   H12121707   4.397   7.182   1.312 -0.1619  1.5025 -0.8544
   44MOL   H12221708   4.567   6.978   1.429  2.7247 -2.7008 -0.6966
   44MOL   H12321709   4.773   6.972   1.561  0.5496  1.0655 -0.0675
   44MOL   H12421710   4.912   7.167   1.573  2.7869 -1.5730 -1.7434
   44MOL   H12521711   4.882   7.368   1.391  0.6509 -0.3822 -0.0787
   44MOL   H12621712   4.688   7.360   1.257 -0.2179  0.2457  1.6845
   44MOL   C12721713   4.627   6.958   0.875  0.2003 -0.4144  0.5697
   44MOL   C12821714   4.771   6.987   0.921  0.6807 -0.4589 -0.7304
   44MOL   C12921715   4.772   7.092   1.045 -0.0334 -0.3883 -0.3972
   44MOL   C13021716   4.845   7.072   0.808 -0.0690  0.3561  0.6626
   44MOL   O13121717   4.919   7.168   0.818  0.7150  0.5116 -0.1144
   44MOL   O13221718   4.841   7.006   0.686 -0.6162 -0.4242 -0.6493
   44MOL   C13321719   4.928   7.043   0.583  0.2697  0.8894 -0.1234
   44MOL   C13421720   4.877   7.140   0.478 -0.2376  0.1931  0.0429
   44MOL   C13521721   4.799   7.100   0.371  0.0486  0.0593  0.0199
   44MOL   C13621722   4.776   7.194   0.272  0.4158 -0.4093  0.1006
   44MOL   C13721723   4.802   7.332   0.288 -0.8045  0.5295 -0.2183
   44MOL   C13821724   4.870   7.375   0.404 -0.4168  0.2995 -0.2613
   44MOL   C13921725   4.906   7.276   0.501  0.8927  0.7680  0.2373
   44MOL   H14021726   4.592   7.046   0.821  1.0247  0.1101  0.8853
   44MOL   H14121727   4.647   6.887   0.795  1.0907 -0.8965  1.2104
   44MOL   H14221728   4.703   7.175   1.031  1.6589  1.1729  0.2961
   44MOL   H14321729   4.871   7.135   1.062 -0.2113 -1.5715  4.4739
   44MOL   H14421730   4.758   7.048   1.144  1.4496  1.4587  0.6709
   44MOL   H14521731   5.019   7.085   0.626  0.4463  1.6275 -1.1920
   44MOL   H14621732   4.944   6.954   0.522  1.6438 -0.1887  1.7628
   44MOL   H14721733   4.774   6.997   0.350 -1.0066  0.7196 -2.0400
   44MOL   H14821734   4.726   7.161   0.182  0.6570  1.7842 -0.8740
   44MOL   H14921735   4.766   7.398   0.210  1.7184  1.0157 -1.0130
   44MOL   H15021736   4.915   7.473   0.419 -1.8043  0.8933  0.0546
   44MOL   H15121737   4.964   7.305   0.587  0.9323  0.1547  0.4197
   44MOL   C15221738   4.843   6.854   0.953  0.1909  0.1044 -0.1875
   44MOL   C15321739   4.999   6.825   0.966 -0.1366 -0.9334 -0.0761
   44MOL   C15421740   5.078   6.951   1.019 -0.0580 -0.0940 -0.2115
   44MOL   C15521741   5.054   6.801   0.825 -0.2874 -0.5781  0.1735
   44MOL   O15621742   4.981   6.781   0.728  0.3062  0.9291 -0.2452
   44MOL   O15721743   5.189   6.799   0.813 -0.0583 -0.5534  0.3262
   44MOL   C15821744   5.240   6.793   0.680 -0.4739 -0.2460  0.3271
   44MOL   C15921745   5.388   6.801   0.676 -0.1834 -0.0373 -0.2454
   44MOL   C16021746   5.452   6.892   0.756 -0.5664 -0.0520 -0.3488
   44MOL   C16121747   5.595   6.892   0.753 -0.3282  0.4489  1.0222
   44MOL   C16221748   5.666   6.810   0.662 -0.7065  0.3695  0.4277
   44MOL   C16321749   5.598   6.722   0.574 -0.0583 -0.2971 -0.0150
   44MOL   C16421750   5.456   6.717   0.585  1.0451  0.3511  0.1351
   44MOL   H16521751   4.807   6.772   0.891  1.3039 -1.6851  1.4949
   44MOL   H16621752   4.806   6.835   1.054  1.5095 -0.3194  0.2336
   44MOL   H16721753   5.077   7.030   0.943  1.0741 -0.3050 -0.4630
   44MOL   H16821754   5.182   6.920   1.029  0.2511  0.3076 -2.0019
   44MOL   H16921755   5.032   6.993   1.109 -1.1082 -1.2336 -0.2129
   44MOL   H17021756   5.212   6.695   0.642 -0.3001 -0.7359  1.4482
   44MOL   H17121757   5.195   6.863   0.609  0.7568  0.2584  0.0256
   44MOL   H17221758   5.404   6.959   0.826  0.7202 -0.6457  1.1421
   44MOL   H17321759   5.654   6.947   0.824 -1.0623  1.7656  0.6241
   44MOL   H17421760   5.772   6.826   0.676 -0.9312  2.1600  0.2770
   44MOL   H17521761   5.654   6.656   0.508 -2.1399 -2.5408  0.4172
   44MOL   H17621762   5.393   6.654   0.525  2.1219  0.7385 -1.4440
   44MOL   C17721763   5.020   6.701   1.063  0.1600 -0.1584 -0.0373
   44MOL   C17821764   4.999   6.545   1.025 -0.5000  0.1259 -0.1913
   44MOL   C17921765   4.868   6.514   0.952  0.0176 -0.4932  0.0586
   44MOL   C18021766   4.975   6.462   1.155 -0.7036 -0.0487 -0.3882
   44MOL   O18121767   5.057   6.389   1.206 -0.5932 -0.0231 -0.4339
   44MOL   O18221768   4.851   6.473   1.204 -0.2402 -0.5381 -0.0678
   44MOL   C18321769   4.806   6.402   1.322 -0.5164 -0.0510  1.0697
   44MOL   C18421770   4.658   6.390   1.319 -0.3717  0.1067  0.2069
   44MOL   C18521771   4.588   6.272   1.344  0.4962  0.0191 -0.2930
   44MOL   C18621772   4.444   6.271   1.353  0.1305 -0.4451  0.5462
   44MOL   C18721773   4.373   6.389   1.328 -0.1162  0.5414  0.0741
   44MOL   C18821774   4.439   6.507   1.299  0.5242  0.0134 -0.4703
   44MOL   C18921775   4.581   6.506   1.294 -0.4942  0.4787 -0.1949
   44MOL   H19021776   4.953   6.719   1.147 -2.3091 -1.4429 -1.6615
   44MOL   H19121777   5.116   6.719   1.112  0.2002  1.2257 -0.6153
   44MOL   H19221778   4.779   6.567   0.988 -0.3181 -0.8545 -0.2378
   44MOL   H19321779   4.846   6.408   0.942  0.6151 -0.6300  0.2143
   44MOL   H19421780   4.876   6.549   0.849 -0.2624 -1.4559 -0.2935
   44MOL   H19521781   4.862   6.309   1.330 -2.0357 -1.1768 -1.1660
   44MOL   H19621782   4.839   6.466   1.405 -1.5100  2.9072 -0.7535
   44MOL   H19721783   4.640   6.182   1.375 -0.8251  0.2498  2.7507
   44MOL   H19821784   4.383   6.186   1.382  1.1299 -0.9637  1.1600
   44MOL   H19921785   4.269   6.373   1.303 -0.3057  1.4317  0.2642
   44MOL   H20021786   4.381   6.596   1.279 -1.1886 -1.1523 -0.8421
   44MOL   H20121787   4.628   6.603   1.284 -2.3130  1.3283 -0.7035
   44MOL   C20221788   5.128   6.500   0.940  0.5567 -0.2425  0.5945
   44MOL   C20321789   5.135   6.382   0.835 -0.0428 -0.3107 -0.1919
   44MOL   C20421790   5.062   6.417   0.707  0.2787 -0.1234 -0.7474
   44MOL   C20521791   5.083   6.248   0.890  0.3199 -0.3997 -0.0424
   44MOL   O20621792   4.988   6.187   0.840 -0.4999 -0.1266 -0.4201
   44MOL   O20721793   5.160   6.203   0.992 -0.0479  0.1465 -0.0506
   44MOL   C20821794   5.149   6.063   1.034 -0.1430 -0.9524 -0.0846
   44MOL   C20921795   5.051   6.046   1.148  0.1112  0.3269  0.1404
   44MOL   C21021796   4.920   6.000   1.127 -0.1660  0.1102  0.9846
   44MOL   C21121797   4.833   5.970   1.229  0.4911 -0.3274  0.2724
   44MOL   C21221798   4.873   5.990   1.368 -0.4528  0.5005  0.0543
   44MOL   C21321799   5.008   6.045   1.385  0.6025 -0.2529 -0.2260
   44MOL   C21421800   5.096   6.084   1.279 -0.3367  0.1339  0.3285
   44MOL   H21521801   5.202   6.477   1.017  2.0985  2.4631 -0.0072
   44MOL   H21621802   5.180   6.588   0.901 -1.9054  0.3175 -1.6278
   44MOL   H21721803   5.092   6.521   0.690 -2.0246  0.4967 -1.1968
   44MOL   H21821804   4.955   6.409   0.723  0.4017  0.1406  0.2745
   44MOL   H21921805   5.076   6.350   0.623 -0.8517 -0.0485 -1.0033
   44MOL   H22021806   5.138   5.989   0.956  1.1570 -0.0588 -1.1388
   44MOL   H22121807   5.249   6.040   1.071  0.3597  0.2227 -0.6647
   44MOL   H22221808   4.895   5.981   1.024  1.9942 -0.2591  0.5012
   44MOL   H22321809   4.743   5.916   1.207  0.6100 -0.1750 -0.6328
   44MOL   H22421810   4.819   5.967   1.459  0.6103 -1.2620  0.2486
   44MOL   H22521811   5.044   6.055   1.486  0.9719  0.3993 -0.4150
   44MOL   H22621812   5.198   6.117   1.294 -0.1847  0.2498 -0.9036
   44MOL   C22721813   5.289   6.372   0.798  0.3628 -0.0729 -0.1358
   44MOL   C22821814   5.361   6.251   0.727 -0.4582  0.5018 -0.0223
   44MOL   C22921815   5.273   6.188   0.607  0.0780 -0.4393 -0.4211
   44MOL   C23021816   5.395   6.144   0.818 -0.0484  0.2030 -0.4936
   44MOL   O23121817   5.346   6.032   0.811 -0.6218  0.7110 -0.0140
   44MOL   O23221818   5.491   6.179   0.909  0.0573 -0.1287 -0.3643
   44MOL   C23321819   5.547   6.080   0.992 -0.0508  0.5446  0.1940
   44MOL   C23421820   5.509   6.094   1.140 -0.1387 -0.4750  0.3733
   44MOL   C23521821   5.483   5.979   1.221 -0.1125  0.7383 -0.0399
   44MOL   C23621822   5.440   5.993   1.355 -0.1709 -0.4983  0.0238
   44MOL   C23721823   5.452   6.125   1.414  0.9036 -0.0107  0.1165
   44MOL   C23821824   5.469   6.240   1.332 -0.3763 -0.3080  0.2396
   44MOL   C23921825   5.501   6.225   1.196 -0.2328  0.3773  0.3297
   44MOL   H24021826   5.344   6.391   0.890  1.0102 -1.8473 -0.1339
   44MOL   H24121827   5.309   6.461   0.739  0.0518  1.3867  1.8988
   44MOL   H24221828   5.254   6.258   0.527 -1.3728 -1.2813 -0.8349
   44MOL   H24321829   5.176   6.161   0.650 -0.4737  0.0287 -1.3786
   44MOL   H24421830   5.301   6.086   0.578  0.2865 -0.1192 -1.3333
   44MOL   H24521831   5.524   5.976   0.968 -3.2263  1.1595  0.3685
   44MOL   H24621832   5.656   6.080   0.985 -0.0003  1.1087  0.9553
   44MOL   H24721833   5.498   5.879   1.183  0.7093  0.4648  0.9917
   44MOL   H24821834   5.418   5.910   1.420  0.1505 -0.0194  0.7594
   44MOL   H24921835   5.429   6.147   1.517  0.0013  0.6519 -0.2174
   44MOL   H25021836   5.475   6.340   1.373 -0.4708 -0.2413  0.0905
   44MOL   H25121837   5.508   6.313   1.133 -0.9304 -0.0336 -0.3330
   44MOL   C25221838   5.493   6.314   0.660 -0.5678  0.4255  0.5472
   44MOL   C25321839   5.574   6.249   0.540 -0.2547 -0.7508 -0.2742
   44MOL   C25421840   5.700   6.332   0.514 -0.6727 -0.4849  0.5326
   44MOL   C25521841   5.489   6.267   0.408  0.4927 -0.0880 -0.5050
   44MOL   O25621842   5.433   6.172   0.355  0.1791  0.3408  0.9398
   44MOL   O25721843   5.470   6.394   0.371 -1.1591 -0.2187 -0.7179
   44MOL   C25821844   5.399   6.432   0.259 -0.3696  0.1760  0.2699
   44MOL   C25921845   5.253   6.426   0.281 -0.6114  0.2905  0.5766
   44MOL   C26021846   5.181   6.305   0.258 -0.4138  0.2319 -0.2381
   44MOL   C26121847   5.044   6.306   0.285  0.0673  0.3360 -0.2057
   44MOL   C26221848   4.979   6.417   0.337  0.1506 -0.4744 -1.2851
   44MOL   C26321849   5.053   6.537   0.366  0.8332 -0.7012 -0.1822
   44MOL   C26421850   5.190   6.546   0.331 -0.2093 -0.1017  0.1644
   44MOL   H26521851   5.569   6.337   0.735  0.8431 -0.1109 -0.6909
   44MOL   H26621852   5.465   6.415   0.631  1.7064  0.7636 -0.5947
   44MOL   H26721853   5.769   6.333   0.599 -0.8149 -0.5809  0.6484
   44MOL   H26821854   5.667   6.434   0.495  1.1650 -0.1876 -1.2235
   44MOL   H26921855   5.748   6.291   0.425  0.0223  0.0959  0.6263
   44MOL   H27021856   5.420   6.538   0.244  0.6536  0.0410  0.7226
   44MOL   H27121857   5.439   6.385   0.169  2.1392  1.6357  0.5802
   44MOL   H27221858   5.223   6.214   0.218  2.5180  1.9736 -1.2849
   44MOL   H27321859   4.983   6.218   0.275 -0.7723  0.9079 -0.1284
   44MOL   H27421860   4.872   6.408   0.350  0.3304 -0.7046  0.0840
   44MOL   H27521861   5.011   6.626   0.408 -0.0053 -0.6769 -1.0341
   44MOL   H27621862   5.245   6.637   0.344 -0.0499 -0.0192 -1.0465
   44MOL   C27721863   5.605   6.103   0.562 -0.0452  0.3648 -0.7094
   44MOL   C27821864   5.704   6.014   0.480 -0.4803  0.8752 -0.2159
   44MOL   C27921865   5.851   6.041   0.531  0.2118  0.4168 -0.4390
   44MOL   C28021866   5.714   6.021   0.323 -0.0862 -0.1302 -0.0210
   44MOL   O28121867   5.821   6.056   0.258  0.0963 -1.0108 -0.1805
   44MOL   O28221868   5.611   5.978   0.261  0.0222  0.1128 -0.2442
   44MOL   C28321869   5.624   5.936   0.123  0.0460  0.3010  0.2710
   44MOL   C28421870   5.568   6.041   0.020  0.1861  0.0942  0.4309
   44MOL   C28521871   5.656   6.103   7.931 -0.4824  0.2698 -0.8877
   44MOL   C28621872   5.603   6.203   7.844 -0.7618 -0.2291 -0.1352
   44MOL   C28721873   5.464   6.213   7.835  0.4201  0.6548 -0.3513
   44MOL   C28821874   5.379   6.154   7.931 -0.0068 -0.0278 -0.0337
   44MOL   C28921875   5.428   6.060   0.010  0.0038 -0.6618  0.7099
   44MOL   H29021876   5.512   6.051   0.583  0.8931  0.0449  3.0055
   44MOL   H29121877   5.648   6.100   0.662  1.4149 -2.3740 -1.3756
   44MOL   H29221878   5.890   6.126   0.475 -2.3217  1.5847 -0.4694
   44MOL   H29321879   5.921   5.960   0.508  1.1853  0.2138  2.9499
   44MOL   H29421880   5.863   6.064   0.636 -0.3241  0.9228 -0.4878
   44MOL   H29521881   5.727   5.923   0.088  0.2259 -2.1828  1.6570
   44MOL   H29621882   5.584   5.835   0.116 -0.4808  0.3581  2.2977
   44MOL   H29721883   5.758   6.069   7.937 -1.2429 -2.1476 -0.9682
   44MOL   H29821884   5.660   6.252   7.766 -0.2091 -0.9501 -0.2009
   44MOL   H29921885   5.408   6.272   7.764 -0.8524  1.1656  1.0512
   44MOL   H30021886   5.273   6.169   7.937  0.0687 -0.1176  1.6725
   44MOL   H30121887   5.372   5.998   0.079 -2.0022  2.1964  1.7237
   44MOL   C30221888   5.675   5.867   0.537  0.4103  0.8539 -0.4114
   44MOL   C30321889   5.715   5.726   0.483  0.5149  0.6585 -0.8148
   44MOL   C30421890   5.860   5.733   0.427 -0.3252 -0.1352 -0.0036
   44MOL   C30521891   5.623   5.691   0.367  0.4025 -0.3467 -0.2609
   44MOL   O30621892   5.675   5.663   0.256 -0.4643  0.2534  0.4640
   44MOL   O30721893   5.498   5.674   0.397 -0.4401 -0.9064 -0.3397
   44MOL   C30821894   5.402   5.668   0.296  0.4530  0.2651  0.0365
   44MOL   C30921895   5.270   5.725   0.348  0.0602  0.1181  0.0991
   44MOL   C31021896   5.252   5.865   0.354 -0.3030  0.2919  0.3611
   44MOL   C31121897   5.137   5.920   0.413 -0.5720 -0.0474 -0.4944
   44MOL   C31221898   5.030   5.831   0.447  0.2708 -0.6472 -0.2667
   44MOL   C31321899   5.048   5.691   0.430  0.2295 -0.1432  0.5182
   44MOL   C31421900   5.167   5.637   0.385 -0.4966  0.0923 -0.0886
   44MOL   H31521901   5.569   5.855   0.555  0.8748 -0.8956  1.4134
   44MOL   H31621902   5.720   5.861   0.637  1.9574  0.1513 -1.1239
   44MOL   H31721903   5.938   5.758   0.499 -0.3055  0.1001 -0.1053
   44MOL   H31821904   5.876   5.795   0.338  1.1204  0.0620  0.3763
   44MOL   H31921905   5.895   5.635   0.395  1.2179  0.5990 -0.6208
   44MOL   H32021906   5.437   5.737   0.219  3.0226  1.0067  1.7714
   44MOL   H32121907   5.381   5.567   0.260  2.8957 -0.1375 -0.3907
   44MOL   H32221908   5.333   5.929   0.323 -0.1709 -1.1405 -2.4040
   44MOL   H32321909   5.124   6.026   0.421 -0.2966 -0.1893  2.0169
   44MOL   H32421910   4.932   5.865   0.480  0.4938 -2.5595  2.4819
   44MOL   H32521911   4.966   5.621   0.438 -1.8085  2.0784 -0.1618
   44MOL   H32621912   5.181   5.530   0.378 -0.2427  0.3156 -4.6420
   44MOL   C32721913   5.701   5.609   0.588 -0.1866 -0.8524 -0.8104
   44MOL   C32821914   5.803   5.563   0.687 -0.9544  0.2078 -0.2051
   44MOL   C32921915   5.851   5.684   0.768 -0.4566 -0.2918 -0.0735
   44MOL   C33021916   5.926   5.494   0.620  0.4288  0.2924 -0.3500
   44MOL   O33121917   6.036   5.538   0.642  0.6913  0.4750 -0.1900
   44MOL   O33221918   5.898   5.394   0.528  0.5626  0.6175  1.0265
   44MOL   C33321919   6.003   5.325   0.460  0.6889 -0.2860 -0.1605
   44MOL   C33421920   5.972   5.181   0.432 -0.1921 -0.1813  0.3890
   44MOL   C33521921   6.027   5.076   0.520  0.2843 -0.3991  0.1508
   44MOL   C33621922   6.006   4.940   0.484  0.3603  0.4026  0.4283
   44MOL   C33721923   5.935   4.911   0.362 -1.2466  0.3539 -0.1818
   44MOL   C33821924   5.880   5.011   0.276  0.1740 -0.3496  0.1978
   44MOL   C33921925   5.897   5.149   0.312  0.4131  0.0444 -0.4563
   44MOL   H34021926   5.681   5.512   0.543  0.9730 -3.5770  4.2139
   44MOL   H34121927   5.610   5.626   0.646  0.5579  0.5567 -0.0313
   44MOL   H34221928   5.763   5.739   0.802  0.7598 -0.3493  3.3794
   44MOL   H34321929   5.909   5.746   0.700  0.0609 -0.5741  0.1099
   44MOL   H34421930   5.920   5.662   0.849  1.6638 -0.2197 -1.8178
   44MOL   H34521931   6.007   5.377   0.365 -1.5550  1.6144  0.7533
   44MOL   H34621932   6.104   5.325   0.500  0.1570 -0.2437  1.2185
   44MOL   H34721933   6.082   5.102   0.609  0.4743  0.1371 -0.1160
   44MOL   H34821934   6.030   4.860   0.552 -0.5000  0.5250  0.8744
   44MOL   H34921935   5.921   4.806   0.343  1.6031 -0.0754 -0.0758
   44MOL   H35021936   5.817   4.984   0.192 -0.6182 -2.1484  1.3437
   44MOL   H35121937   5.866   5.223   0.240 -1.5961 -1.0036 -0.7275
   44MOL   C35221938   5.731   5.478   0.796  0.5172 -0.5132 -0.1274
   44MOL   C35321939   5.792   5.372   0.892  0.0633  0.2547  0.2179
   44MOL   C35421940   5.929   5.416   0.948  0.5485 -0.2259  0.1314
   44MOL   C35521941   5.815   5.248   0.807 -0.2206 -0.5427 -0.1397
   44MOL   O35621942   5.926   5.203   0.778 -0.4325 -0.0639  0.3613
   44MOL   O35721943   5.701   5.176   0.779 -0.7619  0.1452  0.0566
   44MOL   C35821944   5.709   5.059   0.697  0.5164  0.1717 -0.0635
   44MOL   C35921945   5.595   4.965   0.726  0.0526 -0.2332  0.2096
   44MOL   C36021946   5.602   4.823   0.713  0.9701 -0.0462 -0.1956
   44MOL   C36121947   5.491   4.743   0.747  0.0189  0.0431  0.5687
   44MOL   C36221948   5.375   4.805   0.788  0.1373 -0.2675  0.4546
   44MOL   C36321949   5.363   4.941   0.796 -0.4865  0.7815 -0.6280
   44MOL   C36421950   5.471   5.026   0.770  0.9036 -0.1471  0.0324
   44MOL   H36521951   5.637   5.437   0.758 -0.1263  0.8167 -0.0026
   44MOL   H36621952   5.686   5.560   0.853 -0.4952  0.6848 -2.5804
   44MOL   H36721953   5.929   5.501   1.017  1.4082  1.5326 -1.9663
   44MOL   H36821954   5.998   5.448   0.870 -0.3425  0.3765 -0.4195
   44MOL   H36921955   5.975   5.332   1.000  2.2830  0.7261  0.1972
   44MOL   H37021956   5.704   5.096   0.595 -0.6939  0.1170 -0.0298
   44MOL   H37121957   5.809   5.017   0.686  0.8507  0.8147  0.5179
   44MOL   H37221958   5.694   4.782   0.676  1.4491  0.7856  0.0599
   44MOL   H37321959   5.499   4.637   0.732  0.3726  0.3151 -1.4204
   44MOL   H37421960   5.287   4.747   0.811 -0.8560  0.4389 -1.4627
   44MOL   H37521961   5.268   4.981   0.830 -0.3917 -1.2898  2.1599
   44MOL   H37621962   5.461   5.133   0.776 -0.5331 -0.2894  0.4742
   44MOL   C37721963   5.705   5.349   1.017 -0.3270 -0.0237  0.2668
   44MOL   C37821964   5.734   5.260   1.147 -1.3381  0.2871  0.4787
   44MOL   C37921965   5.847   5.315   1.236  0.5376 -0.0370  1.0236
   44MOL   C38021966   5.773   5.110   1.105 -0.1641 -0.0962 -0.3182
   44MOL   O38121967   5.696   5.013   1.116 -0.2934  0.3619  0.3180
   44MOL   O38221968   5.902   5.103   1.069 -0.0263  0.4192  0.0420
   44MOL   C38321969   5.961   4.988   1.012  0.1004  0.4272  0.3721
   44MOL   C38421970   6.107   4.980   1.040  0.2378 -0.0649 -0.5007
   44MOL   C38521971   6.166   5.053   1.150  0.7569  0.0288  0.0622
   44MOL   C38621972   6.308   5.044   1.176  0.4244  0.0592  0.0584
   44MOL   C38721973   6.389   4.957   1.101  0.2263 -0.1224 -0.2000
   44MOL   C38821974   6.328   4.885   1.000 -0.4351 -1.1681  0.6796
   44MOL   C38921975   6.187   4.895   0.963 -0.6139  0.5881  0.9033
   44MOL   H39021976   5.611   5.312   0.977 -1.3902  0.9322  1.8380
   44MOL   H39121977   5.686   5.450   1.054 -1.7233  0.8290 -2.6251
   44MOL   H39221978   5.947   5.302   1.193 -0.2443  0.5127 -1.0220
   44MOL   H39321979   5.845   5.259   1.329 -1.4219  0.7522  1.4704
   44MOL   H39421980   5.850   5.422   1.259  3.0921  0.2808 -0.5215
   44MOL   H39521981   5.930   4.894   1.058  0.3096 -1.1041 -2.5307
   44MOL   H39621982   5.957   5.000   0.904  0.1085 -0.9742  0.2096
   44MOL   H39721983   6.105   5.123   1.204  1.7573  1.1880 -0.2805
   44MOL   H39821984   6.355   5.102   1.254  1.3915  1.5181 -1.5901
   44MOL   H39921985   6.494   4.944   1.124  0.4572  2.8152  0.5714
   44MOL   H40021986   6.394   4.824   0.941 -0.9975 -0.1253 -1.1120
   44MOL   H40121987   6.143   4.831   0.888  1.7535  0.2515 -0.2662
   44MOL   C40221988   5.598   5.247   1.226  0.4157  0.5219 -0.6190
   44MOL   C40321989   5.518   5.368   1.286 -0.3099  0.7574  0.5617
   44MOL   C40421990   5.421   5.436   1.178 -0.1556  0.7885 -0.4382
   44MOL   C40521991   5.614   5.475   1.348  0.0121 -0.0072 -0.0154
   44MOL   O40621992   5.625   5.588   1.291 -0.3174 -0.1095  0.1475
   44MOL   O40721993   5.668   5.438   1.467 -0.1210  0.6913  0.2873
   44MOL   C40821994   5.753   5.526   1.533 -0.3345  0.1849 -0.0373
   44MOL   C40921995   5.801   5.467   1.663 -0.6309  0.7778  0.4343
   44MOL   C41021996   5.936   5.453   1.680 -0.2525  0.2239  0.1190
   44MOL   C41121997   5.996   5.404   1.795 -0.0212 -0.2742  0.5718
   44MOL   C41221998   5.914   5.366   1.903  0.0846 -0.3394 -0.5640
   44MOL   C41321999   5.774   5.386   1.891  0.2790 -0.2925 -0.0479
   44MOL   C41422000   5.720   5.436   1.772  0.0926 -0.0464 -0.4568
   44MOL   H41522001   5.621   5.184   1.312 -0.3176  0.5094 -0.4314
   44MOL   H41622002   5.538   5.184   1.160 -0.5106 -0.4106  1.0734
   44MOL   H41722003   5.361   5.365   1.121  0.0273  1.1910 -1.1335
   44MOL   H41822004   5.473   5.501   1.108  0.7442 -0.2400 -0.7334
   44MOL   H41922005   5.362   5.508   1.235 -1.0450 -0.9279  0.8833
   44MOL   H42022006   5.827   5.561   1.461 -0.7318  0.5134 -0.2838
   44MOL   H42122007   5.702   5.620   1.552  0.7226  0.7606 -0.0105
   44MOL   H42222008   6.003   5.492   1.605 -2.1921  1.1257 -1.1736
   44MOL   H42322009   6.104   5.399   1.805 -0.0820  0.2031  1.4600
   44MOL   H42422010   5.955   5.336   1.998 -0.6594  1.5835  0.4008
   44MOL   H42522011   5.713   5.357   1.975  3.0062 -1.4234  1.5856
   44MOL   H42622012   5.615   5.458   1.762 -0.2168 -1.0800  0.3841
   44MOL   C42722013   5.432   5.317   1.410  0.4853  0.2958 -0.7710
   44MOL   C42822014   5.297   5.229   1.403 -0.8289 -0.0183 -0.1048
   44MOL   C42922015   5.263   5.162   1.547 -0.2999  0.0771  0.3968
   44MOL   C43022016   5.322   5.113   1.299  0.0294  0.2522 -0.4439
   44MOL   O43122017   5.274   5.127   1.188  0.8613 -0.3394 -0.1361
   44MOL   O43222018   5.393   5.003   1.352  0.5120  0.7927  0.5137
   44MOL   C43322019   5.421   4.887   1.275 -0.3038  0.2406 -0.1166
   44MOL   C43422020   5.313   4.783   1.285 -0.7251 -0.1312 -0.1874
   44MOL   C43522021   5.224   4.785   1.396 -0.4667 -0.9080  0.9317
   44MOL   C43622022   5.123   4.691   1.401 -0.0964 -0.0984 -0.4377
   44MOL   C43722023   5.114   4.589   1.304 -0.0684 -0.5505 -0.1989
   44MOL   C43822024   5.213   4.580   1.199  0.0278 -0.5652 -0.2433
   44MOL   C43922025   5.300   4.687   1.187  0.6972  0.3264  0.3905
   44MOL   H44022026   5.407   5.405   1.469 -2.6267 -0.4525 -0.8553
   44MOL   H44122027   5.504   5.252   1.460  1.2910  0.3020 -1.9109
   44MOL   H44222028   5.258   5.235   1.627 -0.7626 -0.3609  0.7675
   44MOL   H44322029   5.329   5.081   1.575  1.4973 -0.1888 -4.0781
   44MOL   H44422030   5.161   5.122   1.548 -0.2859 -0.0081 -0.5427
   44MOL   H44522031   5.431   4.917   1.170  1.2721  2.0659  0.5203
   44MOL   H44622032   5.521   4.859   1.309  0.4478  0.7159 -1.8593
   44MOL   H44722033   5.225   4.859   1.474  1.6524 -2.1196  2.0967
   44MOL   H44822034   5.052   4.681   1.481  1.5993  0.4291  1.1688
   44MOL   H44922035   5.043   4.508   1.309  0.1335 -0.6789  0.6337
   44MOL   H45022036   5.211   4.502   1.124  0.9476  0.7109 -1.6103
   44MOL   H45122037   5.360   4.702   1.099 -1.0252 -1.3924 -1.1455
   44MOL   C45222038   5.170   5.315   1.362  0.0259 -0.1315  0.2579
   44MOL   C45322039   5.083   5.413   1.458 -0.8619 -1.1412 -0.6762
   44MOL   C45422040   4.996   5.344   1.566 -0.4984 -0.7574  0.3763
   44MOL   C45522041   4.992   5.499   1.365 -0.4848 -0.5546 -0.1154
   44MOL   O45622042   4.872   5.521   1.393 -0.0463 -0.1856 -0.3922
   44MOL   O45722043   5.057   5.556   1.260 -0.0521 -0.1210  0.6124
   44MOL   C45822044   4.990   5.642   1.182 -0.0670  0.0091  0.5266
   44MOL   C45922045   5.073   5.676   1.051  0.6786  0.1438  1.2228
   44MOL   C46022046   5.013   5.644   0.928  0.4792  1.0541  0.0647
   44MOL   C46122047   5.084   5.661   0.811  0.1409 -0.4469  0.4450
   44MOL   C46222048   5.217   5.708   0.809  0.9621  0.7576  0.4282
   44MOL   C46322049   5.275   5.744   0.928  0.7092 -0.4702 -0.4423
   44MOL   C46422050   5.203   5.730   1.047  0.5580  0.1992  0.2666
   44MOL   H46522051   5.101   5.233   1.342 -0.4252 -0.2072  2.0647
   44MOL   H46622052   5.187   5.358   1.263 -0.1693  0.6711  0.5679
   44MOL   H46722053   4.941   5.262   1.518  0.9732 -0.7784 -1.3048
   44MOL   H46822054   4.925   5.411   1.614  0.3552  0.8475 -0.5798
   44MOL   H46922055   5.046   5.293   1.648  1.3141  2.0554  1.0880
   44MOL   H47022056   4.896   5.600   1.148 -0.4296  0.0557  1.4740
   44MOL   H47122057   4.961   5.727   1.243 -2.3614 -0.6193  0.3515
   44MOL   H47222058   4.912   5.607   0.913 -0.1583  2.0721  1.7579
   44MOL   H47322059   5.036   5.627   0.721  1.8354 -2.2815  0.1969
   44MOL   H47422060   5.278   5.734   0.724 -0.4545  2.4799 -0.0941
   44MOL   H47522061   5.376   5.782   0.927  0.2961  0.6149 -1.0837
   44MOL   H47622062   5.242   5.757   1.144 -0.2482  2.1911  0.0677
   44MOL   C47722063   5.182   5.507   1.540  0.2415 -0.3464  0.2458
   44MOL   C47822064   5.121   5.609   1.638 -0.1080  0.3862 -0.2456
   44MOL   C47922065   5.192   5.749   1.638  0.2337 -0.3672 -0.0796
   44MOL   C48022066   5.106   5.556   1.782  0.5538 -0.1490 -0.1134
   44MOL   O48122067   4.992   5.548   1.833  0.3523  0.2416  0.9286
   44MOL   O48222068   5.215   5.509   1.831 -0.4783 -0.0430 -0.3479
   44MOL   C48322069   5.209   5.447   1.954 -0.0795  0.1222 -0.4815
   44MOL   C48422070   5.254   5.301   1.943  0.1200  0.2293 -0.3696
   44MOL   C48522071   5.391   5.269   1.964 -0.1601  0.0828 -0.1282
   44MOL   C48622072   5.434   5.139   1.950  0.4160 -0.1975 -0.1592
   44MOL   C48722073   5.343   5.038   1.911 -0.5691 -0.2141 -0.1932
   44MOL   C48822074   5.205   5.065   1.888 -0.5311  0.0970  0.2330
   44MOL   C48922075   5.165   5.198   1.896 -0.0043 -0.0008 -0.1637
   44MOL   H49022076   5.232   5.567   1.463  0.0662  0.8354  1.0390
   44MOL   H49122077   5.258   5.446   1.587  1.0461 -1.1971 -2.0711
   44MOL   H49222078   5.164   5.822   1.714 -2.3953 -1.3553 -0.0564
   44MOL   H49322079   5.175   5.798   1.542  0.5424 -0.8652 -0.3890
   44MOL   H49422080   5.299   5.746   1.658  0.4139  1.3793 -0.6909
   44MOL   H49522081   5.267   5.501   2.028 -2.9107  0.9459  1.2029
   44MOL   H49622082   5.110   5.437   1.999 -0.7634  0.2936 -1.9101
   44MOL   H49722083   5.458   5.347   1.995 -0.8172  0.4932  0.2782
   44MOL   H49822084   5.538   5.121   1.975  0.2865  0.8436  1.1540
   44MOL   H49922085   5.376   4.938   1.886  0.8021 -0.5887  2.9300
   44MOL   H50022086   5.143   4.983   1.854 -0.6039  0.2332  0.0371
   44MOL   H50122087   5.069   5.239   1.866 -0.1546 -0.5903 -0.4903
   44MOL   H50222088   5.017   5.618   1.604 -0.0516 -0.6099 -0.6838
   45MOL     C122089   7.571   1.622   1.254  0.4426 -0.2867  0.4001
   45MOL     C222090   7.515   1.762   1.208  0.4756 -0.0205 -0.2221
   45MOL     C322091   7.420   1.809   1.315  0.2940 -0.4299  0.4083
   45MOL     C422092   7.440   1.735   1.072 -0.5329 -0.0449  0.3948
   45MOL     O522093   7.319   1.733   1.065 -0.6201  0.7877  0.0776
   45MOL     O622094   7.521   1.682   0.978 -0.0353  0.0927  0.5621
   45MOL     C722095   7.469   1.649   0.858  0.5598 -0.1323 -0.7291
   45MOL     C822096   7.574   1.610   0.759 -0.0956  0.3730 -0.1184
   45MOL     C922097   7.630   1.476   0.763  0.0594 -0.0424  0.4238
   45MOL    C1022098   7.744   1.448   0.682 -0.0436  0.0212 -0.0155
   45MOL    C1122099   7.792   1.538   0.588  1.0814  0.0793 -0.0518
   45MOL    C1222100   7.731   1.664   0.588  0.8299 -0.1731  0.0697
   45MOL    C1322101   7.624   1.700   0.668  0.9094  0.4786  0.5873
   45MOL    H1422102   7.678   1.608   1.240  0.2466 -1.5014  0.0828
   45MOL    H1522103   7.554   1.610   1.361 -0.5807 -2.0185  0.0606
   45MOL    H1622104   7.371   1.906   1.299  0.4596 -0.4307 -0.1094
   45MOL    H1722105   7.468   1.817   1.412 -0.4122  3.1320  0.5384
   45MOL    H1822106   7.339   1.740   1.337  0.1843 -0.4155  0.0574
   45MOL    H1922107   7.413   1.559   0.881 -2.4475  1.4462 -1.5394
   45MOL    H2022108   7.397   1.724   0.826 -1.2047 -1.7763 -0.6898
   45MOL    H2122109   7.598   1.402   0.836 -3.4626  1.1045  0.1446
   45MOL    H2222110   7.783   1.348   0.679 -1.6284 -0.5988 -0.1868
   45MOL    H2322111   7.873   1.518   0.519  0.1176  0.8610 -1.4359
   45MOL    H2422112   7.758   1.749   0.527  0.7664 -0.7476 -0.7598
   45MOL    H2522113   7.591   1.802   0.660  0.0524  0.0430 -2.0603
   45MOL    H2622114   7.520   1.539   1.205 -1.4941  1.9164 -1.4303
   45MOL    C2722115   7.638   1.855   1.169  0.2949 -0.2056 -0.0520
   45MOL    C2822116   7.727   1.922   1.277 -0.1080  0.0836  0.2825
   45MOL    C2922117   7.755   1.822   1.391  0.6048 -0.1130  0.1569
   45MOL    C3022118   7.671   2.045   1.338  0.6121 -0.7800 -0.8838
   45MOL    O3122119   7.584   2.110   1.285  0.3687 -0.7073 -0.0213
   45MOL    O3222120   7.729   2.081   1.457 -0.0790  0.0623  0.1340
   45MOL    C3322121   7.681   2.198   1.521 -0.3361  0.6665  0.4930
   45MOL    C3422122   7.771   2.318   1.489 -0.5480  0.1713  0.7652
   45MOL    C3522123   7.732   2.451   1.512 -0.3730 -0.3729  0.2985
   45MOL    C3622124   7.809   2.565   1.480 -0.0562  0.6426  0.2668
   45MOL    C3722125   7.935   2.542   1.419  0.2461 -0.1879 -0.7446
   45MOL    C3822126   7.979   2.412   1.396 -0.3778  1.3976 -0.0074
   45MOL    C3922127   7.901   2.304   1.425  0.3413  0.2413  0.2823
   45MOL    H4022128   7.602   1.941   1.112 -0.6825 -0.9527 -0.5774
   45MOL    H4122129   7.701   1.805   1.095  0.9435  2.7427 -1.5672
   45MOL    H4222130   7.669   1.802   1.454  0.0598  1.3683 -0.1099
   45MOL    H4322131   7.827   1.860   1.464 -0.9414 -2.4266  3.0035
   45MOL    H4422132   7.786   1.722   1.360  0.9997 -0.3224  1.1981
   45MOL    H4522133   7.579   2.210   1.484 -0.2197 -0.1071 -0.1040
   45MOL    H4622134   7.668   2.188   1.629 -0.4353 -0.8145  0.3572
   45MOL    H4722135   7.626   2.463   1.533 -1.2627 -4.7328 -1.0640
   45MOL    H4822136   7.774   2.666   1.495 -3.0979 -0.1908 -0.7989
   45MOL    H4922137   7.993   2.626   1.385  0.5442 -1.1752 -2.7243
   45MOL    H5022138   0.072   2.400   1.357  0.6720  4.1880  1.6101
   45MOL    H5122139   7.960   2.214   1.416  0.6604  0.3502  1.2502
   45MOL    C5222140   7.875   1.938   1.226 -1.0819  0.5045  0.9183
   45MOL    C5322141   7.919   2.015   1.092 -0.9797  0.2393 -0.1624
   45MOL    C5422142   7.845   2.146   1.081  0.6070 -0.0264  0.6353
   45MOL    C5522143   7.907   1.932   0.968 -0.2785  0.3094  0.3155
   45MOL    O5622144   7.876   1.986   0.858 -0.1639  0.0191  0.6372
   45MOL    O5722145   7.937   1.800   0.998 -0.1183  0.1090 -0.3896
   45MOL    C5822146   7.931   1.700   0.900  0.0159 -0.2689 -0.0913
   45MOL    C5922147   0.053   1.661   0.841  0.4069  0.0340  0.3481
   45MOL    C6022148   0.109   1.728   0.727  0.0765  0.5118  0.1933
   45MOL    C6122149   0.235   1.696   0.685 -0.5424 -0.1443 -0.3343
   45MOL    C6222150   0.298   1.577   0.730 -0.7107  0.1814  0.2573
   45MOL    C6322151   0.240   1.498   0.834  0.5811 -0.3366 -0.1051
   45MOL    C6422152   0.117   1.543   0.885 -0.0219  0.1305 -0.0597
   45MOL    H6522153   7.910   1.835   1.226 -0.8251  0.5906  1.0687
   45MOL    H6622154   7.932   1.993   1.301 -1.5937  0.9757  0.9693
   45MOL    H6722155   7.739   2.132   1.062  0.7468 -1.1379  0.6372
   45MOL    H6822156   7.882   2.212   1.002 -1.8719  1.5009  0.7252
   45MOL    H6922157   7.860   2.194   1.177  0.3992  0.2995  0.5046
   45MOL    H7022158   7.889   1.606   0.935 -0.3245 -0.0369  0.1358
   45MOL    H7122159   7.866   1.723   0.816  0.7391 -1.4259 -0.9750
   45MOL    H7222160   0.054   1.803   0.672 -0.4180  0.0206  0.0211
   45MOL    H7322161   0.285   1.755   0.611 -0.0721 -0.3653 -0.1983
   45MOL    H7422162   0.396   1.561   0.687  0.2883 -0.4811  2.6794
   45MOL    H7522163   0.290   1.405   0.858 -1.0365 -1.4358 -0.9076
   45MOL    H7622164   0.070   1.485   0.962  0.8340  0.7765  0.9620
   45MOL    C7722165   0.064   2.046   1.114  0.0229  0.3782  0.6073
   45MOL    C7822166   0.183   2.091   1.006  0.0565 -0.1645 -0.4500
   45MOL    C7922167   0.230   1.963   0.937 -0.3286 -0.6675  0.0359
   45MOL    C8022168   0.301   2.144   1.090  0.1216 -0.0019  0.2031
   45MOL    O8122169   0.420   2.109   1.075  0.5527 -0.2356  0.0009
   45MOL    O8222170   0.273   2.235   1.183 -0.1618 -0.1570 -0.8001
   45MOL    C8322171   0.377   2.313   1.244 -0.0245  0.4659  0.6551
   45MOL    C8422172   0.334   2.431   1.325  0.3486  0.2546 -0.2182
   45MOL    C8522173   0.353   2.434   1.466 -0.0497  0.1529  0.2347
   45MOL    C8622174   0.329   2.554   1.534 -0.3667  0.5734 -0.3787
   45MOL    C8722175   0.294   2.677   1.467  0.0859 -0.6919 -0.1603
   45MOL    C8822176   0.277   2.666   1.323 -0.0774  0.0618 -0.4356
   45MOL    C8922177   0.303   2.547   1.253 -0.1049 -0.2373  0.2476
   45MOL    H9022178   0.108   1.965   1.172 -2.0180 -1.1074  0.1527
   45MOL    H9122179   0.063   2.128   1.186 -0.2599  0.9868 -0.0735
   45MOL    H9222180   0.325   1.983   0.888  1.6603  0.9713  4.3085
   45MOL    H9322181   0.160   1.935   0.858 -0.3111 -0.9266  0.1106
   45MOL    H9422182   0.259   1.880   1.002  2.0829  0.5195  0.5258
   45MOL    H9522183   0.443   2.251   1.305 -0.7760 -1.3282 -0.2907
   45MOL    H9622184   0.432   2.344   1.155 -0.2767  1.1516  0.7438
   45MOL    H9722185   0.405   2.354   1.515  0.3917  1.0857  1.3086
   45MOL    H9822186   0.350   2.545   1.639 -1.4290 -1.2586 -0.3150
   45MOL    H9922187   0.279   2.767   1.524  0.1030 -1.3988  0.9662
   45MOL   H10022188   0.261   2.762   1.276 -0.4393  0.1876 -0.0557
   45MOL   H10122189   0.302   2.548   1.145 -2.8144 -1.1493  0.2009
   45MOL   C10222190   0.132   2.209   0.916  0.7534 -0.2191 -0.3145
   45MOL   C10322191   0.193   2.250   0.775  0.3225  0.3694  0.0046
   45MOL   C10422192   0.156   2.139   0.673  0.2565 -0.0561 -0.1710
   45MOL   C10522193   0.347   2.260   0.779  0.6539  0.3922  0.2842
   45MOL   O10622194   0.421   2.203   0.702  0.1284  0.4121 -0.1944
   45MOL   O10722195   0.390   2.350   0.867  0.8844 -0.6929 -0.0562
   45MOL   C10822196   0.530   2.375   0.868  0.4642 -0.5104  0.3904
   45MOL   C10922197   0.578   2.464   0.757  0.1557  0.3696 -0.1427
   45MOL   C11022198   0.668   2.425   0.657 -0.5625 -0.8390  1.3306
   45MOL   C11122199   0.693   2.501   0.538  0.3415  0.0898 -0.0171
   45MOL   C11222200   0.643   2.635   0.537 -0.1182  0.3023  1.3329
   45MOL   C11322201   0.571   2.687   0.644 -0.7308  0.1646  0.1446
   45MOL   C11422202   0.541   2.601   0.750  0.2551 -0.3899  0.1573
   45MOL   H11522203   0.133   2.301   0.975  0.7905 -1.8159  2.2856
   45MOL   H11622204   0.037   2.180   0.874  0.5475  1.9756 -1.4058
   45MOL   H11722205   0.161   2.181   0.573  1.0254 -1.5194 -0.7775
   45MOL   H11822206   0.058   2.092   0.673  0.8938 -1.4781 -2.1227
   45MOL   H11922207   0.227   2.056   0.671  2.0037  1.3502  1.7483
   45MOL   H12022208   0.562   2.419   0.962  0.6564  0.8651 -0.3048
   45MOL   H12122209   0.597   2.290   0.861 -0.5234 -1.1819 -1.2441
   45MOL   H12222210   0.710   2.325   0.655  3.2789  0.7341  0.2585
   45MOL   H12322211   0.740   2.450   0.455  1.3018  0.2578  0.4167
   45MOL   H12422212   0.667   2.695   0.451  0.5601  0.7877  1.8553
   45MOL   H12522213   0.533   2.788   0.649 -0.8018  0.1505 -0.1173
   45MOL   H12622214   0.471   2.636   0.824  0.9195  0.2691  0.4831
   45MOL   C12722215   0.135   2.386   0.721 -0.6737  0.3796  0.5534
   45MOL   C12822216   7.991   2.424   0.704 -0.1445 -0.6101 -0.0594
   45MOL   C12922217   7.938   2.475   0.846 -0.2194  0.1010 -0.3304
   45MOL   C13022218   7.902   2.312   0.644  0.8526  0.8411  0.3579
   45MOL   O13122219   7.804   2.271   0.702 -0.2435 -0.2030 -0.2762
   45MOL   O13222220   7.942   2.270   0.526 -0.0114  0.5744 -0.0236
   45MOL   C13322221   7.873   2.163   0.467  0.4771 -0.5655 -0.9543
   45MOL   C13422222   7.925   2.139   0.327 -0.4013  0.0761 -0.5104
   45MOL   C13522223   7.841   2.095   0.224  0.4402 -0.4109  0.6136
   45MOL   C13622224   7.892   2.074   0.097  0.6132  0.0134  0.1301
   45MOL   C13722225   0.024   2.085   0.077 -0.2868 -0.2842  0.3834
   45MOL   C13822226   0.114   2.126   0.177 -0.1842 -0.4043 -0.0205
   45MOL   C13922227   0.056   2.165   0.300  0.5775  0.4074 -0.0625
   45MOL   H14022228   0.191   2.411   0.632 -0.5203  2.6188  1.2627
   45MOL   H14122229   0.177   2.466   0.783 -0.9346  0.2913  0.8485
   45MOL   H14222230   7.994   2.563   0.880 -1.0684  0.1568  0.9588
   45MOL   H14322231   7.954   2.407   0.929 -1.5004 -0.2658 -0.3688
   45MOL   H14422232   7.834   2.507   0.855 -1.1569 -3.0188  0.2462
   45MOL   H14522233   7.887   2.068   0.519  2.2454  0.2326  0.1029
   45MOL   H14622234   7.770   2.195   0.454  0.3809  0.3494  1.7150
   45MOL   H14722235   7.733   2.095   0.225  0.3930 -0.0680 -2.1004
   45MOL   H14822236   7.823   2.046   0.019  0.9091 -0.5672  0.0714
   45MOL   H14922237   0.064   2.080   7.984 -1.3233  0.3551 -0.0788
   45MOL   H15022238   0.218   2.153   0.164  0.3964 -2.1273  0.9710
   45MOL   H15122239   0.123   2.189   0.381  0.7082  0.1115 -0.0809
   45MOL   C15222240   7.994   2.540   0.598  0.1047 -0.1305 -0.2936
   45MOL   C15322241   7.871   2.642   0.569  0.0344 -0.0808 -0.3178
   45MOL   C15422242   7.735   2.573   0.585 -0.1557  0.5123  0.1162
   45MOL   C15522243   7.873   2.702   0.429  0.3780 -0.2420  0.3964
   45MOL   O15622244   7.768   2.736   0.371 -0.2758 -0.0216  0.1194
   45MOL   O15722245   7.998   2.718   0.380 -0.2960 -0.0980  0.2759
   45MOL   C15822246   0.003   2.781   0.253 -1.1683 -0.4798 -0.1267
   45MOL   C15922247   7.972   2.694   0.136  0.4334  0.3756  0.0965
   45MOL   C16022248   0.003   2.561   0.132  0.4999  0.0709  0.3195
   45MOL   C16122249   7.975   2.473   0.029  0.0739  0.3023 -0.0262
   45MOL   C16222250   7.918   2.525   7.920 -0.2326 -0.6578 -0.3174
   45MOL   C16322251   7.877   2.662   7.916  0.6035 -0.6473 -0.1111
   45MOL   C16422252   7.905   2.747   0.023  0.7120 -0.0453  0.6633
   45MOL   H16522253   0.007   2.501   0.498  0.5773 -2.3963  0.6595
   45MOL   H16622254   0.078   2.594   0.621  0.4413  0.4332 -2.8340
   45MOL   H16722255   7.736   2.481   0.526 -0.5488  0.4961  0.1341
   45MOL   H16822256   7.656   2.644   0.562  0.8363  2.3073  2.0969
   45MOL   H16922257   7.707   2.544   0.686  1.5107 -2.8744 -0.3013
   45MOL   H17022258   7.948   2.870   0.246  1.9308  1.7272 -0.5047
   45MOL   H17122259   0.104   2.816   0.229 -1.2694 -0.2474 -0.2142
   45MOL   H17222260   0.060   2.518   0.213 -1.0315  1.7410  2.3184
   45MOL   H17322261   8.001   2.368   0.036 -1.5931 -0.0807  0.5477
   45MOL   H17422262   7.892   2.469   7.831 -2.0025  0.7057 -0.6911
   45MOL   H17522263   7.830   2.698   7.826 -1.8984  2.0736  2.1984
   45MOL   H17622264   7.872   2.850   0.030 -0.4580 -0.3225 -0.5493
   45MOL   C17722265   7.878   2.754   0.680 -0.0322 -0.3119 -0.3751
   45MOL   C17822266   7.909   2.908   0.656 -0.1357  0.2907  0.2219
   45MOL   C17922267   7.793   2.975   0.575  0.0657  0.7559 -1.0901
   45MOL   C18022268   0.037   2.934   0.578  0.6063  0.0605 -0.5509
   45MOL   O18122269   0.134   2.860   0.590  0.1298 -0.4071  0.0223
   45MOL   O18222270   0.039   3.064   0.539  0.4344  0.5246 -0.2490
   45MOL   C18322271   0.158   3.129   0.498  0.4349 -0.6660  0.1865
   45MOL   C18422272   0.163   3.279   0.513 -0.4935  0.2595 -0.7469
   45MOL   C18522273   0.092   3.341   0.621  0.8593 -0.0783  0.4049
   45MOL   C18622274   0.108   3.477   0.644  0.3909 -0.9377  0.3265
   45MOL   C18722275   0.188   3.557   0.560  0.0792  0.0496  0.6005
   45MOL   C18822276   0.256   3.499   0.451  0.2005 -0.1362  0.0544
   45MOL   C18922277   0.240   3.361   0.425  0.6918 -0.2475 -0.3265
   45MOL   H19022278   7.954   2.725   0.754  0.2342  2.1675  0.3713
   45MOL   H19122279   7.781   2.751   0.730  0.0591  0.9282 -0.0950
   45MOL   H19222280   7.701   2.939   0.620  0.5585  0.2911 -0.4491
   45MOL   H19322281   7.798   2.939   0.472  0.4737 -1.1185 -0.4321
   45MOL   H19422282   7.803   3.084   0.577  1.3128  0.7264 -3.4722
   45MOL   H19522283   0.241   3.080   0.548  0.7971 -1.7399 -1.4227
   45MOL   H19622284   0.172   3.092   0.396  0.4976  0.7060 -0.3107
   45MOL   H19722285   0.026   3.284   0.686  1.1417 -1.5776 -0.6032
   45MOL   H19822286   0.047   3.529   0.716  1.5126  0.0739  0.5684
   45MOL   H19922287   0.185   3.661   0.589 -1.7031 -0.6106  2.9381
   45MOL   H20022288   0.326   3.557   0.393  0.5830  0.2583  0.9104
   45MOL   H20122289   0.295   3.316   0.344 -1.1448 -2.5873 -0.3475
   45MOL   C20222290   7.907   2.992   0.791 -0.0625  0.1067 -0.0948
   45MOL   C20322291   7.975   2.954   0.932 -0.1223 -0.7008  0.1153
   45MOL   C20422292   0.111   2.891   0.909  0.6737 -0.2826  0.0628
   45MOL   C20522293   7.898   2.857   1.020 -0.0969 -0.5470 -0.0827
   45MOL   O20622294   7.957   2.780   1.095 -0.3533 -0.0044  0.1973
   45MOL   O20722295   7.763   2.865   1.009  0.0712 -0.0772 -0.4880
   45MOL   C20822296   7.673   2.807   1.104  0.3491 -0.4339 -0.4125
   45MOL   C20922297   7.638   2.662   1.081  0.0366  0.2565 -0.5176
   45MOL   C21022298   7.633   2.576   1.191  0.2650  0.2886  0.5999
   45MOL   C21122299   7.606   2.438   1.177 -0.7088 -0.0057 -0.3640
   45MOL   C21222300   7.573   2.389   1.051  0.0155 -0.3921  0.4034
   45MOL   C21322301   7.587   2.471   0.941 -0.7365 -0.0004  0.6437
   45MOL   C21422302   7.612   2.609   0.957  0.2193  0.4857 -0.9161
   45MOL   H21522303   7.802   3.021   0.803 -0.6837 -2.0941  0.0908
   45MOL   H21622304   7.937   3.093   0.766 -0.0883  0.3186  0.7049
   45MOL   H21722305   0.175   2.953   0.846 -0.7715  0.5417 -0.6054
   45MOL   H21822306   0.100   2.790   0.871 -0.0598 -0.8507  1.7146
   45MOL   H21922307   0.175   2.881   0.997  0.2638 -0.1578  0.3804
   45MOL   H22022308   7.705   2.796   1.208 -0.4128 -0.6423 -0.1950
   45MOL   H22122309   7.588   2.875   1.103  0.4902 -0.2567 -0.4591
   45MOL   H22222310   7.669   2.613   1.286  2.4422  2.1286 -0.8816
   45MOL   H22322311   7.600   2.371   1.261  0.9296  1.3853  0.8964
   45MOL   H22422312   7.541   2.286   1.041 -0.7447 -0.2157  0.9691
   45MOL   H22522313   7.579   2.424   0.844 -0.4355 -0.7691  0.9876
   45MOL   H22622314   7.605   2.667   0.867  1.8078  0.3782 -1.1080
   45MOL   C22722315   8.001   3.083   1.012  0.8997 -0.0790 -0.1463
   45MOL   C22822316   7.897   3.176   1.088 -0.0086 -0.1654  0.3027
   45MOL   C22922317   7.884   3.127   1.238  0.5088 -0.2835 -0.4505
   45MOL   C23022318   7.758   3.181   1.021  0.1404  0.1580  0.5975
   45MOL   O23122319   7.658   3.133   1.076  0.5950 -0.5915  0.4134
   45MOL   O23222320   7.748   3.237   0.905  0.7170 -0.7716 -0.5022
   45MOL   C23322321   7.621   3.259   0.850 -0.1016 -0.1357 -0.1170
   45MOL   C23422322   7.645   3.332   0.713  0.1812  0.3925 -0.2341
   45MOL   C23522323   7.751   3.419   0.687  0.5106 -0.2446  0.0328
   45MOL   C23622324   7.761   3.497   0.568  0.3105 -0.4795  0.6459
   45MOL   C23722325   7.664   3.484   0.461 -0.2151  0.9899 -1.0795
   45MOL   C23822326   7.558   3.392   0.488  0.0912 -0.3220  0.0230
   45MOL   C23922327   7.545   3.327   0.615  0.6394 -0.2034  1.3004
   45MOL   H24022328   0.042   3.149   0.940  2.0673 -1.3286 -0.5375
   45MOL   H24122329   0.081   3.071   1.078  0.1003  0.0516  0.9325
   45MOL   H24222330   7.838   3.204   1.299  0.5586 -0.5344 -0.0983
   45MOL   H24322331   7.980   3.103   1.284  1.0413  1.1459 -0.7710
   45MOL   H24422332   7.830   3.033   1.249  0.4557 -0.1308  0.6482
   45MOL   H24522333   7.568   3.165   0.834 -0.9340  0.4375 -0.7938
   45MOL   H24622334   7.559   3.325   0.912  0.4300  0.6845 -0.4416
   45MOL   H24722335   7.829   3.440   0.760  0.8489 -2.9732  0.5088
   45MOL   H24822336   7.849   3.560   0.562 -0.2628  0.1499 -2.4692
   45MOL   H24922337   7.672   3.543   0.371 -0.0463 -2.3247 -3.3114
   45MOL   H25022338   7.491   3.374   0.405 -0.9623 -0.0138  0.7885
   45MOL   H25122339   7.459   3.264   0.630 -0.0535  0.3506 -0.1833
   45MOL   C25222340   7.955   3.319   1.081  0.6288  0.2982 -0.3502
   45MOL   C25322341   7.911   3.442   1.167  0.6838 -0.0086  0.2769
   45MOL   C25422342   7.985   3.430   1.303 -0.5666 -0.1283 -0.0278
   45MOL   C25522343   7.751   3.454   1.182  0.8491 -0.1694 -0.5801
   45MOL   O25622344   7.677   3.477   1.087 -0.3897 -0.9727  0.1485
   45MOL   O25722345   7.711   3.406   1.297 -0.3284 -0.2016  0.3749
   45MOL   C25822346   7.575   3.383   1.324  0.3902  0.0776  0.0027
   45MOL   C25922347   7.548   3.349   1.471 -0.4835 -0.3371  0.1697
   45MOL   C26022348   7.517   3.216   1.505 -0.1595 -0.7327  0.3234
   45MOL   C26122349   7.484   3.179   1.637 -0.0642  0.6748 -0.2073
   45MOL   C26222350   7.473   3.280   1.732 -0.0187 -0.9501  0.6021
   45MOL   C26322351   7.513   3.415   1.702 -0.9313 -0.5656  0.0846
   45MOL   C26422352   7.552   3.443   1.571  0.3101  0.1160 -0.0483
   45MOL   H26522353   7.954   3.346   0.975 -0.6264  0.8033 -0.2226
   45MOL   H26622354   0.055   3.317   1.100  0.3585  2.2819  1.5280
   45MOL   H26722355   7.936   3.459   1.396 -1.1484 -1.7316  0.1661
   45MOL   H26822356   0.076   3.479   1.301 -0.5870  0.3382  4.6810
   45MOL   H26922357   0.001   3.326   1.320  1.3020  0.6410  2.3521
   45MOL   H27022358   7.515   3.472   1.305 -0.7346 -0.6931 -0.1174
   45MOL   H27122359   7.519   3.318   1.257  1.2338  0.7536 -1.3717
   45MOL   H27222360   7.509   3.140   1.429 -1.2224 -0.0961 -0.2122
   45MOL   H27322361   7.435   3.088   1.667  0.4877  0.7820  1.0861
   45MOL   H27422362   7.438   3.246   1.828  1.0215  0.2841  1.4323
   45MOL   H27522363   7.497   3.492   1.776  1.0941  1.6102 -1.6543
   45MOL   H27622364   7.590   3.542   1.549  0.7391 -0.1501 -0.5398
   45MOL   C27722365   7.972   3.568   1.088  0.8976 -0.9177 -0.4783
   45MOL   C27822366   7.960   3.719   1.137  0.7511 -0.3475 -0.0788
   45MOL   C27922367   0.041   3.736   1.261  0.2805  0.2182  0.3050
   45MOL   C28022368   7.814   3.759   1.163  0.9501  0.1699 -0.2615
   45MOL   O28122369   7.760   3.779   1.270 -0.0710  0.2680  0.0917
   45MOL   O28222370   7.742   3.763   1.051 -0.0211  0.3686  0.8504
   45MOL   C28322371   7.606   3.775   1.048  0.5400 -0.1419  0.1792
   45MOL   C28422372   7.557   3.821   0.910 -0.1162  0.4212 -0.4469
   45MOL   C28522373   7.565   3.731   0.798 -0.2505 -0.4118  0.3742
   45MOL   C28622374   7.543   3.780   0.666 -0.4252 -0.3353  0.0544
   45MOL   C28722375   7.507   3.913   0.646  0.3342  0.2679  0.6484
   45MOL   C28822376   7.486   3.997   0.750 -1.0357 -0.5330 -0.1792
   45MOL   C28922377   7.514   3.953   0.883  0.0158 -0.5117 -0.5282
   45MOL   H29022378   7.945   3.558   0.983 -0.0252 -3.3893 -0.0355
   45MOL   H29122379   0.071   3.543   1.086  1.0407 -0.2050 -1.8234
   45MOL   H29222380   0.025   3.839   1.291 -2.9637 -0.3660  0.7369
   45MOL   H29322381   0.149   3.721   1.250  0.4340  0.1945  1.8420
   45MOL   H29422382   0.009   3.679   1.348  1.9978 -0.9935  0.1774
   45MOL   H29522383   7.546   3.691   1.084 -1.8909  0.1953 -2.8878
   45MOL   H29622384   7.584   3.860   1.112  0.8488  0.2117 -0.1819
   45MOL   H29722385   7.600   3.631   0.817 -0.5508 -0.3196  1.4276
   45MOL   H29822386   7.564   3.723   0.577 -0.1672 -0.9971  0.5384
   45MOL   H29922387   7.485   3.957   0.550 -0.4244  2.7077  1.8775
   45MOL   H30022388   7.437   4.091   0.726 -3.3317 -1.8070 -0.5948
   45MOL   H30122389   7.491   4.025   0.960  0.9610 -0.8320  0.0605
   45MOL   C30222390   0.012   3.811   1.018 -0.2666 -0.3496 -0.5542
   45MOL   C30322391   0.019   3.975   1.008  0.0489 -0.2631  0.7615
   45MOL   C30422392   7.901   4.043   1.079  0.0024  0.4019  0.3394
   45MOL   C30522393   0.006   4.009   0.856 -0.5312 -0.1117 -0.2769
   45MOL   O30622394   7.921   4.076   0.814  0.0651 -0.3617 -0.5233
   45MOL   O30722395   0.097   3.962   0.775  0.4436 -0.5885 -0.0258
   45MOL   C30822396   0.119   4.027   0.645 -0.0757  0.5955  0.4429
   45MOL   C30922397   0.049   3.955   0.533 -0.5142 -0.4259 -0.6188
   45MOL   C31022398   7.914   3.953   0.511 -0.1564  0.1487 -0.1936
   45MOL   C31122399   7.856   3.880   0.405  0.3099  0.3296  0.4086
   45MOL   C31222400   7.945   3.810   0.313  0.5101  0.0772  1.0638
   45MOL   C31322401   0.077   3.824   0.330  0.4379 -0.0563 -0.6424
   45MOL   C31422402   0.134   3.887   0.441  0.4847 -0.0077  0.5007
   45MOL   H31522403   7.961   3.777   0.933  2.0197  0.1855 -2.3788
   45MOL   H31622404   0.111   3.777   0.991 -0.7175 -2.7205  0.6870
   45MOL   H31722405   7.802   4.024   1.038 -0.3824 -0.7509  1.7490
   45MOL   H31822406   7.892   4.148   1.051 -0.3905  0.0338 -0.9620
   45MOL   H31922407   7.913   4.028   1.187  0.0248 -1.9548  0.0407
   45MOL   H32022408   0.079   4.128   0.644 -1.5872  0.0124 -0.5645
   45MOL   H32122409   0.223   4.034   0.613 -0.2180 -0.3221 -0.2266
   45MOL   H32222410   7.854   4.006   0.584 -0.3769  0.6603 -0.7411
   45MOL   H32322411   7.753   3.886   0.376  0.1875 -2.9958 -0.0396
   45MOL   H32422412   7.899   3.774   0.223  1.5980 -1.2135  1.0083
   45MOL   H32522413   0.143   3.770   0.264  0.7016 -3.0519  1.9575
   45MOL   H32622414   0.241   3.895   0.447  0.7006 -1.9726 -0.4978
   45MOL   C32722415   0.155   4.029   1.064 -0.2354  0.1602 -0.4987
   45MOL   C32822416   0.189   4.187   1.083 -0.3098 -0.7274 -0.0097
   45MOL   C32922417   0.162   4.264   0.952  0.6710 -0.6365 -0.2441
   45MOL   C33022418   0.343   4.194   1.108  0.1095 -0.4243 -0.0233
   45MOL   O33122419   0.413   4.289   1.070 -0.1313  0.1057 -0.2696
   45MOL   O33222420   0.392   4.092   1.180  0.6242  0.3872 -0.0852
   45MOL   C33322421   0.535   4.093   1.217 -0.0441  0.4096 -0.3571
   45MOL   C33422422   0.564   3.970   1.303  0.7277  0.3703 -0.4422
   45MOL   C33522423   0.677   3.970   1.390  0.1120  0.3957  0.1222
   45MOL   C33622424   0.692   3.863   1.479 -0.3364 -0.2164  0.4350
   45MOL   C33722425   0.597   3.761   1.476 -0.0062  0.5375 -0.4682
   45MOL   C33822426   0.489   3.757   1.389 -0.8503 -0.5012 -0.4022
   45MOL   C33922427   0.474   3.861   1.301  0.2770  0.1469 -0.2713
   45MOL   H34022428   0.226   3.979   0.999 -1.3508  0.4686 -1.9911
   45MOL   H34122429   0.170   3.976   1.158 -2.3302 -2.3656 -1.5261
   45MOL   H34222430   0.206   4.364   0.951 -1.1102  0.1577 -0.2409
   45MOL   H34322431   0.056   4.278   0.933  0.5183 -1.5985 -0.1164
   45MOL   H34422432   0.198   4.202   0.871  3.4952  1.1252 -0.4107
   45MOL   H34522433   0.608   4.090   1.135 -0.3261  1.5613 -0.6584
   45MOL   H34622434   0.568   4.183   1.267 -0.3047  0.6792 -0.6672
   45MOL   H34722435   0.748   4.050   1.405  1.3478 -0.5035 -0.7645
   45MOL   H34822436   0.776   3.864   1.547  0.1890  1.8948 -0.2081
   45MOL   H34922437   0.619   3.685   1.549 -0.0299  0.6108 -0.3843
   45MOL   H35022438   0.412   3.682   1.400  0.5989 -2.0990 -0.9181
   45MOL   H35122439   0.384   3.851   1.244 -0.1354 -0.8560  0.5187
   45MOL   C35222440   0.111   4.233   1.207  0.1011  0.9852  0.7156
   45MOL   C35322441   0.159   4.330   1.323  0.4881  0.0379  0.2751
   45MOL   C35422442   0.033   4.324   1.409  0.2474  0.2814  0.0515
   45MOL   C35522443   0.165   4.475   1.278  0.1116 -0.3799 -0.1755
   45MOL   O35622444   0.088   4.565   1.309 -0.4749  0.3383 -0.1430
   45MOL   O35722445   0.276   4.495   1.197 -0.4071 -0.1865 -0.1187
   45MOL   C35822446   0.314   4.630   1.161  0.2797  0.5496 -0.9695
   45MOL   C35922447   0.432   4.672   1.242 -0.6591  0.9829 -0.0634
   45MOL   C36022448   0.556   4.620   1.203  0.2075 -0.0799  0.4790
   45MOL   C36122449   0.671   4.635   1.283  0.1360 -0.7383  0.3579
   45MOL   C36222450   0.659   4.707   1.407 -0.6419 -0.3890 -0.2298
   45MOL   C36322451   0.537   4.768   1.442 -0.1050 -0.6737 -0.0766
   45MOL   C36422452   0.426   4.755   1.353 -0.5651 -0.6502 -0.4626
   45MOL   H36522453   0.099   4.141   1.265  0.6562  1.4920  1.6393
   45MOL   H36622454   0.015   4.266   1.168  0.4567  0.1951 -0.8914
   45MOL   H36722455   0.022   4.221   1.442  1.9576 -0.0021 -0.1900
   45MOL   H36822456   7.949   4.349   1.356  0.2505 -0.4129 -0.2823
   45MOL   H36922457   0.032   4.391   1.495 -0.3928 -0.2833  0.4932
   45MOL   H37022458   0.321   4.640   1.053 -1.5813  0.4172 -1.1156
   45MOL   H37122459   0.234   4.697   1.192 -2.7263 -3.5087  0.6099
   45MOL   H37222460   0.560   4.556   1.117  2.3859  0.9962 -0.2660
   45MOL   H37322461   0.759   4.576   1.266 -0.0917 -0.6796 -1.0227
   45MOL   H37422462   0.737   4.700   1.482 -1.7189 -0.4901  0.8826
   45MOL   H37522463   0.515   4.830   1.527  0.1130  3.2320 -2.7234
   45MOL   H37622464   0.334   4.806   1.378 -1.6939 -2.7234 -0.2647
   45MOL   C37722465   0.286   4.287   1.404 -0.1434 -0.3994  0.6960
   45MOL   C37822466   0.315   4.347   1.543 -0.6310  0.3085 -0.2456
   45MOL   C37922467   0.286   4.498   1.555 -0.5768  0.3721 -0.3899
   45MOL   C38022468   0.470   4.355   1.570  0.1364 -0.5584 -0.2675
   45MOL   O38122469   0.554   4.349   1.476  1.0602 -0.1113  0.8167
   45MOL   O38222470   0.503   4.376   1.701  0.3150 -0.1232 -0.2900
   45MOL   C38322471   0.637   4.381   1.745  0.7120  0.2702  0.4773
   45MOL   C38422472   0.664   4.288   1.859 -0.2195 -0.1110 -0.1885
   45MOL   C38522473   0.587   4.281   1.975  0.1273 -0.0996 -0.5137
   45MOL   C38622474   0.634   4.215   2.091  0.4424 -0.3195  0.5866
   45MOL   C38722475   0.752   4.142   2.079  0.2601  0.6564  0.0373
   45MOL   C38822476   0.818   4.133   1.958  0.4976 -0.7919  0.2476
   45MOL   C38922477   0.777   4.206   1.847 -0.1305 -0.1050  0.3105
   45MOL   H39022478   0.369   4.300   1.335 -0.9859 -1.9026 -0.6244
   45MOL   H39122479   0.275   4.180   1.418 -0.4526 -0.3096  1.1824
   45MOL   H39222480   0.328   4.542   1.464  3.1821  0.5674  1.3300
   45MOL   H39322481   0.332   4.560   1.632 -2.0198  2.3534 -1.0761
   45MOL   H39422482   0.181   4.527   1.549 -0.5214  0.7683  0.4782
   45MOL   H39522483   0.705   4.359   1.663  1.4964 -4.4592  2.1882
   45MOL   H39622484   0.641   4.481   1.788  1.7248 -0.1858  1.4721
   45MOL   H39722485   0.498   4.343   1.973  0.5713  0.5298 -0.8694
   45MOL   H39822486   0.584   4.218   2.187 -3.0916  1.6219 -1.2097
   45MOL   H39922487   0.794   4.090   2.164  1.1018  0.4218 -0.5181
   45MOL   H40022488   0.904   4.070   1.940  1.8916  1.7778 -2.7352
   45MOL   H40122489   0.829   4.203   1.752  0.2423 -1.6797  0.5546
   45MOL   C40222490   0.249   4.255   1.659  0.7373  0.3529 -0.1333
   45MOL   C40322491   0.265   4.098   1.679 -0.1660 -0.2280 -0.1996
   45MOL   C40422492   0.407   4.061   1.633 -0.0760 -0.1050  0.6015
   45MOL   C40522493   0.152   4.024   1.596  0.0215 -0.7947 -0.0043
   45MOL   O40622494   0.175   3.973   1.480 -0.0343 -0.0716  0.1511
   45MOL   O40722495   0.025   4.028   1.652 -0.0253  0.7007 -0.2361
   45MOL   C40822496   7.924   3.953   1.590 -0.5055 -0.3825 -0.5915
   45MOL   C40922497   7.813   3.921   1.690  0.1531 -0.2169  0.3172
   45MOL   C41022498   7.799   3.987   1.814  0.0151 -0.8087  0.3731
   45MOL   C41122499   7.700   3.955   1.904 -0.3517  0.2038  0.9310
   45MOL   C41222500   7.606   3.863   1.874 -0.1173  0.6836 -0.0503
   45MOL   C41322501   7.609   3.791   1.749 -0.0715  0.2334 -0.6175
   45MOL   C41422502   7.714   3.826   1.658 -0.0456 -0.3901 -0.8792
   45MOL   H41522503   0.140   4.267   1.653  0.5188 -1.9256 -1.0606
   45MOL   H41622504   0.260   4.306   1.755 -1.1646  0.9364 -0.1858
   45MOL   H41722505   0.438   4.093   1.534 -0.9279  2.5246  1.1403
   45MOL   H41822506   0.415   3.952   1.628  0.3177 -0.0048 -1.4193
   45MOL   H41922507   0.469   4.103   1.712 -0.3117  1.0982  0.1627
   45MOL   H42022508   7.880   3.998   1.501 -1.1779  0.4643  0.1601
   45MOL   H42122509   7.972   3.860   1.559 -0.1356 -1.1389  2.1563
   45MOL   H42222510   7.866   4.066   1.844 -1.2816  0.2217  0.5733
   45MOL   H42322511   7.705   4.008   1.998  1.6324  0.1808  0.8620
   45MOL   H42422512   7.524   3.846   1.942 -1.2503  2.6364 -0.8865
   45MOL   H42522513   7.533   3.720   1.718  1.3388 -2.3947  1.7800
   45MOL   H42622514   7.711   3.781   1.560  0.7858  0.9712 -1.5370
   45MOL   C42722515   0.232   4.060   1.829 -0.1926  0.0309 -0.1688
   45MOL   C42822516   0.275   3.922   1.900  0.1967 -0.1455 -0.1643
   45MOL   C42922517   0.417   3.953   1.950  0.3092  0.1439  0.1750
   45MOL   C43022518   0.270   3.791   1.803 -0.6835  0.1873  0.1979
   45MOL   O43122519   0.374   3.738   1.756 -0.4111 -0.4862 -0.2575
   45MOL   O43222520   0.149   3.750   1.776 -0.1240  0.0713  0.2789
   45MOL   C43322521   0.122   3.642   1.685  0.4368  0.0358  0.3801
   45MOL   C43422522   0.022   3.544   1.743  0.0225 -0.1554  1.0102
   45MOL   C43522523   7.933   3.580   1.840 -0.0183  0.6929  0.6842
   45MOL   C43622524   7.834   3.487   1.882  0.2628 -0.2446 -0.6314
   45MOL   C43722525   7.844   3.349   1.845  0.2711 -0.4937  0.0271
   45MOL   C43822526   7.935   3.314   1.740 -0.3525  0.0178  0.9793
   45MOL   C43922527   0.015   3.412   1.684  0.0930 -0.5768 -0.1158
   45MOL   H44022528   0.127   4.077   1.853 -0.3632 -1.6571  0.3163
   45MOL   H44122529   0.280   4.136   1.891 -0.3739 -1.7860  2.3037
   45MOL   H44222530   0.478   3.866   1.974  1.1259  0.4465 -0.7509
   45MOL   H44322531   0.413   4.020   2.036 -1.5015  1.6453 -1.0290
   45MOL   H44422532   0.480   3.982   1.866  0.6010 -2.0325 -0.3882
   45MOL   H44522533   0.082   3.685   1.592  2.6558  0.1442 -0.5556
   45MOL   H44622534   0.209   3.592   1.642  0.4600  1.3907 -1.2004
   45MOL   H44722535   7.922   3.682   1.874  0.4090  1.5156 -1.5688
   45MOL   H44822536   7.762   3.515   1.958  1.3633 -1.0429  0.7312
   45MOL   H44922537   7.779   3.277   1.894 -0.3676  1.1466  1.6333
   45MOL   H45022538   7.913   3.219   1.695  0.5987  1.2052 -2.1020
   45MOL   H45122539   0.081   3.385   1.602 -2.3328 -1.5395 -1.8242
   45MOL   C45222540   0.185   3.899   2.035  0.0362  0.4709 -0.1208
   45MOL   C45322541   0.215   3.789   2.151  0.2145  0.1256  0.2218
   45MOL   C45422542   0.228   3.648   2.087 -0.1752 -0.8260  0.2153
   45MOL   C45522543   0.094   3.792   2.243  0.6958 -0.4328 -0.5902
   45MOL   O45622544   0.027   3.691   2.254 -0.1780  0.3424 -0.1625
   45MOL   O45722545   0.085   3.902   2.324  0.2691 -0.0022  0.0385
   45MOL   C45822546   7.990   3.915   2.423 -0.0137 -0.1170  0.0839
   45MOL   C45922547   7.851   3.942   2.373 -0.0595 -0.3102  0.1826
   45MOL   C46022548   7.763   3.831   2.346 -0.1611  0.1716  0.4320
   45MOL   C46122549   7.635   3.865   2.294 -0.3926  0.0939  0.6016
   45MOL   C46222550   7.594   3.997   2.274 -0.1225  0.2848 -0.3754
   45MOL   C46322551   7.681   4.102   2.313 -0.1047 -0.0915  0.4465
   45MOL   C46422552   7.811   4.077   2.362  0.6479  0.4078 -0.6377
   45MOL   H46522553   0.083   3.899   1.998  0.2325  0.9856 -0.6663
   45MOL   H46622554   0.186   3.995   2.085 -0.1792  0.3332  0.1488
   45MOL   H46722555   0.143   3.619   2.025  0.5427 -2.0804 -0.1958
   45MOL   H46822556   0.251   3.570   2.161  0.8392 -1.4778 -0.7663
   45MOL   H46922557   0.317   3.639   2.025  0.1844  1.0783  0.4437
   45MOL   H47022558   8.003   3.824   2.481  0.7678 -0.9498 -1.3879
   45MOL   H47122559   8.002   3.996   2.495  0.6900 -1.8455  1.9621
   45MOL   H47222560   7.797   3.730   2.362 -0.5237 -0.0342 -0.1060
   45MOL   H47322561   7.571   3.782   2.269  2.2455 -1.8211  0.0060
   45MOL   H47422562   7.495   4.010   2.235  0.2782 -0.7588 -1.7457
   45MOL   H47522563   7.650   4.205   2.300 -2.4282 -0.6771  0.9984
   45MOL   H47622564   7.877   4.162   2.375 -0.1386  1.3092 -2.2473
   45MOL   C47722565   0.343   3.837   2.235 -0.5273  0.6396 -0.0412
   45MOL   C47822566   0.377   3.793   2.379  0.2063  0.8418 -1.0290
   45MOL   C47922567   0.506   3.863   2.425  0.5997 -0.0193  0.4216
   45MOL   C48022568   0.398   3.639   2.390  0.3826  0.1511 -0.3034
   45MOL   O48122569   0.339   3.557   2.463 -0.3678  0.5105 -0.8068
   45MOL   O48222570   0.506   3.601   2.305  0.4773  0.3124 -0.3535
   45MOL   C48322571   0.511   3.466   2.267 -0.1196 -0.7629 -0.3303
   45MOL   C48422572   0.610   3.377   2.336 -0.6311  0.4862  0.3044
   45MOL   C48522573   0.644   3.260   2.276 -1.0007  0.7712  0.1744
   45MOL   C48622574   0.733   3.172   2.343 -0.2647  0.0963 -0.0436
   45MOL   C48722575   0.809   3.217   2.454 -0.0839 -0.5499 -0.3275
   45MOL   C48822576   0.782   3.343   2.512  0.3104 -0.1756  0.4227
   45MOL   C48922577   0.680   3.424   2.451 -1.0883  0.1523  0.1535
   45MOL   H49022578   0.360   3.945   2.242  2.0355  0.1818  1.2906
   45MOL   H49122579   0.430   3.807   2.177 -0.6036  0.0456  0.1462
   45MOL   H49222580   0.474   3.951   2.479  0.9891  0.9079 -0.8382
   45MOL   H49322581   0.574   3.881   2.341 -0.5459  1.6248 -0.1591
   45MOL   H49422582   0.550   3.800   2.503  1.4646  1.1644  0.9116
   45MOL   H49522583   0.410   3.424   2.256 -0.2177 -0.2928 -1.2246
   45MOL   H49622584   0.545   3.464   2.164  0.1657  2.9191 -0.3661
   45MOL   H49722585   0.593   3.221   2.189  1.6676  1.7365 -1.8867
   45MOL   H49822586   0.765   3.079   2.297  0.4606  0.2764  0.0915
   45MOL   H49922587   0.895   3.165   2.495 -0.0275  1.2777  1.9733
   45MOL   H50022588   0.842   3.381   2.594 -0.2232  0.8629  0.3351
   45MOL   H50122589   0.672   3.527   2.482 -0.8596  0.2614 -0.1533
   45MOL   H50222590   0.307   3.827   2.455 -0.4646 -0.9161 -0.8409
   46MOL     C122591   3.751   0.257   7.842  0.7263 -0.5680  0.1695
   46MOL     C222592   3.723   0.179   7.970 -0.8987  0.2250 -0.2064
   46MOL     C322593   3.702   0.277   0.078  0.4468 -0.2052  0.1754
   46MOL     C422594   3.850   0.099   0.006  1.0520  0.2355 -0.3918
   46MOL     O522595   3.835   8.001   0.069  0.3358 -0.0678  0.4837
   46MOL     O622596   3.956   0.162   7.989 -0.3771 -0.5111 -0.3972
   46MOL     C722597   4.079   0.092   0.011 -0.0863 -0.0303  0.4349
   46MOL     C822598   4.198   0.160   7.956  0.5868  0.5188  0.4037
   46MOL     C922599   4.322   0.144   0.004 -0.1811  0.4781 -0.5513
   46MOL    C1022600   4.434   0.205   7.955 -0.7960  0.3381 -0.6142
   46MOL    C1122601   4.420   0.284   7.844  0.5954  0.4328 -0.5439
   46MOL    C1222602   4.291   0.303   7.787 -0.0234  0.3278 -0.1226
   46MOL    C1322603   4.179   0.241   7.843 -0.4884 -0.1419 -0.1519
   46MOL    H1422604   3.660   0.306   7.806  0.3048 -0.8083  0.8923
   46MOL    H1522605   3.832   0.328   7.856  1.5305 -1.5303  0.5168
   46MOL    H1622606   3.622   0.349   0.067  2.2676  1.5551 -1.9510
   46MOL    H1722607   3.793   0.331   0.104 -1.2607  2.7708  0.1385
   46MOL    H1822608   3.683   0.212   0.164  2.0381  1.8440  2.1184
   46MOL    H1922609   4.090   0.086   0.119  2.2838  1.6751  0.3315
   46MOL    H2022610   4.065   7.998   7.980  0.1343  0.7477 -1.7772
   46MOL    H2122611   4.340   0.071   0.082  1.2879  1.8870  0.4660
   46MOL    H2222612   4.527   0.177   8.000 -0.0004  2.0775 -1.1336
   46MOL    H2322613   4.515   0.322   7.808  0.6735  1.5359  0.7535
   46MOL    H2422614   4.277   0.373   7.706  1.0583  0.9200  0.1766
   46MOL    H2522615   4.086   0.259   7.790 -0.4630 -1.8166 -0.8096
   46MOL    H2622616   3.780   0.185   7.766  2.8475  1.7071 -1.2508
   46MOL    C2722617   3.598   0.084   7.966  0.0264 -0.3823 -0.1062
   46MOL    C2822618   3.558   7.995   7.843 -0.2095  0.0735  0.0518
   46MOL    C2922619   3.673   7.905   7.809 -0.5630 -0.3355 -0.2121
   46MOL    C3022620   3.523   0.077   7.714 -0.0530 -0.4170  0.3846
   46MOL    O3122621   3.579   0.065   7.608  0.0805 -0.1211 -0.2004
   46MOL    O3222622   3.429   0.162   7.743 -0.0628  0.3215  0.3119
   46MOL    C3322623   3.372   0.247   7.646 -0.2071 -0.0180 -0.7783
   46MOL    C3422624   3.314   0.371   7.710  0.4656  0.2239  0.8843
   46MOL    C3522625   3.324   0.390   7.850 -0.1387  0.1472  0.0380
   46MOL    C3622626   3.261   0.496   7.910 -0.2927 -0.1719 -0.6746
   46MOL    C3722627   3.191   0.594   7.830  0.0658  0.5063 -0.1206
   46MOL    C3822628   3.174   0.572   7.690  0.3055 -0.1142 -0.3002
   46MOL    C3922629   3.235   0.456   7.637  0.0068 -0.1838 -0.4225
   46MOL    H4022630   3.511   0.148   7.981 -0.7073 -1.0999 -1.2940
   46MOL    H4122631   3.593   0.029   0.053  0.2750 -0.9944 -0.4480
   46MOL    H4222632   3.695   7.831   7.885 -0.2316  0.3340  0.3500
   46MOL    H4322633   3.767   7.958   7.791 -1.4287  0.5047 -2.5506
   46MOL    H4422634   3.664   7.839   7.722  0.2431 -2.4347  1.2701
   46MOL    H4522635   3.449   0.275   7.574  0.8837 -0.5839  0.1439
   46MOL    H4622636   3.294   0.190   7.597  0.4782 -0.3274 -1.5131
   46MOL    H4722637   3.371   0.324   7.922  1.5051  3.9855  2.6431
   46MOL    H4822638   3.272   0.510   0.010 -0.6388 -2.7664 -0.2646
   46MOL    H4922639   3.153   0.682   7.879  2.4942  0.0540  2.6711
   46MOL    H5022640   3.123   0.644   7.627 -2.0989 -0.9959  0.5975
   46MOL    H5122641   3.215   0.433   7.533  0.7174  0.2265 -0.6541
   46MOL    C5222642   3.439   7.911   7.881  0.2374 -0.4905 -0.5165
   46MOL    C5322643   3.425   7.783   7.967  0.2004 -0.2696 -0.3602
   46MOL    C5422644   3.506   7.798   0.089 -0.1247 -0.0711 -0.0889
   46MOL    C5522645   3.469   7.648   7.901  0.0431 -0.1721 -0.5522
   46MOL    O5622646   3.485   7.641   7.779 -0.6963 -0.1639 -0.7667
   46MOL    O5722647   3.479   7.539   7.986  0.4078 -0.4041  0.4572
   46MOL    C5822648   3.527   7.420   7.932 -0.7507  0.6680  0.3543
   46MOL    C5922649   3.428   7.312   7.894 -0.7227  0.4631 -0.7090
   46MOL    C6022650   3.335   7.323   7.784 -0.6462 -0.3253  0.0687
   46MOL    C6122651   3.229   7.226   7.765  0.0355  0.0023  0.0048
   46MOL    C6222652   3.229   7.115   7.859 -0.3591  0.0691  0.2539
   46MOL    C6322653   3.320   7.101   7.962 -0.2502  0.3052  1.1026
   46MOL    C6422654   3.415   7.199   7.982  1.1685 -0.7396  0.4179
   46MOL    H6522655   3.392   7.879   7.788 -0.7399 -0.8708  0.0968
   46MOL    H6622656   3.376   7.988   7.927  0.9765 -0.1631 -0.0363
   46MOL    H6722657   3.482   7.887   0.147 -0.6997 -0.5908  0.4729
   46MOL    H6822658   3.613   7.782   0.074 -0.2545 -1.5465  0.4183
   46MOL    H6922659   3.480   7.737   0.176 -0.3289  1.7767  1.1825
   46MOL    H7022660   3.599   7.426   7.851  0.2421  0.5201  1.2094
   46MOL    H7122661   3.597   7.390   0.003 -0.1698  1.2576  0.0639
   46MOL    H7222662   3.347   7.403   7.713  0.5209 -1.9283 -1.6088
   46MOL    H7322663   3.170   7.227   7.675  0.6552  1.2252 -0.4083
   46MOL    H7422664   3.149   7.044   7.847 -0.9366  0.3271  2.2770
   46MOL    H7522665   3.320   7.010   0.014  0.8553 -1.6270 -1.7873
   46MOL    H7622666   3.480   7.195   0.061  2.2737  1.1345 -0.2967
   46MOL    C7722667   3.274   7.767   0.017 -0.1537  0.0614 -0.3503
   46MOL    C7822668   3.133   7.764   7.941  0.6406  0.6771  0.4207
   46MOL    C7922669   3.162   7.664   7.825  0.2345 -0.1901 -0.3423
   46MOL    C8022670   3.090   7.912   7.902 -0.1352  1.2443  0.5861
   46MOL    O8122671   3.050   7.931   7.785 -0.1690  0.0415  0.7179
   46MOL    O8222672   3.114   8.006   7.998  1.0349 -0.0043 -0.1007
   46MOL    C8322673   3.112   0.146   7.969 -0.0828 -0.6840 -0.7272
   46MOL    C8422674   2.998   0.219   0.036 -0.0510 -0.6371 -0.3514
   46MOL    C8522675   2.951   0.175   0.158 -0.1734  0.2170  0.2373
   46MOL    C8622676   2.848   0.243   0.231  0.2391 -1.0542  0.4045
   46MOL    C8722677   2.794   0.364   0.184  0.6448  0.6543 -0.1457
   46MOL    C8822678   2.851   0.416   0.065  0.0816 -0.6828  0.1285
   46MOL    C8922679   2.956   0.347   8.000  0.4754 -0.4031 -0.0606
   46MOL    H9022680   3.259   7.846   0.090  1.1295 -0.7095  0.7750
   46MOL    H9122681   3.278   7.676   0.077 -0.3844  0.3684  0.1342
   46MOL    H9222682   3.199   7.570   7.866  0.0702 -0.3480 -0.5521
   46MOL    H9322683   3.228   7.721   7.760 -0.8759  2.0103  0.3938
   46MOL    H9422684   3.073   7.655   7.762  0.0856 -1.3931  0.0328
   46MOL    H9522685   3.205   0.197   7.995 -0.1881  0.2957 -2.2009
   46MOL    H9622686   3.101   0.164   7.862  1.2369  2.1517 -0.4334
   46MOL    H9722687   2.993   0.086   0.202  1.0780 -0.4652 -2.2478
   46MOL    H9822688   2.802   0.197   0.317  0.9431 -0.6291  1.0120
   46MOL    H9922689   2.709   0.406   0.235 -0.0264  0.1819 -0.8538
   46MOL   H10022690   2.811   0.504   0.019  2.8238  0.6710  0.2054
   46MOL   H10122691   2.996   0.393   7.910 -0.0160 -1.7780 -0.9940
   46MOL   C10222692   3.028   7.697   0.030  0.3458  0.5537  0.1025
   46MOL   C10322693   2.874   7.684   0.015  1.6169 -0.8697  0.6992
   46MOL   C10422694   2.826   7.682   7.880 -0.0229 -0.8911 -0.2660
   46MOL   C10522695   2.806   7.807   0.081 -0.0846 -0.9242 -0.7970
   46MOL   O10622696   2.852   7.869   0.181 -0.3947 -0.2409 -0.5681
   46MOL   O10722697   2.685   7.834   0.035  0.3263 -0.0204  0.1297
   46MOL   C10822698   2.615   7.948   0.077 -0.4456 -0.1318 -0.2093
   46MOL   C10922699   2.611   0.047   7.972 -0.5349 -0.6869  0.2704
   46MOL   C11022700   2.568   0.177   0.003 -0.0206  0.3681 -0.3891
   46MOL   C11122701   2.556   0.283   7.919  0.3354 -0.3793  0.9852
   46MOL   C11222702   2.589   0.263   7.783 -0.1494  0.3822  0.1839
   46MOL   C11322703   2.637   0.135   7.749  0.2494  0.6616 -0.4194
   46MOL   C11422704   2.653   0.029   7.838  0.3937  0.1758 -0.3076
   46MOL   H11522705   3.051   7.733   0.130  1.0561  1.0380 -0.2292
   46MOL   H11622706   3.062   7.596   0.050  0.5695  1.0347  2.3266
   46MOL   H11722707   2.865   7.768   7.828 -0.0792  1.3888  3.3012
   46MOL   H11822708   2.718   7.672   7.864  0.0418 -0.4859 -0.9473
   46MOL   H11922709   2.860   7.594   7.826 -0.2213 -1.0839 -0.0807
   46MOL   H12022710   2.513   7.913   0.096  0.3866 -2.1046  0.8776
   46MOL   H12122711   2.653   7.998   0.166  2.1404 -2.2471 -0.0516
   46MOL   H12222712   2.543   0.196   0.106  0.5031  2.3054 -0.6130
   46MOL   H12322713   2.531   0.384   7.947 -1.6367  0.0138 -2.0375
   46MOL   H12422714   2.573   0.342   7.712 -2.7469  0.4311  0.7504
   46MOL   H12522715   2.667   0.119   7.646 -1.4616 -1.0169 -0.6739
   46MOL   H12622716   2.681   7.937   7.807 -0.0547  0.0177 -0.2226
   46MOL   C12722717   2.832   7.556   0.096  0.3259  0.2817  0.3069
   46MOL   C12822718   2.846   7.400   0.044  0.8938  0.0684 -0.9469
   46MOL   C12922719   2.984   7.373   7.980 -0.0812 -0.2920 -0.2281
   46MOL   C13022720   2.722   7.377   7.955 -0.2662  0.5101 -0.2293
   46MOL   O13122721   2.609   7.421   7.983  0.0675  0.4834  0.0667
   46MOL   O13222722   2.752   7.303   7.853  0.1964  0.6984 -0.0057
   46MOL   C13322723   2.659   7.263   7.758  0.0547 -0.1981  0.0597
   46MOL   C13422724   2.725   7.249   7.622  0.2598  0.0330 -0.2037
   46MOL   C13522725   2.642   7.208   7.518  0.3551  0.4042  0.1434
   46MOL   C13622726   2.699   7.193   7.388 -0.1184  0.1700 -0.3547
   46MOL   C13722727   2.837   7.212   7.374  0.1506 -0.1695 -0.1895
   46MOL   C13822728   2.917   7.257   7.479  0.1962 -0.3625  0.6625
   46MOL   C13922729   2.860   7.278   7.604 -0.6137  0.1309  0.0221
   46MOL   H14022730   2.727   7.571   0.121  0.3269  0.7964  0.0208
   46MOL   H14122731   2.888   7.581   0.186 -0.6352  1.6561  0.5547
   46MOL   H14222732   2.979   7.274   7.933 -0.3239 -0.2489 -0.2885
   46MOL   H14322733   3.076   7.375   0.032  0.0534 -1.1182 -0.4017
   46MOL   H14422734   3.006   7.439   7.896 -0.4436  0.0812 -0.0293
   46MOL   H14522735   2.603   7.175   7.789  1.3984 -0.9622  0.3420
   46MOL   H14622736   2.579   7.338   7.755 -0.6219 -0.9420 -0.9632
   46MOL   H14722737   2.537   7.195   7.539  0.5170  1.2334  1.5599
   46MOL   H14822738   2.649   7.164   7.297 -1.3591 -1.3801  0.7765
   46MOL   H14922739   2.875   7.194   7.275 -1.7133 -0.9040 -0.7884
   46MOL   H15022740   3.021   7.281   7.462  0.1977  1.0512  2.4477
   46MOL   H15122741   2.924   7.321   7.680 -0.4296  0.5423 -0.3679
   46MOL   C15222742   2.816   7.295   0.158 -0.2667 -1.1672  0.7432
   46MOL   C15322743   2.888   7.275   0.291  0.9909 -0.3143  0.4796
   46MOL   C15422744   2.842   7.383   0.386 -0.4571 -0.4433  0.1952
   46MOL   C15522745   3.045   7.289   0.277  0.0105  0.1694 -0.3632
   46MOL   O15622746   3.104   7.221   0.198  0.3493 -0.1344  0.3450
   46MOL   O15722747   3.111   7.373   0.374  0.9098 -0.0902 -0.0690
   46MOL   C15822748   3.243   7.401   0.351  0.2687 -0.4839  0.0665
   46MOL   C15922749   3.312   7.474   0.465 -0.1747 -0.1137 -0.6346
   46MOL   C16022750   3.251   7.464   0.592  0.1174 -0.7244 -0.7326
   46MOL   C16122751   3.324   7.519   0.698  0.8238 -0.4206  0.7493
   46MOL   C16222752   3.443   7.593   0.685 -0.1196  0.2179 -0.2050
   46MOL   C16322753   3.492   7.610   0.553  0.1264 -0.7032  0.1941
   46MOL   C16422754   3.423   7.555   0.443 -0.8390 -0.2856 -0.4063
   46MOL   H16522755   2.834   7.202   0.104 -0.5740  0.0712 -1.5467
   46MOL   H16622756   2.710   7.296   0.184 -0.8623 -1.4563 -1.5891
   46MOL   H16722757   2.734   7.390   0.371 -0.2022  2.1468 -0.6399
   46MOL   H16822758   2.881   7.480   0.358  1.0823 -1.3742 -0.9880
   46MOL   H16922759   2.870   7.360   0.489  0.7840 -1.1819 -0.2842
   46MOL   H17022760   3.300   7.310   0.332 -0.1363 -0.8380  0.5436
   46MOL   H17122761   3.256   7.462   0.262  0.3130  3.2982  2.5006
   46MOL   H17222762   3.155   7.414   0.601 -0.4285  0.0633 -2.0622
   46MOL   H17322763   3.270   7.498   0.789 -1.6973 -1.3944 -0.8980
   46MOL   H17422764   3.492   7.643   0.766 -2.9470  2.2184  0.3504
   46MOL   H17522765   3.581   7.669   0.538  0.4764 -1.0112  0.9973
   46MOL   H17622766   3.459   7.574   0.343 -2.6397 -1.4723 -1.3004
   46MOL   C17722767   2.848   7.132   0.334 -0.4090  0.1593 -0.4077
   46MOL   C17822768   2.866   7.056   0.468  0.2081 -0.4176  0.2908
   46MOL   C17922769   2.793   6.925   0.461 -0.1158 -0.2846  0.1969
   46MOL   C18022770   2.789   7.136   0.577 -0.6781  0.4303  0.4247
   46MOL   O18122771   2.835   7.150   0.695 -0.1193  0.1484 -0.3536
   46MOL   O18222772   2.670   7.185   0.534 -0.4965 -0.2715 -0.6973
   46MOL   C18322773   2.601   7.279   0.618  0.4685  0.1131 -0.1278
   46MOL   C18422774   2.518   7.212   0.730 -0.6052 -0.1492 -0.1067
   46MOL   C18522775   2.470   7.285   0.841 -0.4283 -0.1605 -0.2405
   46MOL   C18622776   2.389   7.233   0.947  0.1719 -0.1039  0.5053
   46MOL   C18722777   2.357   7.095   0.944  0.2308 -0.6919 -0.1834
   46MOL   C18822778   2.399   7.018   0.833  0.4738  0.0927 -0.4697
   46MOL   C18922779   2.469   7.079   0.725 -0.2153 -0.2920 -0.1016
   46MOL   H19022780   2.915   7.076   0.269  0.6663  0.9313  0.0191
   46MOL   H19122781   2.750   7.110   0.292 -0.2390  0.7893 -1.1590
   46MOL   H19222782   2.804   6.849   0.537  0.2354 -0.6878 -0.2512
   46MOL   H19322783   2.818   6.883   0.363  2.8719  0.6285  0.5195
   46MOL   H19422784   2.686   6.947   0.457 -0.5989 -2.6625 -0.6732
   46MOL   H19522785   2.678   7.348   0.652 -0.0505 -0.1867  1.6963
   46MOL   H19622786   2.533   7.333   0.552 -0.0392 -1.0901 -0.6003
   46MOL   H19722787   2.503   7.387   0.850 -1.9435  0.3708 -0.6440
   46MOL   H19822788   2.361   7.298   1.029  1.3263 -0.4603  1.2026
   46MOL   H19922789   2.317   7.039   1.027  0.4111 -0.6656 -0.0773
   46MOL   H20022790   2.379   6.912   0.832  1.1275 -0.0728  1.9919
   46MOL   H20122791   2.504   7.024   0.639 -0.2909  0.1814 -0.4354
   46MOL   C20222792   3.020   7.042   0.513 -0.3384 -0.4029  0.4988
   46MOL   C20322793   3.111   6.916   0.478  0.1014  0.2981  0.0847
   46MOL   C20422794   3.122   6.898   0.327 -0.5249  0.2412 -0.1091
   46MOL   C20522795   3.060   6.792   0.546  0.1773 -0.5179 -0.3379
   46MOL   O20622796   3.010   6.694   0.486 -0.4696 -0.2429 -0.6657
   46MOL   O20722797   3.063   6.809   0.683  0.0863 -0.4148 -0.2509
   46MOL   C20822798   3.010   6.711   0.774 -0.2110 -0.1492 -0.3742
   46MOL   C20922799   2.871   6.753   0.815  1.0693 -0.8439 -0.8063
   46MOL   C21022800   2.763   6.662   0.806  0.0347 -0.0456  0.0738
   46MOL   C21122801   2.637   6.700   0.862  0.2992 -0.1605 -0.2784
   46MOL   C21222802   2.626   6.814   0.939 -0.2048 -0.0645 -0.3010
   46MOL   C21322803   2.734   6.905   0.944 -0.2217 -0.4722 -0.0060
   46MOL   C21422804   2.851   6.874   0.881 -0.0110 -0.2952  0.0718
   46MOL   H21522805   3.021   7.043   0.622 -0.4704  0.9861  0.5030
   46MOL   H21622806   3.076   7.134   0.495 -0.1153 -1.0039 -1.9445
   46MOL   H21722807   3.178   6.807   0.304  0.7740  0.6578  1.3345
   46MOL   H21822808   3.170   6.971   0.262  1.2944  0.2915  1.2724
   46MOL   H21922809   3.025   6.872   0.284  0.0119  0.2880 -1.3901
   46MOL   H22022810   3.019   6.610   0.734  0.7064 -0.7591  1.3109
   46MOL   H22122811   3.070   6.718   0.865 -2.2069  0.3631  0.9269
   46MOL   H22222812   2.761   6.573   0.745  1.5725 -0.0855  0.0632
   46MOL   H22322813   2.545   6.643   0.858 -0.2736  0.7810 -0.6057
   46MOL   H22422814   2.530   6.836   0.985  2.1871  1.4950  4.2183
   46MOL   H22522815   2.728   7.000   0.995 -1.7416 -0.4117 -0.2768
   46MOL   H22622816   2.940   6.936   0.885 -0.9750  1.0566  1.8566
   46MOL   C22722817   3.256   6.953   0.537 -0.1401  0.1648 -0.0612
   46MOL   C22822818   3.395   6.888   0.520  0.5405 -0.3154 -0.5297
   46MOL   C22922819   3.447   6.923   0.379 -0.7341  1.0750  0.3320
   46MOL   C23022820   3.392   6.732   0.548  0.0995  0.4107  0.1410
   46MOL   O23122821   3.317   6.675   0.631 -0.4432  0.1543  0.4254
   46MOL   O23222822   3.467   6.667   0.454  0.2095 -0.7831  0.3130
   46MOL   C23322823   3.489   6.526   0.464  0.1515  0.5234  0.6422
   46MOL   C23422824   3.395   6.462   0.369 -0.8356 -0.3392  0.7711
   46MOL   C23522825   3.356   6.332   0.399 -0.1895 -0.5055  0.4882
   46MOL   C23622826   3.268   6.265   0.320  0.2801  0.7480  0.3294
   46MOL   C23722827   3.206   6.330   0.210  0.1805 -0.8453  0.1776
   46MOL   C23822828   3.243   6.461   0.180 -0.7734 -0.3486 -0.6743
   46MOL   C23922829   3.338   6.528   0.259  0.5731 -0.4195 -0.5467
   46MOL   H24022830   3.237   6.951   0.644  0.8200 -1.0970  0.0976
   46MOL   H24122831   3.284   7.057   0.524  0.2452  0.4198  2.5812
   46MOL   H24222832   3.553   6.900   0.370 -0.8614 -0.0902  1.5495
   46MOL   H24322833   3.444   7.029   0.354  1.9001  1.1641  0.2697
   46MOL   H24422834   3.403   6.863   0.299 -0.8179  0.3164  0.9379
   46MOL   H24522835   3.595   6.501   0.452  0.0449  1.0943 -1.5624
   46MOL   H24622836   3.469   6.490   0.566 -1.6393 -4.0668 -1.1864
   46MOL   H24722837   3.395   6.287   0.490 -2.3125  1.3229  2.3718
   46MOL   H24822838   3.241   6.166   0.353  0.0900  1.4517  2.3986
   46MOL   H24922839   3.134   6.276   0.149  0.2850 -2.6318  1.5954
   46MOL   H25022840   3.188   6.511   0.101  3.1059  4.9425 -0.3533
   46MOL   H25122841   3.375   6.626   0.231 -1.6460  0.4811 -0.4095
   46MOL   C25222842   3.494   6.956   0.627 -0.1821 -0.1126 -0.3962
   46MOL   C25322843   3.631   6.904   0.691  0.4365 -0.1130 -1.0016
   46MOL   C25422844   3.724   6.859   0.571 -0.1089  0.5685  0.2617
   46MOL   C25522845   3.601   6.776   0.775  0.0749 -0.0892  0.4677
   46MOL   O25622846   3.664   6.666   0.763 -0.0825  0.1974  0.1965
   46MOL   O25722847   3.495   6.780   0.848 -0.0253 -0.4606 -0.4249
   46MOL   C25822848   3.458   6.667   0.922 -0.6140 -0.6993 -0.1477
   46MOL   C25922849   3.326   6.691   0.997 -0.7410 -0.2735  0.3661
   46MOL   C26022850   3.269   6.584   1.068  0.2597  0.1777 -0.2246
   46MOL   C26122851   3.146   6.594   1.134  0.7787 -0.2898 -0.3079
   46MOL   C26222852   3.085   6.727   1.141 -0.1992 -0.4598 -0.4079
   46MOL   C26322853   3.151   6.838   1.082 -0.0142  0.4072  0.0584
   46MOL   C26422854   3.270   6.823   1.015 -0.6189 -0.5967  0.5253
   46MOL   H26522855   3.431   6.974   0.714  0.1345  1.7421 -0.5118
   46MOL   H26622856   3.510   7.058   0.591 -2.7022  1.2866  2.2357
   46MOL   H26722857   3.817   6.809   0.599 -1.0881 -0.0437  2.5336
   46MOL   H26822858   3.749   6.941   0.505 -0.4295  0.2885 -0.2145
   46MOL   H26922859   3.672   6.791   0.503  0.6908  0.8744 -0.6536
   46MOL   H27022860   3.441   6.584   0.854 -0.3108 -0.2998 -0.7104
   46MOL   H27122861   3.540   6.647   0.991  0.0891 -0.9688 -1.0571
   46MOL   H27222862   3.323   6.491   1.059  0.1978 -0.2213  2.8922
   46MOL   H27322863   3.103   6.515   1.193 -3.0381  1.0717 -1.1369
   46MOL   H27422864   2.993   6.743   1.195 -0.0592 -1.5932  0.2022
   46MOL   H27522865   3.123   6.942   1.093 -0.6912  0.0686  1.5728
   46MOL   H27622866   3.320   6.903   0.962 -1.8472  1.0634  1.8004
   46MOL   C27722867   3.686   7.019   0.775 -0.0654 -0.1559  0.0172
   46MOL   C27822868   3.833   7.016   0.836 -0.5053  0.4216  0.0367
   46MOL   C27922869   3.940   7.021   0.718  0.0609  0.1973 -0.0769
   46MOL   C28022870   3.854   6.901   0.939  0.0393 -0.3007  0.3303
   46MOL   O28122871   3.944   6.821   0.939  0.0600  0.2191 -0.2768
   46MOL   O28222872   3.755   6.897   1.021 -0.3328  0.1260  0.0273
   46MOL   C28322873   3.752   6.811   1.131  0.0460  0.4358  0.0312
   46MOL   C28422874   3.626   6.837   1.212  0.3660 -0.6618  0.2613
   46MOL   C28522875   3.545   6.957   1.193  0.3218  0.1701 -1.0111
   46MOL   C28622876   3.417   6.970   1.253  0.2051  0.6014  0.4099
   46MOL   C28722877   3.369   6.861   1.335  0.4459 -0.4439  0.2809
   46MOL   C28822878   3.451   6.747   1.363 -0.1469 -0.1432 -0.0093
   46MOL   C28922879   3.572   6.731   1.293 -0.1299 -0.5740  0.3181
   46MOL   H29022880   3.611   7.047   0.849  1.5770  1.1668  1.2092
   46MOL   H29122881   3.686   7.109   0.714 -2.6568 -0.5282 -0.6146
   46MOL   H29222882   3.899   7.052   0.622  0.8752  0.7812 -0.2403
   46MOL   H29322883   3.984   6.926   0.689 -0.3942 -0.8012  2.3980
   46MOL   H29422884   4.022   7.093   0.723 -0.2124  0.7427 -2.7757
   46MOL   H29522885   3.738   6.714   1.085  0.4593  0.3055  0.1770
   46MOL   H29622886   3.846   6.812   1.186  0.6392  1.0135 -0.9825
   46MOL   H29722887   3.578   7.044   1.138 -0.9518  2.3725  1.5452
   46MOL   H29822888   3.366   7.065   1.249  1.4425  1.2162 -1.0038
   46MOL   H29922889   3.276   6.866   1.390  1.1463  0.2676  1.4121
   46MOL   H30022890   3.423   6.677   1.441  0.4170 -0.4051 -0.0348
   46MOL   H30122891   3.638   6.648   1.308 -0.3566 -0.7202  0.5033
   46MOL   C30222892   3.858   7.156   0.906 -0.0595  0.1892  0.2177
   46MOL   C30322893   3.970   7.194   1.007  0.0193 -0.0725  0.7011
   46MOL   C30422894   4.105   7.129   0.973 -0.2196  0.1597 -0.7975
   46MOL   C30522895   3.927   7.155   1.150 -0.3141 -0.0382 -0.8097
   46MOL   O30622896   3.825   7.203   1.198 -1.1467  0.4706  0.7582
   46MOL   O30722897   4.014   7.074   1.222  0.1236  0.9305  0.0701
   46MOL   C30822898   3.998   7.042   1.363  0.5010 -0.0202  0.2707
   46MOL   C30922899   4.073   6.914   1.391 -0.3910 -0.2199 -0.5996
   46MOL   C31022900   4.211   6.908   1.399 -0.3604 -0.4185 -0.7495
   46MOL   C31122901   4.269   6.788   1.428 -0.1459  0.2157  0.4386
   46MOL   C31222902   4.193   6.673   1.446 -0.3981  0.0770 -0.1572
   46MOL   C31322903   4.054   6.679   1.429 -0.1976  0.9054  0.1013
   46MOL   C31422904   3.993   6.800   1.395  0.0572 -0.0988 -0.1164
   46MOL   H31522905   3.761   7.173   0.953 -0.9147  0.3326 -1.5343
   46MOL   H31622906   3.847   7.240   0.836  1.0928 -0.1531 -0.3858
   46MOL   H31722907   4.175   7.139   1.056 -1.5026 -1.2524  0.5126
   46MOL   H31822908   4.156   7.168   0.885  2.9881  3.6718  2.4410
   46MOL   H31922909   4.099   7.020   0.971 -2.5573  0.2139  0.9472
   46MOL   H32022910   4.039   7.114   1.434 -3.3922  0.0983  2.5212
   46MOL   H32122911   3.892   7.028   1.381  0.4718  0.9041  0.7994
   46MOL   H32222912   4.266   6.993   1.360 -1.1106  0.9768  1.1492
   46MOL   H32322913   4.374   6.779   1.452 -0.2132  1.1712  1.1254
   46MOL   H32422914   4.233   6.576   1.470  0.3421  0.4444  0.0950
   46MOL   H32522915   4.003   6.585   1.442  0.7491  0.5982  1.7132
   46MOL   H32622916   3.886   6.812   1.387 -0.0746 -1.2435 -0.1908
   46MOL   C32722917   3.976   7.352   0.995  0.1393  0.4579 -0.0878
   46MOL   C32822918   4.094   7.442   1.043  0.4962 -0.7229  0.4494
   46MOL   C32922919   4.227   7.435   0.952 -0.1074  0.0255  0.3599
   46MOL   C33022920   4.134   7.410   1.193 -0.1270  0.4613 -0.3150
   46MOL   O33122921   4.255   7.390   1.226 -0.6073 -0.2783  0.4081
   46MOL   O33222922   4.028   7.414   1.282  0.1664 -0.3993  0.8093
   46MOL   C33322923   4.048   7.431   1.425  0.3014 -0.3872  0.6500
   46MOL   C33422924   4.044   7.582   1.479 -0.1251  1.3994 -0.4077
   46MOL   C33522925   3.982   7.683   1.406  0.3640 -0.4368  0.1703
   46MOL   C33622926   3.990   7.817   1.451 -0.0245 -0.9944  0.6778
   46MOL   C33722927   4.055   7.853   1.572 -0.5033  0.3174 -0.2380
   46MOL   C33822928   4.114   7.746   1.645 -0.0837 -0.9614  0.4074
   46MOL   C33922929   4.103   7.615   1.605 -0.0681 -0.0369  0.2181
   46MOL   H34022930   3.879   7.386   1.031 -0.5550 -1.7589  0.2140
   46MOL   H34122931   3.995   7.386   0.894 -0.9146 -0.2899 -0.5478
   46MOL   H34222932   4.287   7.526   0.960  3.3732 -2.2368  1.5235
   46MOL   H34322933   4.203   7.423   0.846  1.4934 -0.5806  0.0537
   46MOL   H34422934   4.296   7.355   0.980 -0.6829  0.5763  3.4350
   46MOL   H34522935   3.981   7.376   1.490  1.3165 -1.7310  0.5726
   46MOL   H34622936   4.144   7.392   1.460  0.9969  1.8094  1.3258
   46MOL   H34722937   3.922   7.652   1.321 -0.8217 -0.9621  1.1783
   46MOL   H34822938   3.943   7.888   1.384  0.1944 -1.0356  0.4798
   46MOL   H34922939   4.061   7.959   1.592  2.1875  0.7347 -2.9251
   46MOL   H35022940   4.173   7.771   1.732 -2.7752 -2.0395  2.6119
   46MOL   H35122941   4.148   7.548   1.677  3.5307  2.4456  0.4120
   46MOL   C35222942   4.037   7.595   1.045  0.6454 -0.0871 -0.2876
   46MOL   C35322943   3.977   7.674   0.931 -0.7349 -0.2251 -0.0885
   46MOL   C35422944   3.830   7.640   0.903 -0.6246 -0.5580  0.3922
   46MOL   C35522945   4.059   7.650   0.799  0.3476  0.3464  0.1087
   46MOL   O35622946   4.010   7.594   0.701  0.1715  0.1136 -0.0855
   46MOL   O35722947   4.178   7.710   0.809 -0.0528  1.1463 -0.1319
   46MOL   C35822948   4.266   7.710   0.696  0.3373 -0.2495  0.2171
   46MOL   C35922949   4.412   7.715   0.725 -0.2284 -0.0225 -0.5074
   46MOL   C36022950   4.504   7.672   0.629 -0.5525 -0.6169 -0.4619
   46MOL   C36122951   4.647   7.675   0.656  0.4410  0.1093  0.9394
   46MOL   C36222952   4.691   7.731   0.779 -0.8795 -0.2628  0.2940
   46MOL   C36322953   4.594   7.769   0.875 -0.1397 -0.4198 -0.3268
   46MOL   C36422954   4.454   7.765   0.849  0.7290 -0.1062  0.1057
   46MOL   H36522955   4.114   7.650   1.098  1.8124 -1.2668 -0.7242
   46MOL   H36622956   3.969   7.594   1.131 -1.0495  1.2368 -1.5846
   46MOL   H36722957   3.791   7.690   0.815  1.2305  1.4303  0.6397
   46MOL   H36822958   3.766   7.658   0.990  0.9549  2.0295  1.0884
   46MOL   H36922959   3.827   7.535   0.876 -0.2533 -0.9793  1.9489
   46MOL   H37022960   4.245   7.623   0.634  1.2184  0.7810 -1.5584
   46MOL   H37122961   4.252   7.801   0.640 -0.0677 -0.7619 -0.5180
   46MOL   H37222962   4.459   7.634   0.538 -3.1390  0.0881  0.4756
   46MOL   H37322963   4.717   7.646   0.579 -0.1236 -0.2367  0.5514
   46MOL   H37422964   4.796   7.755   0.793 -0.4670 -0.4206 -2.2673
   46MOL   H37522965   4.628   7.817   0.966  0.7183  0.2290 -0.9838
   46MOL   H37622966   4.377   7.797   0.917 -0.1208 -1.7205 -0.0601
   46MOL   C37722967   3.989   7.825   0.983 -0.1161  0.4853  0.4636
   46MOL   C37822968   3.917   7.949   0.914  0.1274 -0.2405  0.1439
   46MOL   C37922969   3.955   7.956   0.759 -0.2505  0.1139  0.1535
   46MOL   C38022970   3.964   0.074   0.992  0.1227  0.9458  0.9905
   46MOL   O38122971   3.952   0.081   1.117  0.1407  0.2723 -0.5258
   46MOL   O38222972   4.021   0.159   0.913 -0.0592 -0.0196  0.4891
   46MOL   C38322973   4.074   0.277   0.964  0.3651  0.6483 -0.1427
   46MOL   C38422974   3.979   0.395   0.979  0.1173  0.8224 -0.4999
   46MOL   C38522975   3.972   0.471   1.094  0.6741 -0.3698 -0.3161
   46MOL   C38622976   3.886   0.578   1.105  0.1794 -0.3142  0.1259
   46MOL   C38722977   3.805   0.615   0.994  0.0365 -0.3157  0.2013
   46MOL   C38822978   3.814   0.546   0.873 -0.3594  0.2667 -0.4473
   46MOL   C38922979   3.904   0.438   0.862 -0.7493 -0.1017  0.1744
   46MOL   H39022980   4.094   7.856   0.990 -0.1736  1.1662 -1.3232
   46MOL   H39122981   3.942   7.809   1.080  1.4083 -1.3638  0.9345
   46MOL   H39222982   4.063   7.957   0.745 -0.6007 -0.4955 -2.8776
   46MOL   H39322983   3.921   0.044   0.717  0.9946 -0.4078 -2.1355
   46MOL   H39422984   3.912   7.871   0.706 -0.2353 -0.1954  0.6290
   46MOL   H39522985   4.107   0.280   1.068 -1.2010 -0.8874  0.4133
   46MOL   H39622986   4.167   0.301   0.912  1.1731 -1.4720  0.3060
   46MOL   H39722987   4.030   0.454   1.184  1.2259 -2.0174 -0.9796
   46MOL   H39822988   3.880   0.636   1.196  1.6878  1.9393 -1.1652
   46MOL   H39922989   3.746   0.705   1.000  0.8240  0.1494  0.9928
   46MOL   H40022990   3.756   0.574   0.786  1.7865  1.4471 -1.5419
   46MOL   H40122991   3.900   0.378   0.773 -0.2383  1.8366 -1.1853
   46MOL   C40222992   3.757   7.941   0.926  0.4864 -0.6528 -0.2181
   46MOL   C40322993   3.650   0.044   0.899  0.0402 -0.2154  0.3957
   46MOL   C40422994   3.682   0.174   0.978 -0.3886  0.0179  0.5420
   46MOL   C40522995   3.519   7.985   0.942 -0.0406  0.2467  0.3388
   46MOL   O40622996   3.466   7.897   0.872  0.4765 -0.0180 -0.0205
   46MOL   O40722997   3.484   0.015   1.062 -0.1444 -0.6988  0.0202
   46MOL   C40822998   3.375   7.952   1.132  1.0370 -0.3858 -0.0012
   46MOL   C40922999   3.387   7.952   1.284 -0.1594  0.4059 -0.0085
   46MOL   C41023000   3.276   7.941   1.369 -0.5233  0.1777  0.2356
   46MOL   C41123001   3.284   7.949   1.513 -0.6243 -0.0969 -0.0278
   46MOL   C41223002   3.413   7.957   1.566 -0.0590  0.8097  0.0605
   46MOL   C41323003   3.525   7.967   1.481  0.0245  0.2493  0.2184
   46MOL   C41423004   3.517   7.960   1.338 -0.3381  0.2460 -0.6628
   46MOL   H41523005   3.736   7.894   1.022  0.9534 -1.4277 -0.4935
   46MOL   H41623006   3.727   7.855   0.867 -0.0275 -0.7264  0.1508
   46MOL   H41723007   3.599   0.245   0.983 -0.8305 -0.5249  1.2330
   46MOL   H41823008   3.761   0.234   0.933  0.1921 -1.0718  0.0903
   46MOL   H41923009   3.690   0.156   1.086  0.5191  0.9679  0.6372
   46MOL   H42023010   3.274   7.985   1.108  0.8265 -0.2255  1.0560
   46MOL   H42123011   3.375   7.848   1.102 -0.5762 -0.2155 -0.6433
   46MOL   H42223012   3.180   7.940   1.318 -0.1238  1.5725 -0.5783
   46MOL   H42323013   3.200   7.937   1.579  0.0544 -0.1552  0.8379
   46MOL   H42423014   3.427   7.946   1.673 -1.2154  0.5625  0.1929
   46MOL   H42523015   3.623   7.978   1.524 -0.2779  0.6083  0.8306
   46MOL   H42623016   3.609   7.947   1.283  0.4857 -1.8909  1.1509
   46MOL   C42723017   3.647   0.090   0.747 -0.1029  0.2682 -0.2317
   46MOL   C42823018   3.525   0.157   0.669 -0.5364 -0.1487  0.5513
   46MOL   C42923019   3.582   0.224   0.542 -0.4261 -0.5489  0.2942
   46MOL   C43023020   3.450   0.259   0.757 -0.0740 -0.6990 -0.2745
   46MOL   O43123021   3.345   0.239   0.817 -0.9575  0.1720 -0.0595
   46MOL   O43223022   3.524   0.371   0.778 -0.2184  0.6424 -0.4022
   46MOL   C43323023   3.482   0.474   0.864  0.0616 -0.0151 -0.2647
   46MOL   C43423024   3.484   0.613   0.796 -0.2814 -0.0872  0.2630
   46MOL   C43523025   3.488   0.727   0.876  0.5222 -0.1054  0.5223
   46MOL   C43623026   3.510   0.854   0.826  1.5005  0.5367  0.1503
   46MOL   C43723027   3.506   0.868   0.684 -0.4532  0.0684 -0.2062
   46MOL   C43823028   3.492   0.751   0.601 -0.1753  0.1555 -0.7112
   46MOL   C43923029   3.494   0.629   0.661 -1.0897  1.0231 -0.1166
   46MOL   H44023030   3.681   0.005   0.687  1.1350  0.9506 -0.5096
   46MOL   H44123031   3.728   0.162   0.742 -1.7406  2.2736  1.4853
   46MOL   H44223032   3.672   0.279   0.569  1.1578 -2.4196 -1.0827
   46MOL   H44323033   3.515   0.281   0.478 -0.4525 -1.2046 -0.2759
   46MOL   H44423034   3.625   0.150   0.475 -1.6160  0.1126 -1.2370
   46MOL   H44523035   3.377   0.468   0.892  0.2071  1.9893  0.8149
   46MOL   H44623036   3.548   0.465   0.950  0.4632  0.1532 -0.5556
   46MOL   H44723037   3.488   0.713   0.984  1.4996 -1.8757  0.3075
   46MOL   H44823038   3.518   0.937   0.894 -0.7379  2.4174 -1.8177
   46MOL   H44923039   3.523   0.969   0.652  1.8666 -0.3757 -0.4094
   46MOL   H45023040   3.491   0.761   0.494 -0.6076  2.9479 -0.4824
   46MOL   H45123041   3.503   0.545   0.593 -0.7989 -1.4906  2.8901
   46MOL   C45223042   3.429   0.042   0.618  0.5138 -0.0690 -0.6734
   46MOL   C45323043   3.313   0.054   0.509  0.4363  0.0388 -0.3755
   46MOL   C45423044   3.367   8.002   0.379  0.3486  0.7725 -0.4610
   46MOL   C45523045   3.248   0.193   0.487 -0.4131  0.8645 -0.1178
   46MOL   O45623046   3.271   0.254   0.385  0.4021 -0.1557  0.5109
   46MOL   O45723047   3.170   0.231   0.592 -0.0265 -0.0785  0.3812
   46MOL   C45823048   3.108   0.358   0.590  0.6012  0.4402 -0.5098
   46MOL   C45923049   3.020   0.388   0.706  0.3940 -0.2213  0.6194
   46MOL   C46023050   2.926   0.302   0.761 -0.3851 -0.1728  0.5381
   46MOL   C46123051   2.863   0.341   0.888 -0.2247  0.4352  0.2771
   46MOL   C46223052   2.903   0.464   0.948  0.1651 -0.1728 -0.7635
   46MOL   C46323053   3.000   0.550   0.889  0.5185 -0.0431  0.2153
   46MOL   C46423054   3.060   0.510   0.766  0.4940  0.0575  0.3267
   46MOL   H46523055   3.380   0.015   0.711  0.1720 -0.8974 -1.0916
   46MOL   H46623056   3.489   7.968   0.576  0.5569 -0.2508 -0.2563
   46MOL   H46723057   3.370   7.893   0.373  1.4461  0.6556  1.4286
   46MOL   H46823058   3.472   0.020   0.364  0.5083 -0.6191 -1.8091
   46MOL   H46923059   3.315   0.040   0.295 -1.8670  1.2741  1.1419
   46MOL   H47023060   3.177   0.442   0.580  1.2791  0.0135  0.5000
   46MOL   H47123061   3.042   0.366   0.504 -2.7053  0.8836  1.9568
   46MOL   H47223062   2.901   0.210   0.712  0.0641  0.6927 -1.3439
   46MOL   H47323063   2.789   0.278   0.936 -0.4656 -0.9493 -1.8707
   46MOL   H47423064   2.853   0.490   1.040  0.3861 -1.0090 -0.4112
   46MOL   H47523065   3.046   0.622   0.956  1.4637 -0.7207  0.3153
   46MOL   H47623066   3.142   0.572   0.731  0.3117 -0.3760 -0.8715
   46MOL   C47723067   3.213   7.953   0.557  0.1582  0.1438  0.9089
   46MOL   C47823068   3.095   7.914   0.462  0.4046  0.3881 -0.2115
   46MOL   C47923069   2.977   0.007   0.477 -1.0421  0.1290  0.4253
   46MOL   C48023070   3.044   7.768   0.493 -0.3708  0.1672  0.3636
   46MOL   O48123071   3.062   7.680   0.415  0.1701 -0.4301 -0.1762
   46MOL   O48223072   2.991   7.754   0.608  0.1639 -0.2123  0.2581
   46MOL   C48323073   2.918   7.638   0.641  0.2379 -0.2458 -0.8126
   46MOL   C48423074   2.823   7.652   0.755 -0.0879  0.6872  0.2007
   46MOL   C48523075   2.804   7.556   0.856  0.1557 -0.2315  0.1686
   46MOL   C48623076   2.703   7.574   0.951 -0.5540 -0.9480  0.3069
   46MOL   C48723077   2.626   7.689   0.956 -0.2280 -1.0299 -0.8571
   46MOL   C48823078   2.652   7.791   0.863  0.1015 -0.1143  0.0961
   46MOL   C48923079   2.748   7.773   0.762  0.1472  0.2219  0.1383
   46MOL   H49023080   3.176   7.968   0.658  0.2619  0.1845  0.9409
   46MOL   H49123081   3.270   7.861   0.568  0.8689  0.7707  2.6931
   46MOL   H49223082   2.996   0.100   0.424  0.2602 -0.4013 -0.0520
   46MOL   H49323083   2.944   0.024   0.580  2.6064  2.0616  1.3464
   46MOL   H49423084   2.895   7.973   0.419 -0.6063 -0.3108  0.1179
   46MOL   H49523085   2.860   7.595   0.560 -0.4455  0.5540 -0.7565
   46MOL   H49623086   2.979   7.554   0.674  2.0415  0.4751 -2.2193
   46MOL   H49723087   2.866   7.468   0.854 -0.5023 -0.6889 -0.1121
   46MOL   H49823088   2.683   7.494   1.021 -0.6759  0.3510  1.7720
   46MOL   H49923089   2.540   7.700   1.020 -0.4443 -0.5583 -1.2277
   46MOL   H50023090   2.589   7.878   0.855  1.4508  0.9045  0.4146
   46MOL   H50123091   2.764   7.843   0.681  1.0750  0.9950  0.9680
   46MOL   H50223092   3.126   7.908   0.358 -1.4262  0.1495 -0.7683
   47MOL     C123093   3.360   1.241   7.775 -0.3522 -0.1842 -0.5782
   47MOL     C223094   3.459   1.136   7.819  0.0570  0.5579  0.3723
   47MOL     C323095   3.405   1.095   7.957  0.7063 -0.0796 -0.4675
   47MOL     C423096   3.598   1.196   7.831 -0.3389  0.4412  0.3807
   47MOL     O523097   3.632   1.296   7.764  0.1778  0.2554  0.4545
   47MOL     O623098   3.681   1.127   7.906  0.5325 -0.0354 -0.5981
   47MOL     C723099   3.824   1.136   7.897  0.3350  0.2968  0.1115
   47MOL     C823100   3.900   1.186   0.019 -0.0405  0.1333 -0.0175
   47MOL     C923101   4.034   1.140   0.045 -0.0506 -0.2552  0.7074
   47MOL    C1023102   4.115   1.203   0.138 -0.5470 -0.4539  1.1041
   47MOL    C1123103   4.064   1.305   0.213 -0.5480  0.1436 -0.3691
   47MOL    C1223104   3.934   1.355   0.194 -1.0998 -0.3967  0.0525
   47MOL    C1323105   3.848   1.298   0.099  0.1364  0.3071  0.5518
   47MOL    H1423106   3.390   1.291   7.683 -0.8461 -0.9046 -1.1320
   47MOL    H1523107   3.257   1.208   7.765 -0.6472  0.5002  0.1430
   47MOL    H1623108   3.460   1.004   7.982  1.5343  0.8441  1.0937
   47MOL    H1723109   3.300   1.068   7.957  0.6441  0.1285 -1.7898
   47MOL    H1823110   3.424   1.176   0.020  1.0192  2.0965 -2.9639
   47MOL    H1923111   3.867   1.041   7.867 -1.5351 -0.2056 -1.0822
   47MOL    H2023112   3.855   1.200   7.815 -1.7532  1.1603 -0.0544
   47MOL    H2123113   4.077   1.060   7.994  0.0444  1.6866 -2.0274
   47MOL    H2223114   4.218   1.172   0.148 -0.0686  0.1940 -1.5276
   47MOL    H2323115   4.125   1.355   0.286  0.8289 -0.1184 -1.3094
   47MOL    H2423116   3.888   1.424   0.263  1.3542 -0.5223  1.8870
   47MOL    H2523117   3.744   1.327   0.102  0.0310 -0.2570  3.1569
   47MOL    H2623118   3.359   1.324   7.846  1.8323 -0.5213 -0.1037
   47MOL    C2723119   3.458   1.006   7.724  1.3590  0.1492 -0.2261
   47MOL    C2823120   3.438   1.005   7.570  0.4585  0.0392  0.7895
   47MOL    C2923121   3.540   1.104   7.511  0.3696 -0.1248  0.4627
   47MOL    C3023122   3.295   1.051   7.536  0.5521 -0.2049 -0.4473
   47MOL    O3123123   3.269   1.131   7.445 -0.2362  0.3118 -0.0421
   47MOL    O3223124   3.200   0.982   7.604  0.3076  0.5775 -0.0155
   47MOL    C3323125   3.067   0.983   7.555  0.4215 -0.1079 -0.0189
   47MOL    C3423126   2.968   0.914   7.650  0.8817 -0.4650 -0.3051
   47MOL    C3523127   2.874   0.826   7.592 -0.1535 -0.2097 -0.0249
   47MOL    C3623128   2.784   0.745   7.669 -0.4128  1.0691  1.0409
   47MOL    C3723129   2.796   0.753   7.810 -0.8183  0.2984  0.0835
   47MOL    C3823130   2.904   0.830   7.866  0.3313 -0.4444  0.0536
   47MOL    C3923131   2.987   0.914   7.792  0.6333 -0.5765  0.2327
   47MOL    H4023132   3.384   0.937   7.765  0.6748  0.4653 -0.9198
   47MOL    H4123133   3.552   0.954   7.737  1.7537  0.8523 -0.2618
   47MOL    H4223134   3.525   1.111   7.403 -0.3417  0.6616  0.6081
   47MOL    H4323135   3.646   1.089   7.530  0.5041 -2.9154 -2.1513
   47MOL    H4423136   3.525   1.205   7.550  3.6350 -0.0517  1.6937
   47MOL    H4523137   3.039   1.086   7.535 -1.1683 -0.8857 -1.9496
   47MOL    H4623138   3.077   0.933   7.459  0.3808  0.3804 -0.2782
   47MOL    H4723139   2.870   0.818   7.485 -0.1152  3.0084 -0.3193
   47MOL    H4823140   2.717   0.679   7.616 -0.0356  1.5441 -0.0282
   47MOL    H4923141   2.732   0.685   7.864  0.4750 -1.5722 -0.6680
   47MOL    H5023142   2.903   0.829   7.974 -1.6734 -1.1490  0.0417
   47MOL    H5123143   3.068   0.974   7.829  0.4143  0.0027 -0.2201
   47MOL    C5223144   3.467   0.859   7.520 -0.0890 -0.4961 -0.1778
   47MOL    C5323145   3.445   0.800   7.373 -0.3630 -0.5040 -0.3746
   47MOL    C5423146   3.295   0.824   7.329 -0.0913  0.7459  0.9217
   47MOL    C5523147   3.471   0.651   7.387 -0.1837 -0.3731  0.6246
   47MOL    O5623148   3.393   0.564   7.351 -0.3174 -0.4074  0.5545
   47MOL    O5723149   3.588   0.617   7.445  0.1566  0.0976 -0.0687
   47MOL    C5823150   3.619   0.482   7.464  0.0433  0.0672 -0.3274
   47MOL    C5923151   3.772   0.459   7.469  0.3179 -0.4646 -0.1954
   47MOL    C6023152   3.859   0.557   7.521 -0.3080 -0.7511 -0.8149
   47MOL    C6123153   4.001   0.542   7.520  0.0213  0.7994 -0.2430
   47MOL    C6223154   4.055   0.432   7.447 -0.1041 -1.2237 -0.3520
   47MOL    C6323155   3.968   0.332   7.401  0.4682  0.0841 -0.4328
   47MOL    C6423156   3.831   0.341   7.415 -0.3794  0.1458 -0.3023
   47MOL    H6523157   3.405   0.801   7.588  0.8905 -1.4843 -0.1199
   47MOL    H6623158   3.569   0.840   7.552  0.3074 -0.7883 -1.5738
   47MOL    H6723159   3.277   0.922   7.284  0.3801  0.5113  0.2245
   47MOL    H6823160   3.228   0.807   7.413 -1.7367  0.1467 -0.4910
   47MOL    H6923161   3.266   0.751   7.254  2.0071  1.5473 -0.7302
   47MOL    H7023162   3.565   0.450   7.552 -0.1856 -1.3888 -0.9871
   47MOL    H7123163   3.580   0.419   7.383  0.0968  1.8243 -1.7675
   47MOL    H7223164   3.815   0.645   7.564  0.8945 -0.4738 -0.1194
   47MOL    H7323165   4.051   0.628   7.560 -0.5651  0.1446  1.9608
   47MOL    H7423166   4.160   0.420   7.427  0.5629  0.3299  1.9668
   47MOL    H7523167   4.021   0.256   7.347 -0.6188 -0.5651 -0.6167
   47MOL    H7623168   3.765   0.261   7.383 -0.5265  0.4799 -0.8338
   47MOL    C7723169   3.554   0.859   7.271  0.6604 -0.4064 -0.6231
   47MOL    C7823170   3.579   0.789   7.129 -0.0306  0.7583  0.0926
   47MOL    C7923171   3.442   0.745   7.067 -0.2454 -0.0382  0.0350
   47MOL    C8023172   3.678   0.665   7.127  0.5613  0.8276  0.1495
   47MOL    O8123173   3.746   0.635   7.225  0.3365  0.2534 -0.1729
   47MOL    O8223174   3.691   0.607   7.015 -0.1585 -0.0058  0.3448
   47MOL    C8323175   3.777   0.498   6.984 -0.4189  0.0140 -0.2392
   47MOL    C8423176   3.714   0.359   6.998 -0.1502 -0.0373 -0.7816
   47MOL    C8523177   3.600   0.325   6.919  0.0381 -0.2873 -0.0775
   47MOL    C8623178   3.526   0.205   6.937 -0.4565 -0.5443  0.2378
   47MOL    C8723179   3.589   0.108   7.013  0.3784  0.0093  0.5088
   47MOL    C8823180   3.709   0.128   7.079  0.2796  0.5635 -0.3044
   47MOL    C8923181   3.768   0.256   7.080 -0.4012 -0.2943 -0.7373
   47MOL    H9023182   3.651   0.865   7.321  1.6157  3.1205 -2.6730
   47MOL    H9123183   3.547   0.967   7.257 -0.2292 -0.3259  0.4004
   47MOL    H9223184   3.451   0.722   6.961  2.3912 -0.9096  0.3985
   47MOL    H9323185   3.370   0.825   7.078 -0.9447 -0.3478 -2.0599
   47MOL    H9423186   3.393   0.661   7.116 -2.9942  2.6603  2.0938
   47MOL    H9523187   3.804   0.512   6.879 -0.2306  2.0697  0.0591
   47MOL    H9623188   3.866   0.508   7.046 -1.7260 -1.5985  1.9798
   47MOL    H9723189   3.551   0.394   6.852  2.1765  2.4837  1.1035
   47MOL    H9823190   3.431   0.188   6.890 -0.8330  3.5532 -0.6985
   47MOL    H9923191   3.547   0.008   7.022  0.6171 -0.3459 -1.8519
   47MOL   H10023192   3.737   0.043   7.140 -0.5201 -0.0954 -0.8496
   47MOL   H10123193   3.856   0.270   7.141 -0.9029  0.9668 -0.2878
   47MOL   C10223194   3.637   0.899   7.033 -0.1884  0.0195  0.0314
   47MOL   C10323195   3.779   0.984   7.056  0.5824  0.0179  0.0543
   47MOL   C10423196   3.743   1.113   7.137 -0.9886  0.3187 -0.1766
   47MOL   C10523197   3.821   1.027   6.912  0.4352 -0.1421  0.3042
   47MOL   O10623198   3.802   1.133   6.862 -0.0614 -0.1910  0.3047
   47MOL   O10723199   3.868   0.923   6.845  0.3170 -0.0805 -0.0853
   47MOL   C10823200   3.914   0.932   6.704  0.2098 -0.0514  0.0132
   47MOL   C10923201   3.877   0.810   6.619 -0.2839 -0.4157 -0.2794
   47MOL   C11023202   3.897   0.821   6.478 -0.1587  0.5448  0.1773
   47MOL   C11123203   3.847   0.713   6.399 -0.2014 -0.5962  0.1814
   47MOL   C11223204   3.775   0.611   6.458 -0.6775  0.1079 -0.2335
   47MOL   C11323205   3.754   0.605   6.594  0.3199  0.0176  0.4350
   47MOL   C11423206   3.807   0.703   6.679  1.2646  0.6371  0.8463
   47MOL   H11523207   3.557   0.965   7.000 -1.8011 -2.0778 -0.3810
   47MOL   H11623208   3.648   0.843   6.940  2.4357 -0.4600  0.5849
   47MOL   H11723209   3.816   1.193   7.124  0.0145 -1.0037 -3.0209
   47MOL   H11823210   3.746   1.092   7.244  1.5295  0.2303 -0.2399
   47MOL   H11923211   3.646   1.157   7.116  0.3354  2.1923 -2.5290
   47MOL   H12023212   3.877   1.023   6.658  0.1976  0.3310  0.7692
   47MOL   H12123213   4.023   0.929   6.704  0.2031 -4.1257 -0.5225
   47MOL   H12223214   3.951   0.906   6.438 -0.3156  0.2555 -0.6422
   47MOL   H12323215   3.874   0.719   6.295 -0.7637 -0.9318  0.0139
   47MOL   H12423216   3.724   0.540   6.394 -1.4175  0.2661  0.1776
   47MOL   H12523217   3.688   0.525   6.625 -0.8493  1.0353  0.6261
   47MOL   H12623218   3.782   0.696   6.784 -0.2333 -2.4120  0.3604
   47MOL   C12723219   3.883   0.900   7.126 -0.3593 -0.5874 -0.2509
   47MOL   C12823220   4.039   0.935   7.150  0.6586 -0.0069  0.1334
   47MOL   C12923221   4.070   0.829   7.255 -0.3116  0.3971  0.1004
   47MOL   C13023222   4.062   1.079   7.215 -0.3823  0.1841 -0.3456
   47MOL   O13123223   4.086   1.093   7.337 -0.0823  0.1091  0.4855
   47MOL   O13223224   4.057   1.185   7.124 -0.3420  0.2214  0.1567
   47MOL   C13323225   4.075   1.315   7.166 -0.1113 -0.0941 -0.8214
   47MOL   C13423226   4.052   1.409   7.048 -0.0453  0.4774  0.7192
   47MOL   C13523227   4.064   1.365   6.908 -0.5712 -0.0587 -0.4721
   47MOL   C13623228   4.026   1.454   6.804  0.5742 -0.5712 -0.2393
   47MOL   C13723229   3.994   1.586   6.840  0.1499  0.0866 -0.3682
   47MOL   C13823230   3.997   1.632   6.973 -0.4012 -0.4363  0.0399
   47MOL   C13923231   4.026   1.545   7.080  0.6424 -0.1658  0.3338
   47MOL   H14023232   3.887   0.805   7.073 -0.3306  1.2352 -3.6838
   47MOL   H14123233   3.841   0.894   7.226 -0.6251  4.5428  0.1018
   47MOL   H14223234   4.172   0.832   7.291  0.1167  0.1851 -1.0581
   47MOL   H14323235   4.040   0.730   7.218  0.6304  1.2531 -3.1793
   47MOL   H14423236   4.005   0.839   7.342 -0.1613 -0.6762  0.3371
   47MOL   H14523237   4.006   1.339   7.247  1.5302  0.5832  0.4011
   47MOL   H14623238   4.175   1.331   7.206 -0.1807  0.5621 -0.8956
   47MOL   H14723239   4.086   1.265   6.874  0.3634  0.1065 -0.3747
   47MOL   H14823240   4.044   1.435   6.699  1.0206  1.3512 -0.5365
   47MOL   H14923241   3.966   1.654   6.761  1.8347  1.1374 -0.0730
   47MOL   H15023242   3.981   1.738   6.987 -1.0336 -0.1185 -2.7259
   47MOL   H15123243   4.022   1.591   7.177 -0.2604  0.8576 -0.1707
   47MOL   C15223244   4.125   0.915   7.020 -0.0730  0.4757  0.3351
   47MOL   C15323245   4.277   0.864   7.029  0.3921  0.6015 -0.0001
   47MOL   C15423246   4.321   0.870   6.880 -0.7031  0.6676  0.4476
   47MOL   C15523247   4.274   0.710   7.072  0.3946  0.2650  0.2759
   47MOL   O15623248   4.329   0.673   7.174  0.0182 -0.2300  0.0097
   47MOL   O15723249   4.196   0.627   7.001 -0.1652  0.0357  0.3051
   47MOL   C15823250   4.171   0.500   7.055 -0.0544  0.4088 -0.2372
   47MOL   C15923251   4.108   0.404   6.953 -0.1547  0.0491  0.5398
   47MOL   C16023252   4.116   0.265   6.977  0.4631  0.7089  0.2789
   47MOL   C16123253   4.063   0.170   6.880  0.0340  0.3284  0.3533
   47MOL   C16223254   4.006   0.218   6.759  0.0158  0.0968 -0.7552
   47MOL   C16323255   4.000   0.356   6.741  0.0991 -0.3361  0.0960
   47MOL   C16423256   4.056   0.452   6.832  0.0211 -0.0911  0.3058
   47MOL   H16523257   4.115   0.998   6.950 -2.3799 -0.1491 -0.1409
   47MOL   H16623258   4.070   0.845   6.955  2.9931  0.2668 -2.1535
   47MOL   H16723259   4.401   0.798   6.863 -1.6838 -0.5242  0.7515
   47MOL   H16823260   4.350   0.964   6.833  1.4728  0.3463  1.1314
   47MOL   H16923261   4.233   0.841   6.822 -1.6493  2.7276  0.7917
   47MOL   H17023262   4.252   0.446   7.104  0.3038 -0.8944 -2.2058
   47MOL   H17123263   4.104   0.518   7.140 -0.5295 -1.2144 -0.2362
   47MOL   H17223264   4.157   0.232   7.071  0.7512 -0.7097 -0.3433
   47MOL   H17323265   4.061   0.062   6.890 -2.2306  0.3603  0.5260
   47MOL   H17423266   3.965   0.148   6.687  1.2068  0.9093 -2.2725
   47MOL   H17523267   3.954   0.388   6.649  1.3267 -0.4015 -0.5534
   47MOL   H17623268   4.050   0.558   6.811 -0.2131 -0.0782  0.4401
   47MOL   C17723269   4.360   0.967   7.117 -0.0066  0.4050  0.1403
   47MOL   C17823270   4.515   0.962   7.144  0.4726  0.2874  0.2314
   47MOL   C17923271   4.591   0.927   7.014  0.3419  0.8008 -0.5263
   47MOL   C18023272   4.549   0.848   7.241 -0.5441  0.6231 -0.1782
   47MOL   O18123273   4.639   0.763   7.223 -0.1937  0.3942 -0.7240
   47MOL   O18223274   4.461   0.853   7.351  0.1723 -0.4681  0.1480
   47MOL   C18323275   4.469   0.755   7.455  0.5616 -0.3312  0.3312
   47MOL   C18423276   4.362   0.785   7.555  0.0384  0.0307  0.3636
   47MOL   C18523277   4.335   0.694   7.662 -0.5676  0.3890  0.5231
   47MOL   C18623278   4.247   0.729   7.768  0.1677 -0.2214 -0.2922
   47MOL   C18723279   4.176   0.850   7.766  0.4498  0.1779 -0.7884
   47MOL   C18823280   4.195   0.939   7.659  0.0833 -0.2660  0.7804
   47MOL   C18923281   4.286   0.904   7.555 -0.0362 -0.3402 -0.4091
   47MOL   H19023282   4.308   0.975   7.212  0.1047 -0.0008  0.2373
   47MOL   H19123283   4.339   1.060   7.064  2.4926  0.7335 -0.3193
   47MOL   H19223284   4.699   0.932   7.025  0.0364  2.9977  1.8167
   47MOL   H19323285   4.568   1.001   6.936  2.3387 -0.6775 -2.5910
   47MOL   H19423286   4.560   0.829   6.978  0.7275  0.7967 -0.8546
   47MOL   H19523287   4.449   0.655   7.416 -1.0481  0.7771 -1.7877
   47MOL   H19623288   4.566   0.764   7.504  0.3278  0.7061  0.6096
   47MOL   H19723289   4.393   0.603   7.668 -0.8491  0.0328 -1.8013
   47MOL   H19823290   4.233   0.659   7.849  0.1976 -0.0197 -0.1132
   47MOL   H19923291   4.112   0.884   7.847 -1.0333 -0.0425 -1.8464
   47MOL   H20023292   4.139   1.031   7.650 -1.0874 -1.2149 -2.0284
   47MOL   H20123293   4.288   0.974   7.472  0.7922 -0.1185 -0.1987
   47MOL   C20223294   4.555   1.109   7.203 -0.5667 -0.2697 -0.1678
   47MOL   C20323295   4.696   1.158   7.254 -0.3325  0.4012  0.1932
   47MOL   C20423296   4.734   1.067   7.374 -0.0024  0.1768  0.3355
   47MOL   C20523297   4.663   1.299   7.303 -0.4447  0.1674 -0.5726
   47MOL   O20623298   4.689   1.341   7.413  0.1382 -0.2214  0.4407
   47MOL   O20723299   4.610   1.372   7.209  0.4476 -0.2192  0.2240
   47MOL   C20823300   4.575   1.507   7.234  0.3712  1.1193 -0.1392
   47MOL   C20923301   4.514   1.576   7.117  0.6396  0.2235 -0.1255
   47MOL   C21023302   4.382   1.551   7.068 -0.5787 -0.6226 -0.0385
   47MOL   C21123303   4.336   1.614   6.949 -0.3868 -0.6421 -0.2600
   47MOL   C21223304   4.417   1.713   6.891 -0.1565 -0.2462  0.1389
   47MOL   C21323305   4.537   1.749   6.952 -0.4242  0.1667 -0.0436
   47MOL   C21423306   4.587   1.679   7.064 -0.1216  0.3001  0.4392
   47MOL   H21523307   4.471   1.147   7.262  1.4843  1.5208  1.6873
   47MOL   H21623308   4.525   1.173   7.120  0.3865  0.7747  0.2882
   47MOL   H21723309   4.759   0.965   7.347  0.0611  0.0489  0.8608
   47MOL   H21823310   4.646   1.061   7.439 -0.9453  1.3300 -0.8116
   47MOL   H21923311   4.814   1.090   7.444  0.0006  0.9944  0.0593
   47MOL   H22023312   4.506   1.514   7.318  0.5550 -0.8800  0.2014
   47MOL   H22123313   4.665   1.560   7.263  2.6045 -1.3826 -2.1701
   47MOL   H22223314   4.318   1.481   7.119 -1.9021  0.1696 -0.5837
   47MOL   H22323315   4.236   1.588   6.917 -0.0986 -0.9460 -0.9354
   47MOL   H22423316   4.380   1.768   6.806 -0.5410 -3.3759 -1.8153
   47MOL   H22523317   4.598   1.829   6.914  0.4564 -1.3661 -1.9408
   47MOL   H22623318   4.684   1.702   7.106  0.0064 -0.1290  0.3822
   47MOL   C22723319   4.799   1.149   7.142 -0.3048 -0.3969  0.6136
   47MOL   C22823320   4.927   1.234   7.131 -0.7174  0.0736  0.6213
   47MOL   C22923321   4.895   1.384   7.087 -0.1540  0.5545 -0.1460
   47MOL   C23023322   5.016   1.164   7.018 -0.1687  0.2292 -0.4179
   47MOL   O23123323   5.040   1.227   6.915 -0.1471 -0.9833  0.1900
   47MOL   O23223324   5.045   1.036   7.042 -0.5465 -0.1096  0.4235
   47MOL   C23323325   5.139   0.961   6.959 -0.6421 -0.4015 -0.7444
   47MOL   C23423326   5.213   0.850   7.035  0.2262  0.1085  0.0576
   47MOL   C23523327   5.184   0.812   7.168  0.0562 -0.0005  0.4314
   47MOL   C23623328   5.261   0.718   7.236  0.6267 -0.3954  1.2529
   47MOL   C23723329   5.375   0.660   7.171  0.4332  0.1555  0.3154
   47MOL   C23823330   5.414   0.703   7.044  0.5377 -0.7449  0.0263
   47MOL   C23923331   5.334   0.801   6.977 -0.7916  0.3156  0.2162
   47MOL   H24023332   4.746   1.174   7.051 -2.0635  0.9504  1.9643
   47MOL   H24123333   4.822   1.043   7.127  1.8694 -0.2251  2.4465
   47MOL   H24223334   4.987   1.435   7.057  1.4846 -0.6956  2.6011
   47MOL   H24323335   4.846   1.430   7.173 -1.4640 -1.8767  0.4406
   47MOL   H24423336   4.823   1.387   7.005  0.1483  0.0224 -0.4313
   47MOL   H24523337   5.092   0.917   6.870  1.4764  1.0883 -2.6500
   47MOL   H24623338   5.216   1.029   6.922 -0.6634 -0.2817 -0.5680
   47MOL   H24723339   5.108   0.869   7.221  0.8529  2.7041 -1.2020
   47MOL   H24823340   5.237   0.697   7.339  3.2755  0.9966  2.1814
   47MOL   H24923341   5.429   0.582   7.224 -1.4560 -1.4684 -0.0514
   47MOL   H25023342   5.505   0.655   7.014  0.5916 -0.5716 -0.0904
   47MOL   H25123343   5.369   0.832   6.880  1.0136  0.5271  0.9106
   47MOL   C25223344   5.010   1.223   7.267  0.0372  0.2749 -0.3150
   47MOL   C25323345   5.134   1.313   7.301 -0.8565 -0.1060  0.3981
   47MOL   C25423346   5.198   1.252   7.429 -0.4260 -0.0159  0.2041
   47MOL   C25523347   5.081   1.452   7.340 -0.1543 -0.2423 -0.3395
   47MOL   O25623348   5.085   1.555   7.269 -0.5717 -0.6881  0.7612
   47MOL   O25723349   5.032   1.459   7.465  0.0494 -0.6030  0.6750
   47MOL   C25823350   4.968   1.575   7.501  0.0420  0.3772  0.7960
   47MOL   C25923351   4.893   1.565   7.631 -0.0461 -0.1977  0.0043
   47MOL   C26023352   4.889   1.673   7.724  0.1870 -0.1574  0.5792
   47MOL   C26123353   4.817   1.657   7.842  0.1550 -0.1322 -0.3495
   47MOL   C26223354   4.758   1.531   7.880  0.1427  0.6565 -0.3796
   47MOL   C26323355   4.778   1.423   7.792 -0.3128 -0.8034 -0.2383
   47MOL   C26423356   4.842   1.440   7.670  0.5406 -0.1708 -0.2168
   47MOL   H26523357   5.054   1.123   7.265  1.3991  0.7972  1.7827
   47MOL   H26623358   4.929   1.235   7.339  0.7804 -2.1785  0.9876
   47MOL   H26723359   5.246   1.316   7.503 -1.6228  0.7192  0.3589
   47MOL   H26823360   5.258   1.164   7.407  0.1833  0.3081  0.5534
   47MOL   H26923361   5.120   1.206   7.490 -1.3276  0.6908 -0.3993
   47MOL   H27023362   5.036   1.660   7.499  0.7334 -0.1030  2.9417
   47MOL   H27123363   4.897   1.580   7.418 -1.1926  0.0081  1.8072
   47MOL   H27223364   4.934   1.771   7.717 -0.5848  0.2606  1.3265
   47MOL   H27323365   4.807   1.751   7.896  1.9431 -0.1415  0.0304
   47MOL   H27423366   4.693   1.516   7.965  1.0390 -1.0511  0.0034
   47MOL   H27523367   4.743   1.324   7.815  2.1877 -1.4683  0.8957
   47MOL   H27623368   4.835   1.352   7.609  0.5847 -0.8444  0.7446
   47MOL   C27723369   5.233   1.334   7.178 -0.5539 -0.1319 -0.0657
   47MOL   C27823370   5.386   1.371   7.189  0.0618 -0.1440 -0.9666
   47MOL   C27923371   5.412   1.406   7.043  0.1604 -0.1707 -0.3008
   47MOL   C28023372   5.481   1.252   7.224  0.0100  0.1897  0.2275
   47MOL   O28123373   5.537   1.248   7.333  0.1601  0.2889  0.3246
   47MOL   O28223374   5.498   1.167   7.128 -0.3835 -0.5174 -0.0583
   47MOL   C28323375   5.576   1.051   7.146  0.3776 -0.6940 -0.6553
   47MOL   C28423376   5.704   1.057   7.057  0.8962  0.6109 -0.2452
   47MOL   C28523377   5.787   1.171   7.067  0.1942 -0.2237  0.2495
   47MOL   C28623378   5.883   1.193   6.968  0.5484  0.0966  0.0087
   47MOL   C28723379   5.909   1.091   6.871  0.5455 -0.2870  0.1750
   47MOL   C28823380   5.832   0.969   6.864  0.1501  0.0201  0.4331
   47MOL   C28923381   5.727   0.960   6.959 -0.4766 -1.0340  0.3315
   47MOL   H29023382   5.181   1.393   7.103  0.0739 -1.6025 -1.7033
   47MOL   H29123383   5.239   1.235   7.131  2.6949  0.4936 -1.1270
   47MOL   H29223384   5.518   1.412   7.020  0.3677  0.9292  0.8572
   47MOL   H29323385   5.376   1.505   7.016 -0.0527 -1.1283 -3.8089
   47MOL   H29423386   5.367   1.338   6.971 -1.9845  2.2140 -1.2891
   47MOL   H29523387   5.597   1.046   7.253  1.7173 -0.4914 -0.8994
   47MOL   H29623388   5.521   0.958   7.131  1.6545 -1.3945 -1.0911
   47MOL   H29723389   5.776   1.243   7.147  2.9925  1.6296 -0.9360
   47MOL   H29823390   5.940   1.285   6.976 -0.7387  0.9531 -0.6389
   47MOL   H29923391   5.985   1.107   6.797  1.4940 -2.6851  0.6054
   47MOL   H30023392   5.845   0.891   6.790 -3.4943 -1.7798  1.6009
   47MOL   H30123393   5.666   0.874   6.935  0.8833 -1.8236 -0.3470
   47MOL   C30223394   5.406   1.494   7.281 -0.6898  0.7597 -0.9917
   47MOL   C30323395   5.536   1.582   7.296 -0.6502 -0.1611  0.5872
   47MOL   C30423396   5.613   1.621   7.165  0.4958 -0.0868 -0.1080
   47MOL   C30523397   5.647   1.505   7.376  0.0257  0.2058  0.8300
   47MOL   O30623398   5.764   1.481   7.334  0.0050  0.8209  0.1993
   47MOL   O30723399   5.613   1.478   7.506  0.3634 -0.1834  0.1391
   47MOL   C30823400   5.712   1.428   7.593  0.4353 -0.4126 -0.5256
   47MOL   C30923401   5.723   1.504   7.726 -0.2529  0.0100 -0.4724
   47MOL   C31023402   5.794   1.630   7.731 -0.3548  0.2432 -0.0012
   47MOL   C31123403   5.786   1.712   7.845 -0.0379 -0.5391  0.5713
   47MOL   C31223404   5.720   1.663   7.958  0.4000  0.2735  0.4412
   47MOL   C31323405   5.651   1.539   7.953 -0.2111  0.2212  0.6440
   47MOL   C31423406   5.658   1.454   7.839 -0.2640  0.8600 -0.1059
   47MOL   H31523407   5.370   1.468   7.381 -1.3875  0.8490 -1.2202
   47MOL   H31623408   5.333   1.569   7.252  0.9274  3.0100  0.5637
   47MOL   H31723409   5.657   1.535   7.115 -1.4934 -0.9558 -0.4212
   47MOL   H31823410   5.693   1.690   7.195 -0.0817  1.4308 -1.9106
   47MOL   H31923411   5.552   1.673   7.091  0.5283  0.3007  0.1349
   47MOL   H32023412   5.696   1.325   7.626 -2.1330 -0.5639 -2.0852
   47MOL   H32123413   5.810   1.450   7.551 -0.1143  0.4531 -1.3579
   47MOL   H32223414   5.843   1.659   7.639 -0.1323  0.8449  0.3054
   47MOL   H32323415   5.838   1.806   7.845 -2.2268  0.7309 -1.4506
   47MOL   H32423416   5.727   1.720   0.042  1.2851  0.4284  0.2881
   47MOL   H32523417   5.587   1.508   0.027 -0.1832  0.0533  0.6019
   47MOL   H32623418   5.592   1.368   7.837  1.1821 -0.2852  0.5623
   47MOL   C32723419   5.497   1.708   7.382 -0.4218  0.8335  0.5799
   47MOL   C32823420   5.458   1.848   7.327  0.4523 -0.7641  0.4965
   47MOL   C32923421   5.338   1.832   7.231 -0.9338 -0.3090 -0.3152
   47MOL   C33023422   5.574   1.919   7.254 -0.6374  0.2760 -0.2450
   47MOL   O33123423   5.566   1.949   7.134  0.0050 -0.2300  0.2590
   47MOL   O33223424   5.672   1.939   7.341  0.2331  0.0539  0.1708
   47MOL   C33323425   5.785   2.012   7.290  0.3727  0.1915 -0.3304
   47MOL   C33423426   5.892   2.043   7.388  0.1149 -0.2131  0.2209
   47MOL   C33523427   5.962   2.165   7.372 -0.9670 -0.1787 -0.6499
   47MOL   C33623428   6.068   2.191   7.463 -0.2655 -0.5120  0.8982
   47MOL   C33723429   6.095   2.097   7.569 -0.4819 -0.5263  0.2017
   47MOL   C33823430   6.031   1.976   7.576 -0.5444 -0.2760 -0.3619
   47MOL   C33923431   5.928   1.944   7.480  0.0893  0.7390  0.1144
   47MOL   H34023432   5.575   1.727   7.456  0.5240 -1.4669  0.2098
   47MOL   H34123433   5.416   1.679   7.450 -0.1970  2.2663  1.4806
   47MOL   H34223434   5.254   1.780   7.278 -1.6643  0.2889 -0.9392
   47MOL   H34323435   5.368   1.767   7.150 -0.4802 -0.1724 -0.2597
   47MOL   H34423436   5.320   1.917   7.165  0.8238 -1.7361 -2.7128
   47MOL   H34523437   5.838   1.949   7.219  0.1308 -0.0519 -0.2915
   47MOL   H34623438   5.768   2.109   7.243  0.7546  1.0940  1.3586
   47MOL   H34723439   5.931   2.242   7.303  0.1525  1.0657  0.2242
   47MOL   H34823440   6.124   2.283   7.464  0.5317 -0.9533 -1.0024
   47MOL   H34923441   6.163   2.115   7.652 -0.9854 -2.0046  0.9551
   47MOL   H35023442   6.045   1.907   7.658  1.2000  1.4863  0.8735
   47MOL   H35123443   5.872   1.852   7.484  1.7736 -0.2943  0.5206
   47MOL   C35223444   5.408   1.929   7.456  0.3035  0.1779 -0.3166
   47MOL   C35323445   5.340   2.073   7.455 -0.2851  0.3082  0.1487
   47MOL   C35423446   5.192   2.075   7.399  0.1495  0.7430 -0.6063
   47MOL   C35523447   5.431   2.182   7.385  0.3336 -0.2014 -0.1779
   47MOL   O35623448   5.549   2.201   7.418  0.7877  0.5412 -0.1894
   47MOL   O35723449   5.378   2.235   7.268  0.0240 -0.1414 -0.0790
   47MOL   C35823450   5.458   2.312   7.177 -0.6727  0.0350 -0.2853
   47MOL   C35923451   5.398   2.447   7.138 -0.3216  0.0377  0.5921
   47MOL   C36023452   5.270   2.491   7.182 -0.2413 -0.7301 -0.8632
   47MOL   C36123453   5.221   2.612   7.140 -0.4841 -0.2190 -0.4639
   47MOL   C36223454   5.295   2.692   7.050  0.2789 -0.0659  0.4720
   47MOL   C36323455   5.427   2.649   7.013 -0.0638  0.0968 -0.0412
   47MOL   C36423456   5.480   2.530   7.062 -0.2159  0.1987  0.4268
   47MOL   H36523457   5.497   1.934   7.520  0.8987  1.0873 -1.2057
   47MOL   H36623458   5.344   1.864   7.516 -1.3258  0.1456 -2.0577
   47MOL   H36723459   5.121   2.032   7.469  0.9890 -0.4445 -0.4728
   47MOL   H36823460   5.172   2.021   7.307 -0.7352  1.5711 -0.9074
   47MOL   H36923461   5.156   2.177   7.383 -0.8007  0.4292 -0.5063
   47MOL   H37023462   5.542   2.341   7.241  0.1091  0.4201 -1.4738
   47MOL   H37123463   5.468   2.237   7.099 -0.9019 -0.5156  0.2111
   47MOL   H37223464   5.207   2.425   7.239 -1.7968  0.8281 -0.7148
   47MOL   H37323465   5.126   2.644   7.180  0.7967  0.8074  1.8309
   47MOL   H37423466   5.260   2.789   7.019  1.8505 -0.2454 -2.0631
   47MOL   H37523467   5.486   2.717   6.953 -1.4601  0.4629 -1.0326
   47MOL   H37623468   5.580   2.502   7.033  0.3002  1.2243  1.2097
   47MOL   C37723469   5.340   2.109   7.608 -0.1860 -0.1584  0.2638
   47MOL   C37823470   5.295   2.251   7.669 -0.6498  0.0309  0.3850
   47MOL   C37923471   5.309   2.232   7.820  0.1112 -0.1679  0.0678
   47MOL   C38023472   5.144   2.276   7.638 -1.1440  0.4550  0.6016
   47MOL   O38123473   5.101   2.349   7.557  0.0886 -0.1427 -0.1554
   47MOL   O38223474   5.066   2.185   7.700 -0.3942 -0.5634 -0.5590
   47MOL   C38323475   4.928   2.162   7.674 -0.7965  0.5965 -0.2026
   47MOL   C38423476   4.855   2.093   7.785 -0.0869 -0.2692  0.0711
   47MOL   C38523477   4.711   2.100   7.802 -0.3583  0.7442 -0.4586
   47MOL   C38623478   4.647   2.043   7.917 -0.1581 -0.5572  0.3176
   47MOL   C38723479   4.734   1.982   0.005  0.0390  0.0295  0.7079
   47MOL   C38823480   4.871   1.970   7.995  0.0619  0.5814 -0.1169
   47MOL   C38923481   4.928   2.026   7.881  0.2809 -0.3288 -0.6543
   47MOL   H39023482   5.443   2.100   7.644  0.2551  0.3749 -0.8567
   47MOL   H39123483   5.285   2.030   7.660  0.8960 -0.9153  0.2702
   47MOL   H39223484   5.287   2.318   7.884 -2.2871  0.6680 -1.8095
   47MOL   H39323485   5.412   2.212   7.850 -0.1532 -2.5828 -0.5501
   47MOL   H39423486   5.263   2.146   7.868  1.0268 -1.1991 -0.8679
   47MOL   H39523487   4.880   2.254   7.642  3.1921  1.9313 -2.7409
   47MOL   H39623488   4.932   2.090   7.592 -1.5675  0.7012 -0.3316
   47MOL   H39723489   4.656   2.143   7.720 -4.2041 -1.4839  0.8210
   47MOL   H39823490   4.540   2.056   7.928 -0.3544  1.3290 -2.9501
   47MOL   H39923491   4.694   1.932   0.092 -0.4240  0.1408  0.5582
   47MOL   H40023492   4.927   1.917   0.064 -0.4573  0.3106  0.0808
   47MOL   H40123493   5.035   2.015   7.872  0.4764  1.5942 -0.8436
   47MOL   C40223494   5.382   2.373   7.621 -0.2597 -0.1705  0.2410
   47MOL   C40323495   5.389   2.513   7.684 -0.3562  0.0990 -0.3932
   47MOL   C40423496   5.469   2.604   7.587 -0.4040 -0.0553 -0.0485
   47MOL   C40523497   5.467   2.509   7.818  0.3192 -0.4802  0.1811
   47MOL   O40623498   5.415   2.501   7.933  0.2362  0.3197  0.0752
   47MOL   O40723499   5.602   2.514   7.795  0.5013 -0.2451  0.4432
   47MOL   C40823500   5.691   2.541   7.897  0.1452 -0.2287  0.0540
   47MOL   C40923501   5.679   2.676   7.953 -0.3411 -0.4189 -0.1164
   47MOL   C41023502   5.605   2.713   0.063  0.4457 -0.4618 -0.5263
   47MOL   C41123503   5.603   2.849   0.098 -0.1584  0.0112 -0.7826
   47MOL   C41223504   5.675   2.946   0.025  0.4562  0.8619 -1.1909
   47MOL   C41323505   5.740   2.909   7.918 -0.3933 -0.5958 -0.5910
   47MOL   C41423506   5.743   2.776   7.876 -0.0641 -0.4048 -0.5067
   47MOL   H41523507   5.352   2.382   7.517  0.8347  1.2215  0.0287
   47MOL   H41623508   5.486   2.341   7.614 -0.1945 -0.1746  1.1457
   47MOL   H41723509   5.415   2.628   7.496  2.0070  1.5979 -1.1001
   47MOL   H41823510   5.562   2.561   7.550 -1.5716 -2.0688 -0.7091
   47MOL   H41923511   5.509   2.696   7.629 -0.3389 -0.5827  1.0716
   47MOL   H42023512   5.679   2.475   7.983 -1.6722 -0.7608 -0.5926
   47MOL   H42123513   5.791   2.526   7.855 -0.6373 -0.1261 -1.9027
   47MOL   H42223514   5.545   2.642   0.117  1.7012  0.0146  1.5482
   47MOL   H42323515   5.557   2.881   0.190  0.0027  0.5953 -0.9031
   47MOL   H42423516   5.676   3.049   0.060 -0.0594 -0.0862  1.8015
   47MOL   H42523517   5.780   2.985   7.852  0.1445  0.0625  0.4781
   47MOL   H42623518   5.796   2.767   7.782  0.1724 -0.5909 -0.3576
   47MOL   C42723519   5.243   2.589   7.695  0.4497  0.2895  0.0876
   47MOL   C42823520   5.214   2.749   7.711  0.2644  0.0369 -0.5571
   47MOL   C42923521   5.301   2.811   7.824  0.3744 -0.0567 -0.6055
   47MOL   C43023522   5.064   2.757   7.761  0.1839 -0.2787  0.2849
   47MOL   O43123523   5.025   2.806   7.871 -0.8264  0.1290 -0.6626
   47MOL   O43223524   4.982   2.716   7.665  0.1047  0.2233  0.7598
   47MOL   C43323525   4.845   2.733   7.683 -0.3315  0.1653 -0.2883
   47MOL   C43423526   4.762   2.647   7.599  0.0786  0.7575 -0.3555
   47MOL   C43523527   4.640   2.702   7.561  0.3418 -0.0521  0.1796
   47MOL   C43623528   4.561   2.622   7.474  0.1474 -0.4883  0.1848
   47MOL   C43723529   4.596   2.493   7.438 -0.0758  0.1581 -0.2655
   47MOL   C43823530   4.721   2.439   7.480  0.1161 -0.0339 -0.5288
   47MOL   C43923531   4.804   2.515   7.565 -0.3869 -0.7163  0.4488
   47MOL   H44023532   5.184   2.538   7.770 -0.9183 -1.4415 -2.0975
   47MOL   H44123533   5.192   2.572   7.600 -1.0457  0.1045  0.9098
   47MOL   H44223534   5.274   2.905   7.872  1.8781  0.2215 -0.2642
   47MOL   H44323535   5.403   2.825   7.786  0.6031  3.2299  1.0575
   47MOL   H44423536   5.298   2.742   7.909  0.8667  0.2377 -0.3453
   47MOL   H44523537   4.814   2.719   7.787 -0.6001  3.5614  0.1473
   47MOL   H44623538   4.825   2.836   7.654  0.5062  0.6609  0.8150
   47MOL   H44723539   4.608   2.802   7.584  2.0039  0.7123 -0.7860
   47MOL   H44823540   4.467   2.661   7.436 -0.1561 -0.7747  0.6386
   47MOL   H44923541   4.534   2.440   7.367  0.0288 -1.3975  0.7723
   47MOL   H45023542   4.749   2.340   7.447  1.4410  0.2652 -0.3304
   47MOL   H45123543   4.899   2.487   7.609  0.6523 -0.9580 -1.8696
   47MOL   C45223544   5.224   2.831   7.572  0.6681  0.6138 -0.3374
   47MOL   C45323545   5.198   2.988   7.555 -0.3050  0.3479 -0.1024
   47MOL   C45423546   5.179   3.020   7.405 -0.1576  0.0481 -0.6340
   47MOL   C45523547   5.329   3.063   7.601 -0.1724 -0.3781  0.0467
   47MOL   O45623548   5.330   3.144   7.697 -0.2657  0.3346  0.2215
   47MOL   O45723549   5.431   3.038   7.516 -0.5734 -0.4989 -0.3918
   47MOL   C45823550   5.563   3.090   7.542  0.2730  0.9031  0.1102
   47MOL   C45923551   5.675   3.025   7.461 -0.4241  0.5051  0.4118
   47MOL   C46023552   5.784   3.100   7.417  0.3493 -0.4293 -0.3716
   47MOL   C46123553   5.883   3.043   7.327  0.1852  0.5188  0.1942
   47MOL   C46223554   5.866   2.903   7.297 -0.0243  0.6469  0.9046
   47MOL   C46323555   5.762   2.828   7.352  0.1577 -0.5071 -0.3656
   47MOL   C46423556   5.667   2.889   7.434  0.0105  0.0368  0.6447
   47MOL   H46523557   5.158   2.771   7.509  0.0360  0.2946  0.6213
   47MOL   H46623558   5.326   2.818   7.537  0.9534  1.9917 -0.0644
   47MOL   H46723559   5.088   2.974   7.368 -1.1296 -0.7768  2.6366
   47MOL   H46823560   5.256   2.975   7.342 -0.5943  0.0809 -1.1913
   47MOL   H46923561   5.178   3.128   7.391 -1.5697  0.0379 -0.6645
   47MOL   H47023562   5.549   3.192   7.506 -0.0025  0.1162 -2.0796
   47MOL   H47123563   5.597   3.081   7.646  1.0557  1.0149 -0.1335
   47MOL   H47223564   5.780   3.208   7.426  4.8908 -0.2559  0.9436
   47MOL   H47323565   5.970   3.101   7.300 -0.8011  2.4265  1.0248
   47MOL   H47423566   5.936   2.860   7.227 -0.1243  2.0563 -0.0937
   47MOL   H47523567   5.751   2.721   7.338 -0.6733 -0.3818 -0.6659
   47MOL   H47623568   5.586   2.827   7.470  0.1540  0.0622  1.0093
   47MOL   C47723569   5.077   3.037   7.632  0.4826 -0.6648  0.3227
   47MOL   C47823570   5.020   3.184   7.614 -0.4519 -0.4214 -0.5169
   47MOL   C47923571   4.952   3.226   7.752 -0.0907  0.6982  0.8151
   47MOL   C48023572   4.917   3.202   7.497 -0.3988  0.2975  0.2604
   47MOL   O48123573   4.926   3.292   7.417  0.1322  0.0189  0.1862
   47MOL   O48223574   4.814   3.119   7.510  0.4358  0.1312 -0.5778
   47MOL   C48323575   4.735   3.091   7.396 -0.0409  0.1118  0.2300
   47MOL   C48423576   4.601   3.163   7.383  0.0028 -0.6672 -0.1175
   47MOL   C48523577   4.587   3.297   7.335  0.1399  0.6785 -0.2184
   47MOL   C48623578   4.453   3.345   7.322 -0.8153 -0.4543  0.1036
   47MOL   C48723579   4.339   3.268   7.348 -0.3691  0.4225 -0.8852
   47MOL   C48823580   4.358   3.133   7.398  0.1851 -0.2829  0.3721
   47MOL   C48923581   4.485   3.087   7.422 -0.1479 -0.3041 -0.0324
   47MOL   H49023582   5.105   3.019   7.735  0.2068 -0.1673  0.4883
   47MOL   H49123583   4.996   2.968   7.608 -0.9510  0.8444  0.6959
   47MOL   H49223584   4.937   3.332   7.771 -1.0305  0.8292 -0.6144
   47MOL   H49323585   4.998   3.185   7.842 -0.9759 -2.0689  0.0591
   47MOL   H49423586   4.857   3.174   7.767  0.6856 -0.8577  0.4082
   47MOL   H49523587   4.787   3.110   7.302 -1.5243  3.2638 -0.0200
   47MOL   H49623588   4.712   2.985   7.402  0.7784 -0.2308 -2.0915
   47MOL   H49723589   4.666   3.361   7.299 -0.9731  1.3203 -1.5317
   47MOL   H49823590   4.438   3.447   7.288  0.7092 -0.4581 -0.6411
   47MOL   H49923591   4.241   3.313   7.356  0.4710  2.1404  0.0577
   47MOL   H50023592   4.278   3.069   7.432 -0.9709  1.4707  1.0561
   47MOL   H50123593   4.496   2.984   7.453 -2.2470 -0.4384  0.3504
   47MOL   H50223594   5.098   3.260   7.612  0.2832 -1.0104  2.5216
   48MOL     C123595   0.955   6.651   2.328 -0.0309  0.5741 -0.6098
   48MOL     C223596   1.020   6.526   2.406 -0.1315  0.5417  0.4609
   48MOL     C323597   1.151   6.581   2.475  0.0917  0.1000  0.3035
   48MOL     C423598   1.074   6.420   2.304  0.2126  0.5202 -0.7494
   48MOL     O523599   1.044   6.301   2.316 -0.2428 -0.2364  0.9817
   48MOL     O623600   1.143   6.476   2.208 -0.3650  0.2468 -0.2342
   48MOL     C723601   1.188   6.412   2.093 -0.5783  0.2496 -0.3334
   48MOL     C823602   1.308   6.312   2.102  0.4098  0.0900  1.0703
   48MOL     C923603   1.436   6.352   2.062 -0.5717  0.0967 -0.7028
   48MOL    C1023604   1.549   6.265   2.056  0.3770  0.3143 -0.2163
   48MOL    C1123605   1.535   6.134   2.105  0.2913  0.3347 -0.6342
   48MOL    C1223606   1.404   6.091   2.141 -0.0789  0.3814  0.6146
   48MOL    C1323607   1.294   6.177   2.142  0.2965 -0.6356  0.2827
   48MOL    H1423608   1.031   6.689   2.259  1.2874  0.0211  0.5190
   48MOL    H1523609   0.865   6.620   2.276  0.1769  0.0918 -0.6833
   48MOL    H1623610   1.141   6.663   2.546  0.0898  0.3624  0.0033
   48MOL    H1723611   1.210   6.632   2.398  1.0575 -1.0919  0.2373
   48MOL    H1823612   1.205   6.503   2.528 -2.6912 -1.3589  1.0574
   48MOL    H1923613   1.101   6.363   2.050 -0.0666 -1.1670  0.2391
   48MOL    H2023614   1.214   6.489   2.020 -2.1291  0.0275 -1.1347
   48MOL    H2123615   1.444   6.452   2.022 -2.9801  0.8244  0.5483
   48MOL    H2223616   1.645   6.302   2.022 -0.0554  1.1015 -0.5945
   48MOL    H2323617   1.622   6.071   2.115 -1.7042 -2.2652  1.2415
   48MOL    H2423618   1.392   5.993   2.185 -2.6162  0.2327 -0.3208
   48MOL    H2523619   1.196   6.144   2.174  0.4369 -1.5070 -0.1642
   48MOL    H2623620   0.929   6.733   2.395  0.0005  0.2861 -0.2445
   48MOL    C2723621   0.914   6.468   2.502 -0.3219  0.0151 -0.4526
   48MOL    C2823622   0.881   6.533   2.645  0.1093  0.7574 -0.5498
   48MOL    C2923623   0.846   6.678   2.633  0.2398  0.2715  0.0442
   48MOL    C3023624   0.997   6.516   2.750  0.3188 -0.3604  0.1961
   48MOL    O3123625   1.049   6.608   2.809  0.1431 -0.1601 -0.0770
   48MOL    O3223626   1.020   6.389   2.769  0.0292  0.0848 -0.8417
   48MOL    C3323627   1.125   6.344   2.852  0.2347  0.2740 -0.3624
   48MOL    C3423628   1.099   6.195   2.886 -0.4577  0.0223  0.0054
   48MOL    C3523629   1.025   6.108   2.798  0.1979 -0.8655  0.6206
   48MOL    C3623630   1.013   5.975   2.829  0.4761 -0.1119 -0.1897
   48MOL    C3723631   1.053   5.925   2.954 -0.0695 -0.2599  0.3078
   48MOL    C3823632   1.121   6.009   3.037 -0.0483  0.2764 -0.0126
   48MOL    C3923633   1.149   6.141   3.001 -0.3330 -0.3337 -0.0803
   48MOL    H4023634   0.950   6.368   2.524 -0.6278 -0.5644 -2.4848
   48MOL    H4123635   0.820   6.457   2.448 -1.3957  0.2100  1.3151
   48MOL    H4223636   0.919   6.755   2.605 -0.6816  1.2171  0.2166
   48MOL    H4323637   0.799   6.720   2.722  1.0763  1.5754 -0.1111
   48MOL    H4423638   0.767   6.694   2.560  0.2643 -1.4945 -0.3737
   48MOL    H4523639   1.224   6.352   2.805 -0.5095  0.0891 -1.9991
   48MOL    H4623640   1.125   6.396   2.948 -3.1898 -2.0340  0.9622
   48MOL    H4723641   0.986   6.144   2.704  2.7229 -1.1111 -0.5691
   48MOL    H4823642   0.967   5.905   2.760 -0.6284  0.5889 -0.1850
   48MOL    H4923643   1.033   5.821   2.974 -0.9656  0.1067  1.3844
   48MOL    H5023644   1.156   5.968   3.130 -1.0070  1.7323  1.0011
   48MOL    H5123645   1.204   6.212   3.061  0.3586  0.4811 -1.6490
   48MOL    C5223646   0.749   6.449   2.692 -0.3379 -0.1566 -0.7181
   48MOL    C5323647   0.689   6.442   2.839 -0.3395 -0.9809  0.0204
   48MOL    C5423648   0.540   6.394   2.820 -0.2594  0.2522  0.8193
   48MOL    C5523649   0.683   6.578   2.907 -0.4095 -0.1385 -0.3775
   48MOL    O5623650   0.583   6.649   2.908  0.2674 -0.3585  0.7102
   48MOL    O5723651   0.800   6.607   2.972  0.0839 -0.1042 -0.0318
   48MOL    C5823652   0.813   6.731   3.046 -0.8603  0.4324  0.1364
   48MOL    C5923653   0.923   6.735   3.144 -0.3966  1.0079 -0.4992
   48MOL    C6023654   0.950   6.858   3.219 -0.4047 -0.4224  0.3665
   48MOL    C6123655   1.058   6.866   3.300  0.4088  0.7468  0.5247
   48MOL    C6223656   1.138   6.751   3.325  0.1491  0.2122 -0.1726
   48MOL    C6323657   1.103   6.626   3.274 -0.0954 -0.1054  0.0815
   48MOL    C6423658   0.998   6.620   3.180 -0.2905  0.4006  0.2856
   48MOL    H6523659   0.777   6.347   2.668  0.6708  0.5001 -2.5032
   48MOL    H6623660   0.672   6.479   2.621 -0.7827  2.2368  0.7135
   48MOL    H6723661   0.535   6.286   2.805  1.6303  0.2420  0.2384
   48MOL    H6823662   0.498   6.443   2.732 -1.3569  1.4478  1.9782
   48MOL    H6923663   0.477   6.417   2.906 -1.6965  1.8455 -0.6242
   48MOL    H7023664   0.828   6.823   2.989  1.5557 -0.9113 -1.4905
   48MOL    H7123665   0.718   6.743   3.098 -0.4012 -0.6106  1.2265
   48MOL    H7223666   0.891   6.945   3.195  1.0580  0.3576 -0.4116
   48MOL    H7323667   1.068   6.962   3.348  1.7885  0.9058 -0.0586
   48MOL    H7423668   1.236   6.757   3.370  0.4460  2.6563 -1.0620
   48MOL    H7523669   1.177   6.550   3.291  1.4544  1.0956 -1.0878
   48MOL    H7623670   0.985   6.525   3.130  0.1667 -0.7676  2.3027
   48MOL    C7723671   0.752   6.325   2.928 -0.4822  0.3014 -0.3087
   48MOL    C7823672   0.697   6.285   3.081 -0.0762 -0.2624 -0.4680
   48MOL    C7923673   0.587   6.169   3.064 -0.1560 -0.1765 -0.1397
   48MOL    C8023674   0.635   6.405   3.164 -0.2830  0.5167  0.1806
   48MOL    O8123675   0.713   6.484   3.220 -0.3987  0.1622  0.0457
   48MOL    O8223676   0.501   6.417   3.164  0.0121 -0.1140 -0.0291
   48MOL    C8323677   0.440   6.500   3.258 -0.6299 -0.2342 -0.0973
   48MOL    C8423678   0.301   6.440   3.293 -0.4420 -0.3706 -0.6386
   48MOL    C8523679   0.193   6.523   3.318 -0.3683  0.0009  0.1427
   48MOL    C8623680   0.066   6.473   3.352  0.0138 -0.7220 -0.4120
   48MOL    C8723681   0.048   6.336   3.370  0.1168  0.1205  0.6497
   48MOL    C8823682   0.156   6.250   3.347  0.1730 -0.6465  0.1895
   48MOL    C8923683   0.283   6.300   3.317 -0.3199 -0.0020 -0.2456
   48MOL    H9023684   0.855   6.355   2.945  0.0492 -0.0028 -2.8630
   48MOL    H9123685   0.766   6.235   2.869  1.7779  0.6248 -0.2761
   48MOL    H9223686   0.502   6.211   3.010 -0.2089  0.1294  0.1773
   48MOL    H9323687   0.547   6.126   3.155 -0.9850 -0.3831 -0.5965
   48MOL    H9423688   0.625   6.090   3.000 -1.4142 -0.3418 -0.6845
   48MOL    H9523689   0.498   6.523   3.347 -0.8158 -0.2233  0.0192
   48MOL    H9623690   0.442   6.596   3.206 -1.2601 -0.4088 -0.4465
   48MOL    H9723691   0.193   6.631   3.312 -0.2200  0.0143  0.3933
   48MOL    H9823692   7.989   6.538   3.371 -0.3160 -1.5517  1.0435
   48MOL    H9923693   7.965   6.290   3.408 -0.1709 -0.5052 -0.7386
   48MOL   H10023694   0.133   6.145   3.339 -2.0090 -0.4046  2.5083
   48MOL   H10123695   0.360   6.226   3.303 -0.8824 -0.2127 -2.4494
   48MOL   C10223696   0.828   6.232   3.150  0.5617 -0.5877  0.0355
   48MOL   C10323697   0.833   6.157   3.285 -0.0676 -0.4801  0.4911
   48MOL   C10423698   0.798   6.009   3.257  0.4117  0.2170 -0.4912
   48MOL   C10523699   0.731   6.213   3.382 -0.2889 -0.7051  0.2825
   48MOL   O10623700   0.628   6.155   3.411  0.0218  0.2608 -0.3592
   48MOL   O10723701   0.767   6.333   3.445  0.0932 -0.1549  0.9168
   48MOL   C10823702   0.684   6.374   3.552  0.5927 -0.5251 -0.3991
   48MOL   C10923703   0.703   6.520   3.599 -0.4387  0.3790 -0.2488
   48MOL   C11023704   0.638   6.567   3.714 -0.9869 -0.3631  0.3727
   48MOL   C11123705   0.671   6.691   3.767  0.0380  0.4963  0.1453
   48MOL   C11223706   0.743   6.779   3.691 -0.0546 -0.3543  0.5210
   48MOL   C11323707   0.812   6.733   3.578  0.3872  0.0162 -0.2384
   48MOL   C11423708   0.791   6.601   3.533 -0.4001  0.3323 -0.0193
   48MOL   H11523709   0.887   6.323   3.162 -0.7826  0.1109  1.5853
   48MOL   H11623710   0.873   6.157   3.084  0.4923  1.9236 -3.0055
   48MOL   H11723711   0.888   5.974   3.207  0.6879  1.2758 -0.7480
   48MOL   H11823712   0.710   5.990   3.195 -1.4540  3.1040  1.1775
   48MOL   H11923713   0.794   5.945   3.345 -1.5660 -0.1457 -0.8116
   48MOL   H12023714   0.585   6.383   3.507 -0.2385  0.7240  1.6155
   48MOL   H12123715   0.674   6.305   3.636 -1.4069  1.1486  0.7731
   48MOL   H12223716   0.578   6.494   3.767 -0.6117 -0.9393  0.0109
   48MOL   H12323717   0.632   6.715   3.864  0.0700 -0.8406  0.5022
   48MOL   H12423718   0.749   6.882   3.724 -1.3363  0.1572 -0.7882
   48MOL   H12523719   0.865   6.800   3.511 -2.1220 -0.5447 -2.9066
   48MOL   H12623720   0.836   6.566   3.441 -0.8428 -0.2884 -0.0075
   48MOL   C12723721   0.984   6.165   3.329 -0.2834 -0.3900  0.0925
   48MOL   C12823722   1.048   6.098   3.456  0.2986  0.0593 -0.1865
   48MOL   C12923723   1.202   6.098   3.437 -0.1391  0.2375  1.0480
   48MOL   C13023724   1.010   5.945   3.471  0.0654  0.5928 -0.5167
   48MOL   O13123725   0.937   5.909   3.564  0.2367  0.2479  0.0954
   48MOL   O13223726   1.076   5.866   3.384 -0.0519 -0.2466  0.6416
   48MOL   C13323727   1.053   5.727   3.377  0.0616 -0.5438  0.2311
   48MOL   C13423728   1.081   5.667   3.244 -0.3005 -0.6447  0.6994
   48MOL   C13523729   1.214   5.676   3.192 -0.3170  0.0910  0.5090
   48MOL   C13623730   1.230   5.608   3.071 -0.2573 -0.1199 -0.5626
   48MOL   C13723731   1.123   5.542   3.000 -0.1067  0.5074  0.3666
   48MOL   C13823732   1.003   5.517   3.063  0.0036  0.1379  0.7874
   48MOL   C13923733   0.985   5.579   3.186  0.2964  0.0784  0.3501
   48MOL   H14023734   1.006   6.271   3.339  2.4025 -0.7609 -1.3570
   48MOL   H14123735   1.047   6.123   3.251  1.0697  1.3238  0.2283
   48MOL   H14223736   1.250   6.057   3.348  1.7388  2.3738  1.0328
   48MOL   H14323737   1.243   6.027   3.510 -2.5573 -1.2786  0.9875
   48MOL   H14423738   1.238   6.200   3.450  2.1711 -0.4682  0.5423
   48MOL   H14523739   1.116   5.686   3.456 -0.3081  1.3590  1.5514
   48MOL   H14623740   0.952   5.702   3.410  0.5409 -0.5737  1.7067
   48MOL   H14723741   1.293   5.735   3.236 -0.8604  1.2531 -0.0482
   48MOL   H14823742   1.334   5.608   3.039 -0.3049 -2.0394 -0.7268
   48MOL   H14923743   1.139   5.484   2.911 -1.2359 -1.0367  1.1376
   48MOL   H15023744   0.930   5.455   3.014 -0.4475  1.7596 -0.6188
   48MOL   H15123745   0.893   5.558   3.239 -1.1178  1.5004 -1.4779
   48MOL   C15223746   1.016   6.168   3.597  0.6124  0.0998 -0.1767
   48MOL   C15323747   1.085   6.300   3.657  0.3100  0.2796  0.6611
   48MOL   C15423748   1.087   6.415   3.550  1.0504  0.0520  0.1990
   48MOL   C15523749   1.235   6.279   3.697 -0.1146  0.5711 -0.7102
   48MOL   O15623750   1.318   6.372   3.685  0.3802  0.1320 -0.3540
   48MOL   O15723751   1.257   6.154   3.749 -0.3448  0.1144 -0.6004
   48MOL   C15823752   1.381   6.121   3.823  1.3573 -0.6156  0.4848
   48MOL   C15923753   1.466   6.010   3.760  0.3569 -0.3849 -0.0988
   48MOL   C16023754   1.606   6.010   3.780  0.5370 -0.0228 -0.1772
   48MOL   C16123755   1.686   5.905   3.732 -0.2886  0.7142  0.6087
   48MOL   C16223756   1.629   5.803   3.653 -0.2378 -0.0508 -0.5088
   48MOL   C16323757   1.487   5.799   3.638 -0.7671 -0.4537 -0.5733
   48MOL   C16423758   1.407   5.901   3.695 -0.3582 -0.4249 -0.5931
   48MOL   H16523759   1.045   6.089   3.667  1.3235  0.4519 -0.0751
   48MOL   H16623760   0.908   6.184   3.603  0.8684  2.5063 -1.2299
   48MOL   H16723761   1.103   6.519   3.578 -3.6838  1.6309 -2.4248
   48MOL   H16823762   0.980   6.420   3.527  1.6139  0.9656 -2.3814
   48MOL   H16923763   1.138   6.402   3.455  0.9723  2.3387 -0.1758
   48MOL   H17023764   1.440   6.212   3.837  0.8724 -0.2036 -0.0842
   48MOL   H17123765   1.356   6.097   3.926 -1.4173 -1.3064 -0.3002
   48MOL   H17223766   1.649   6.097   3.825  1.4767 -0.0125 -1.0948
   48MOL   H17323767   1.787   5.895   3.768 -0.7343 -0.4709  1.5281
   48MOL   H17423768   1.697   5.722   3.634 -0.3088  0.1103 -1.5232
   48MOL   H17523769   1.452   5.715   3.581 -0.7246 -0.6225 -0.3513
   48MOL   H17623770   1.301   5.914   3.684 -0.3244 -1.4524 -2.4626
   48MOL   C17723771   0.989   6.354   3.773 -0.3103  0.4676  0.0353
   48MOL   C17823772   0.981   6.296   3.924 -0.3548 -0.0145  0.2712
   48MOL   C17923773   1.116   6.306   4.007 -0.3064  0.0896  0.2259
   48MOL   C18023774   0.919   6.154   3.917 -0.2824  0.7032  0.2396
   48MOL   O18123775   0.825   6.129   3.839 -0.1027 -0.1334 -0.9512
   48MOL   O18223776   0.981   6.070   3.995  0.1867  0.5963 -0.0475
   48MOL   C18323777   0.944   5.930   4.008  0.0276 -0.1270 -0.6656
   48MOL   C18423778   1.033   5.861   4.114 -0.3805  0.3309 -0.5186
   48MOL   C18523779   1.084   5.931   4.229  0.0086  0.6256  0.5548
   48MOL   C18623780   1.159   5.870   4.324  0.2252  0.7188  0.2884
   48MOL   C18723781   1.184   5.731   4.309 -0.0643  0.6245 -0.7262
   48MOL   C18823782   1.122   5.654   4.205 -0.0338 -0.7728  0.8484
   48MOL   C18923783   1.051   5.724   4.100  0.4972  0.5057 -0.4732
   48MOL   H19023784   0.887   6.372   3.740 -1.3297 -3.1410  1.0870
   48MOL   H19123785   1.025   6.456   3.788  1.5405 -0.2893  0.9918
   48MOL   H19223786   1.194   6.233   3.986 -0.2255  0.5754 -1.2019
   48MOL   H19323787   1.109   6.295   4.115  0.3181 -1.1634  0.1439
   48MOL   H19423788   1.155   6.407   3.992  1.8914 -0.8500 -0.5784
   48MOL   H19523789   0.842   5.913   4.042 -0.3186 -1.5465 -2.3407
   48MOL   H19623790   0.946   5.872   3.916  1.5275  0.8639 -1.2647
   48MOL   H19723791   1.072   6.038   4.229  2.6140  0.9730 -0.4252
   48MOL   H19823792   1.195   5.934   4.403 -3.2698  1.6681  1.1865
   48MOL   H19923793   1.233   5.673   4.386 -1.2141  0.0566 -0.4093
   48MOL   H20023794   1.137   5.547   4.202  0.9226 -0.6169 -1.7254
   48MOL   H20123795   1.018   5.661   4.018 -0.2279 -0.1277  0.2918
   48MOL   C20223796   0.869   6.398   3.987 -0.0380 -0.1827  0.6434
   48MOL   C20323797   0.792   6.359   4.113  0.4869 -0.0911 -0.6037
   48MOL   C20423798   0.879   6.300   4.223 -0.5182 -0.8012  0.5830
   48MOL   C20523799   0.675   6.251   4.094 -0.3468 -0.0190 -0.9694
   48MOL   O20623800   0.680   6.134   4.133  0.1192  0.0942  0.4390
   48MOL   O20723801   0.569   6.304   4.025 -0.4428  0.3481 -0.3873
   48MOL   C20823802   0.443   6.234   4.028  0.2406  0.1194  0.0324
   48MOL   C20923803   0.337   6.336   3.988  0.3914 -0.5392 -0.2483
   48MOL   C21023804   0.258   6.403   4.084 -1.0055 -0.7237  0.1391
   48MOL   C21123805   0.167   6.500   4.048  0.3516 -0.0606 -1.3847
   48MOL   C21223806   0.137   6.516   3.912  0.0554  0.2312 -0.2766
   48MOL   C21323807   0.202   6.435   3.811 -0.4003  0.0387  0.3896
   48MOL   C21423808   0.306   6.343   3.851  0.0759 -0.7427 -0.1571
   48MOL   H21523809   0.791   6.427   3.916 -0.8015  0.6664  1.7983
   48MOL   H21623810   0.926   6.491   3.989  3.2971 -2.1729 -0.0184
   48MOL   H21723811   0.822   6.272   4.312 -0.4355  1.9686  1.5452
   48MOL   H21823812   0.954   6.366   4.266  1.7168 -0.8058 -3.1043
   48MOL   H21923813   0.927   6.210   4.185  0.7688 -0.6163  1.6968
   48MOL   H22023814   0.448   6.151   3.958  1.3133 -2.7590  3.3668
   48MOL   H22123815   0.432   6.203   4.132  1.5511 -0.1322  0.1133
   48MOL   H22223816   0.281   6.392   4.188  0.1053 -2.1205 -0.2377
   48MOL   H22323817   0.136   6.572   4.122  0.1285 -0.9334 -0.6167
   48MOL   H22423818   0.070   6.597   3.887  2.6262  2.2287 -0.9025
   48MOL   H22523819   0.185   6.443   3.705 -2.0771 -1.6068  0.5206
   48MOL   H22623820   0.355   6.283   3.776  0.3136  0.3368 -0.8784
   48MOL   C22723821   0.725   6.495   4.157  0.5325  0.6246 -0.6042
   48MOL   C22823822   0.680   6.529   4.311  0.5078  0.1597  0.2688
   48MOL   C22923823   0.803   6.589   4.385  0.0119  0.2621  0.6750
   48MOL   C23023824   0.617   6.409   4.385  0.0090 -0.3854  0.7639
   48MOL   O23123825   0.513   6.352   4.344 -1.1175  0.7665  0.1703
   48MOL   O23223826   0.686   6.379   4.492  0.4324 -0.5227 -0.2249
   48MOL   C23323827   0.638   6.298   4.600  0.0864 -0.5251 -0.2671
   48MOL   C23423828   0.744   6.206   4.658 -0.8579 -0.0342  0.2519
   48MOL   C23523829   0.753   6.073   4.621 -0.2629  0.1499 -0.0809
   48MOL   C23623830   0.834   5.978   4.693 -0.1674  0.7969  0.1324
   48MOL   C23723831   0.918   6.029   4.796 -0.6428  0.4673 -0.2637
   48MOL   C23823832   0.901   6.157   4.845  0.1868 -0.5626  0.5887
   48MOL   C23923833   0.819   6.251   4.771  0.8275  0.2980 -0.1855
   48MOL   H24023834   0.647   6.527   4.088  0.5293  0.9727 -0.4406
   48MOL   H24123835   0.795   6.575   4.132 -0.7829  1.2737 -2.3231
   48MOL   H24223836   0.885   6.519   4.398 -1.3659 -2.4010 -3.8726
   48MOL   H24323837   0.771   6.631   4.481  1.5051 -0.1509  1.3719
   48MOL   H24423838   0.840   6.677   4.331 -1.1415 -0.5960 -1.5823
   48MOL   H24523839   0.593   6.357   4.680  0.8804  1.0532 -0.9459
   48MOL   H24623840   0.567   6.230   4.554 -0.5573 -0.5180  0.7052
   48MOL   H24723841   0.690   6.036   4.540 -1.1132  2.0824 -0.3250
   48MOL   H24823842   0.841   5.882   4.643  1.1152  1.0936 -0.2698
   48MOL   H24923843   0.995   5.973   4.847  0.7257  1.7707 -0.8719
   48MOL   H25023844   0.967   6.197   4.921  0.8430  0.4150 -0.4827
   48MOL   H25123845   0.804   6.346   4.819 -1.2574  1.3934 -2.9108
   48MOL   C25223846   0.576   6.642   4.294 -0.5879 -0.3863  0.3554
   48MOL   C25323847   0.503   6.739   4.397 -0.4957  0.4676  0.2989
   48MOL   C25423848   0.604   6.818   4.478 -0.5470 -0.2116 -0.4556
   48MOL   C25523849   0.416   6.642   4.483 -0.0652 -0.0201  0.5989
   48MOL   O25623850   0.415   6.629   4.605 -0.2099  0.0461 -0.4068
   48MOL   O25723851   0.330   6.568   4.403  0.0501  0.5905 -0.8500
   48MOL   C25823852   0.227   6.490   4.472  0.4014  0.4065 -0.2044
   48MOL   C25923853   0.122   6.582   4.544 -0.0179 -0.0973 -0.0526
   48MOL   C26023854   0.061   6.689   4.470  0.5239  0.1378  0.3066
   48MOL   C26123855   7.971   6.764   4.538  0.1676  0.2693 -0.2571
   48MOL   C26223856   7.917   6.736   4.661  0.5953 -0.5929 -0.5368
   48MOL   C26323857   7.972   6.624   4.726 -0.0494 -0.3503 -0.1256
   48MOL   C26423858   0.074   6.548   4.674 -0.1550 -0.9475 -0.5772
   48MOL   H26523859   0.495   6.611   4.228 -0.8629  2.3912 -0.7050
   48MOL   H26623860   0.627   6.708   4.223  0.3708 -0.5770  0.8588
   48MOL   H26723861   0.700   6.844   4.431 -0.8626  2.4966  0.3233
   48MOL   H26823862   0.624   6.752   4.562 -0.7860 -0.5317 -0.6514
   48MOL   H26923863   0.573   6.906   4.535 -0.4747 -0.3708 -0.1701
   48MOL   H27023864   0.172   6.435   4.396 -0.3213  0.1041  0.5283
   48MOL   H27123865   0.281   6.423   4.539 -0.9897 -0.3598  0.1531
   48MOL   H27223866   0.094   6.729   4.375 -1.6102 -0.8506 -0.8743
   48MOL   H27323867   7.932   6.855   4.493 -1.1428 -0.4106 -0.5331
   48MOL   H27423868   7.831   6.786   4.704 -0.0440 -2.1908  0.0825
   48MOL   H27523869   7.925   6.587   4.816 -0.9625 -2.8975 -1.5983
   48MOL   H27623870   0.112   6.461   4.726  1.6417  0.0639 -0.1730
   48MOL   C27723871   0.408   6.844   4.330 -1.0110  0.4030 -0.4891
   48MOL   C27823872   0.426   6.923   4.196  0.4320  0.4547  0.1602
   48MOL   C27923873   0.382   6.825   4.080 -0.0642  0.3513  1.0502
   48MOL   C28023874   0.569   6.980   4.153  0.8417  0.2563 -0.1997
   48MOL   O28123875   0.668   6.957   4.220  0.3281  0.1616  0.2639
   48MOL   O28223876   0.550   7.061   4.041  0.4588 -0.0506 -0.5385
   48MOL   C28323877   0.660   7.107   3.960  0.3571 -0.1990 -0.3598
   48MOL   C28423878   0.685   7.260   3.962  0.5785  0.7172  0.7045
   48MOL   C28523879   0.591   7.350   4.013 -0.3348  0.0428  0.2827
   48MOL   C28623880   0.619   7.486   4.020 -0.0162 -0.0793 -0.1677
   48MOL   C28723881   0.743   7.536   3.976  0.0330 -0.3909 -0.0536
   48MOL   C28823882   0.838   7.444   3.925  0.2585 -0.6660 -0.2290
   48MOL   C28923883   0.805   7.306   3.918  0.0942  0.1285  0.7050
   48MOL   H29023884   0.374   6.904   4.414 -0.4675 -2.3101  1.7239
   48MOL   H29123885   0.311   6.796   4.316  0.7495 -2.8374 -2.0396
   48MOL   H29223886   0.460   6.801   4.008 -0.7532  3.2126 -0.7010
   48MOL   H29323887   0.319   6.873   4.006  0.0044 -0.2730  0.5863
   48MOL   H29423888   0.350   6.729   4.121 -1.7254  1.3231  2.0911
   48MOL   H29523889   0.749   7.050   3.987 -0.4767 -1.4023 -0.1381
   48MOL   H29623890   0.654   7.084   3.854  0.2580  1.5804 -0.7483
   48MOL   H29723891   0.492   7.314   4.039  0.5781 -1.7860  1.2711
   48MOL   H29823892   0.544   7.550   4.063  1.1392  0.8783  0.4598
   48MOL   H29923893   0.759   7.642   3.975  2.7945 -0.7082  2.3906
   48MOL   H30023894   0.932   7.485   3.891 -0.5938  0.8900 -0.7318
   48MOL   H30123895   0.870   7.233   3.872  0.3410  0.3210  0.7449
   48MOL   C30223896   0.311   7.030   4.189  0.0576  0.2244 -0.1654
   48MOL   C30323897   0.289   7.143   4.302  0.8051  0.5197  0.6142
   48MOL   C30423898   0.423   7.202   4.356  0.3552 -0.1758 -0.4870
   48MOL   C30523899   0.209   7.093   4.424  0.3297 -0.5269 -0.4985
   48MOL   O30623900   0.149   6.986   4.428  0.4361 -0.1229 -0.2959
   48MOL   O30723901   0.212   7.186   4.520 -0.5481 -0.2290  0.0131
   48MOL   C30823902   0.131   7.163   4.633 -0.6080  0.4613  0.3013
   48MOL   C30923903   7.997   7.225   4.623 -0.9989 -0.4234  0.0549
   48MOL   C31023904   7.885   7.153   4.664  0.1537 -0.2969 -0.4285
   48MOL   C31123905   7.758   7.210   4.649  0.0341 -0.0280  1.1959
   48MOL   C31223906   7.743   7.340   4.591  0.8181 -0.2327  0.2242
   48MOL   C31323907   7.857   7.402   4.537  0.2917 -0.5074  0.3938
   48MOL   C31423908   7.981   7.350   4.564 -0.3564 -0.5575 -0.0547
   48MOL   H31523909   0.221   6.968   4.190  0.1889 -0.0824 -3.3007
   48MOL   H31623910   0.309   7.086   4.096  1.5171  2.4169  1.0995
   48MOL   H31723911   0.475   7.247   4.273 -1.9584  0.2061 -1.7761
   48MOL   H31823912   0.485   7.119   4.389  0.2788 -0.6951 -1.6585
   48MOL   H31923913   0.424   7.282   4.430 -0.4083 -1.0988  0.5553
   48MOL   H32023914   0.121   7.056   4.652  3.3554 -0.2869 -1.3462
   48MOL   H32123915   0.192   7.205   4.713  1.0681 -0.8762 -0.2348
   48MOL   H32223916   7.899   7.052   4.699  1.2419  0.4723  1.4375
   48MOL   H32323917   7.678   7.142   4.675 -0.6921 -0.0791 -1.0898
   48MOL   H32423918   7.641   7.375   4.582  0.2412 -0.9706  3.1485
   48MOL   H32523919   7.840   7.501   4.499  0.9423 -0.0363  1.3135
   48MOL   H32623920   0.058   7.404   4.522  0.2730 -1.9606 -0.6229
   48MOL   C32723921   0.212   7.268   4.250 -0.2969  0.4123  0.4553
   48MOL   C32823922   0.078   7.264   4.164  0.3435  0.1395  0.2660
   48MOL   C32923923   7.990   7.150   4.214  0.3429  0.1483  0.0935
   48MOL   C33023924   0.118   7.251   4.013  0.3034 -0.3686 -0.5561
   48MOL   O33123925   0.072   7.161   3.946 -0.3031 -0.4370 -0.7726
   48MOL   O33223926   0.186   7.352   3.968 -0.3404 -0.5682  0.5932
   48MOL   C33323927   0.221   7.360   3.826 -0.0016  0.1748  0.0984
   48MOL   C33423928   0.311   7.478   3.790  0.4626 -0.5515 -0.2318
   48MOL   C33523929   0.267   7.611   3.824 -0.7203  0.6080 -0.5875
   48MOL   C33623930   0.342   7.722   3.787 -0.1957 -0.1352  0.0835
   48MOL   C33723931   0.467   7.706   3.727  0.0068  0.5638  0.0633
   48MOL   C33823932   0.509   7.577   3.693 -0.0487 -0.7137  0.3899
   48MOL   C33923933   0.439   7.460   3.726  0.1568  0.4143 -0.0469
   48MOL   H34023934   0.284   7.330   4.196 -1.4923 -0.1429 -1.8449
   48MOL   H34123935   0.200   7.338   4.333  2.6282  2.3481 -0.6451
   48MOL   H34223936   0.030   7.053   4.203  2.8245  1.3264  0.0845
   48MOL   H34323937   7.905   7.133   4.148  0.1681 -0.7424  0.5387
   48MOL   H34423938   7.950   7.168   4.314 -1.5893  0.6681 -0.7414
   48MOL   H34523939   0.267   7.269   3.787 -1.0258  0.2806 -1.3804
   48MOL   H34623940   0.138   7.369   3.756  2.5506  1.1378 -2.8902
   48MOL   H34723941   0.171   7.614   3.873 -1.4582 -1.3259 -1.8617
   48MOL   H34823942   0.309   7.823   3.809 -0.3769 -0.1909  0.0663
   48MOL   H34923943   0.531   7.790   3.704  2.5056 -1.1353  0.5422
   48MOL   H35023944   0.599   7.574   3.633 -0.4330  1.5611 -0.3741
   48MOL   H35123945   0.483   7.366   3.700 -2.4457 -0.8692  0.0071
   48MOL   C35223946   0.010   7.401   4.189 -0.2593 -0.1846  0.4817
   48MOL   C35323947   7.889   7.453   4.112 -0.7371 -0.6412  0.5741
   48MOL   C35423948   7.891   7.426   3.961  0.8680 -0.5804  0.3610
   48MOL   C35523949   7.878   7.608   4.135 -0.5336  0.1843 -0.0560
   48MOL   O35623950   7.893   7.682   4.042  0.2599 -0.0406  0.1943
   48MOL   O35723951   7.845   7.651   4.262  0.4862  0.2314 -0.3649
   48MOL   C35823952   7.836   7.792   4.277 -0.7719 -0.3097  0.4363
   48MOL   C35923953   7.809   7.825   4.424  0.2513 -0.0599 -0.6032
   48MOL   C36023954   7.699   7.909   4.442  0.6902  0.0530  0.1168
   48MOL   C36123955   7.662   7.945   4.571  0.3148  0.1069  0.4999
   48MOL   C36223956   7.738   7.895   4.682  0.9838  0.3222 -0.3782
   48MOL   C36323957   7.845   7.805   4.666  0.4905  0.4551  0.0849
   48MOL   C36423958   7.884   7.780   4.533  0.0734 -0.3861 -0.0088
   48MOL   H36523959   0.085   7.472   4.155  0.3451 -0.8524  0.3957
   48MOL   H36623960   7.993   7.421   4.293 -0.6496  0.3122  0.3000
   48MOL   H36723961   7.807   7.468   3.906  1.0916 -0.2489  0.2717
   48MOL   H36823962   7.884   7.321   3.935  1.6783 -0.8611  1.2574
   48MOL   H36923963   7.979   7.471   3.916  0.6199  0.8806  1.2960
   48MOL   H37023964   7.933   7.832   4.248 -1.2375  1.3786  1.1327
   48MOL   H37123965   7.758   7.829   4.211  0.2897  0.9702 -0.1219
   48MOL   H37223966   7.642   7.939   4.355  0.4307 -1.0755 -0.1131
   48MOL   H37323967   7.571   8.000   4.591  0.2633  0.5338 -0.8082
   48MOL   H37423968   7.714   7.939   4.778  3.5079 -1.7461  1.2611
   48MOL   H37523969   7.902   7.760   4.747 -3.6630  0.2306  3.0309
   48MOL   H37623970   7.959   7.704   4.515  1.1039  0.7372 -0.5016
   48MOL   C37723971   7.756   7.398   4.178  0.0772 -0.2409  0.5967
   48MOL   C37823972   7.623   7.368   4.101  0.3597  0.0795 -0.1378
   48MOL   C37923973   7.532   7.317   4.215 -0.0979 -0.8981  0.6898
   48MOL   C38023974   7.632   7.249   4.001 -0.2854 -0.3010  0.8850
   48MOL   O38123975   7.615   7.268   3.883 -0.1407 -0.2738 -0.2535
   48MOL   O38223976   7.672   7.141   4.057  0.3083 -0.5518 -0.4318
   48MOL   C38323977   7.701   7.031   3.972 -0.2476 -0.3731 -0.3181
   48MOL   C38423978   7.758   6.916   4.048  0.4765  1.0976  0.0341
   48MOL   C38523979   7.895   6.883   4.043  0.3775 -0.1563 -0.1426
   48MOL   C38623980   7.946   6.773   4.105 -0.2121  0.3522 -0.1704
   48MOL   C38723981   7.864   6.687   4.172 -0.0522 -0.1154 -0.0181
   48MOL   C38823982   7.729   6.720   4.193 -0.0669  0.2916 -0.5500
   48MOL   C38923983   7.671   6.830   4.124 -0.6930 -0.7662 -0.1984
   48MOL   H39023984   7.744   7.442   4.276  1.0183  1.5527 -0.0716
   48MOL   H39123985   7.781   7.299   4.218 -2.8353 -1.0484  0.5312
   48MOL   H39223986   7.584   7.271   4.300 -0.7539 -1.3310  0.8633
   48MOL   H39323987   7.467   7.232   4.192  0.0788 -0.9686  0.4478
   48MOL   H39423988   7.465   7.395   4.252  0.6521  0.8744 -1.5753
   48MOL   H39523989   7.607   6.997   3.929 -0.2436 -1.2255  0.3365
   48MOL   H39623990   7.780   7.055   3.900 -0.6850 -3.8770 -2.0705
   48MOL   H39723991   7.966   6.937   3.981 -0.0490 -0.8118 -1.2185
   48MOL   H39823992   0.045   6.755   4.091  0.0956  0.4248  1.8890
   48MOL   H39923993   7.907   6.597   4.214 -0.3278 -0.1529  0.1862
   48MOL   H40023994   7.659   6.653   4.242 -0.3040 -0.0754 -1.3923
   48MOL   H40123995   7.566   6.853   4.132 -0.0291  1.9909  1.3313
   48MOL   C40223996   7.555   7.496   4.028 -0.5006  0.2979  0.3301
   48MOL   C40323997   7.421   7.503   3.949 -0.6792 -0.1192  0.7705
   48MOL   C40423998   7.325   7.416   4.035  0.4832  0.3012  0.7606
   48MOL   C40523999   7.412   7.450   3.802  0.4893 -0.0448 -0.7967
   48MOL   O40624000   7.308   7.407   3.751 -0.0347 -0.4909  0.0119
   48MOL   O40724001   7.520   7.479   3.736  0.2677  1.4381 -0.6962
   48MOL   C40824002   7.537   7.429   3.603 -0.0664 -0.4591  0.2768
   48MOL   C40924003   7.655   7.497   3.535  0.5782 -0.1110 -0.1757
   48MOL   C41024004   7.646   7.543   3.406  0.4260 -0.2401 -0.0975
   48MOL   C41124005   7.748   7.623   3.355  0.6198 -0.3799  0.2188
   48MOL   C41224006   7.872   7.637   3.427  0.0681  0.5406  0.0321
   48MOL   C41324007   7.880   7.595   3.559  0.5812 -0.7707  0.4432
   48MOL   C41424008   7.770   7.521   3.611  0.5371  1.0377 -0.3510
   48MOL   H41524009   7.627   7.536   3.956 -0.4302 -0.8557 -0.2567
   48MOL   H41624010   7.549   7.574   4.103 -1.2326  0.1432  0.4361
   48MOL   H41724011   7.223   7.431   3.999 -0.2356  0.9249  2.9612
   48MOL   H41824012   7.324   7.444   4.141  0.9663  2.4921  0.2162
   48MOL   H41924013   7.351   7.311   4.026  3.3533  0.9258  1.3185
   48MOL   H42024014   7.574   7.328   3.623 -0.1685 -0.6636 -0.5339
   48MOL   H42124015   7.455   7.431   3.531  1.0687 -0.0420 -1.0212
   48MOL   H42224016   7.558   7.517   3.348 -0.1076 -0.1342  0.6481
   48MOL   H42324017   7.741   7.661   3.254  0.3464  2.0436  1.1005
   48MOL   H42424018   7.949   7.695   3.379  0.8443  1.1176  1.9407
   48MOL   H42524019   7.963   7.596   3.628 -2.2785 -0.3523  3.9614
   48MOL   H42624020   7.768   7.477   3.709 -1.5125  1.2536 -0.2747
   48MOL   C42724021   7.360   7.646   3.954 -0.3404  0.6508 -0.0406
   48MOL   C42824022   7.411   7.775   3.878 -0.5567  0.0002  0.5739
   48MOL   C42924023   7.383   7.763   3.727  0.7593 -0.0524 -0.1879
   48MOL   C43024024   7.560   7.807   3.908  0.1312 -0.1433 -0.0627
   48MOL   O43124025   7.597   7.835   4.021 -0.0049  0.2658 -0.6035
   48MOL   O43224026   7.644   7.801   3.798 -0.3649  0.7137 -0.0411
   48MOL   C43324027   7.781   7.840   3.804  0.3369 -0.1737 -0.2081
   48MOL   C43424028   7.812   7.960   3.717 -0.1831 -0.0983 -0.6927
   48MOL   C43524029   7.770   7.976   3.582  0.2862  0.1686  0.0837
   48MOL   C43624030   7.807   0.074   3.505 -0.8013  0.2705  0.3033
   48MOL   C43724031   7.889   0.173   3.557 -0.1820  0.0525  0.1934
   48MOL   C43824032   7.935   0.165   3.689 -0.2288  0.8654 -0.2889
   48MOL   C43924033   7.894   0.055   3.773 -0.0571 -0.5865  0.2540
   48MOL   H44024034   7.361   7.687   4.055 -1.5659  0.6728 -0.0264
   48MOL   H44124035   7.253   7.629   3.942 -0.4976  0.8014  1.1266
   48MOL   H44224036   7.429   7.686   3.665  2.4530 -1.0593  2.2383
   48MOL   H44324037   7.407   7.852   3.669 -1.4777 -0.2463 -1.4729
   48MOL   H44424038   7.278   7.746   3.701  0.5434 -1.2726  1.4253
   48MOL   H44524039   7.801   7.864   3.909  0.8190  1.8684 -0.7423
   48MOL   H44624040   7.845   7.764   3.761 -0.4026  0.5760 -2.7075
   48MOL   H44724041   7.712   7.896   3.538  2.6921 -1.3597 -0.3697
   48MOL   H44824042   7.782   0.087   3.400 -1.3500 -0.2171  0.3738
   48MOL   H44924043   7.921   0.258   3.498  2.5426 -1.6914 -0.8862
   48MOL   H45024044   7.995   0.245   3.730  0.9305  0.2854 -0.8324
   48MOL   H45124045   7.928   0.043   3.875  1.3812  0.0424 -0.1473
   48MOL   C45224046   7.333   7.898   3.930  0.4849 -1.2719 -0.5597
   48MOL   C45324047   7.324   0.037   3.863 -0.2405 -0.8266  0.5751
   48MOL   C45424048   7.248   0.125   3.967  0.0572  0.0557  0.2169
   48MOL   C45524049   7.221   0.040   3.743 -0.6453 -0.2268  0.2271
   48MOL   O45624050   7.255   0.072   3.629 -0.5866 -0.6474  0.4747
   48MOL   O45724051   7.093   8.006   3.779 -0.2365  0.1065 -0.5167
   48MOL   C45824052   6.981   0.015   3.693 -0.0241  0.5321  0.7551
   48MOL   C45924053   6.975   7.922   3.581 -0.1995  0.0313  0.0832
   48MOL   C46024054   6.963   7.976   3.448  0.2561  0.3788 -0.5054
   48MOL   C46124055   6.946   7.879   3.348  0.3677 -0.3624  0.6588
   48MOL   C46224056   6.927   7.742   3.374  0.3402  0.1827  0.6573
   48MOL   C46324057   6.957   7.690   3.502  0.2917  0.0705 -0.6241
   48MOL   C46424058   6.977   7.780   3.608 -0.9329 -0.3388  0.8140
   48MOL   H46524059   7.367   7.915   4.032  1.8330 -0.7562 -1.0760
   48MOL   H46624060   7.232   7.865   3.953  0.1235 -0.0538 -0.3178
   48MOL   H46724061   7.307   0.143   4.057 -0.0866  2.0272 -0.0517
   48MOL   H46824062   7.168   0.066   4.012 -0.7187 -0.2569 -1.5398
   48MOL   H46924063   7.220   0.223   3.929  1.9492  0.0904 -1.1741
   48MOL   H47024064   6.893   8.002   3.753 -0.0902 -2.3720 -0.2417
   48MOL   H47124065   6.974   0.116   3.651 -0.1026  0.0369 -0.4516
   48MOL   H47224066   6.965   0.076   3.435  1.3128  0.4472  0.1460
   48MOL   H47324067   6.944   7.914   3.246  2.2995 -0.8842  0.4159
   48MOL   H47424068   6.919   7.679   3.287 -1.7301  0.6502  0.4826
   48MOL   H47524069   6.952   7.584   3.526 -0.9790  0.3382  0.3620
   48MOL   H47624070   6.989   7.756   3.712  2.1867  1.1833  0.8518
   48MOL   C47724071   7.464   0.099   3.822  0.6490 -0.5025 -0.1576
   48MOL   C47824072   7.486   0.251   3.777 -0.2897 -0.1831 -1.1659
   48MOL   C47924073   7.597   0.273   3.678 -0.6291 -0.1577 -0.7134
   48MOL   C48024074   7.514   0.350   3.893  0.0956  0.4026  0.1166
   48MOL   O48124075   7.461   0.462   3.883 -0.2810 -0.7576 -0.2174
   48MOL   O48224076   7.611   0.314   3.978 -0.7062 -0.1517  0.3254
   48MOL   C48324077   7.648   0.409   4.076  0.4282  0.0931  0.5706
   48MOL   C48424078   7.790   0.454   4.051  0.3045 -0.2070 -0.1437
   48MOL   C48524079   7.893   0.362   4.026 -0.2762 -0.4294  0.8063
   48MOL   C48624080   0.020   0.410   4.004  0.0385 -0.1287  0.0356
   48MOL   C48724081   0.042   0.546   3.999  0.1328 -0.1735  0.5193
   48MOL   C48824082   7.945   0.636   4.037  0.3506 -0.3007  0.3605
   48MOL   C48924083   7.817   0.592   4.062  0.5057 -0.4001  0.4123
   48MOL   H49024084   7.524   0.039   3.754 -1.4506 -1.6869 -1.0162
   48MOL   H49124085   7.530   0.105   3.908 -1.0490 -0.7991  1.1813
   48MOL   H49224086   7.612   0.374   3.639 -0.1240  1.1681  2.7246
   48MOL   H49324087   7.573   0.217   3.588  1.5071 -1.1951 -0.6623
   48MOL   H49424088   7.686   0.240   3.731 -1.1829 -0.4917  0.0288
   48MOL   H49524089   7.597   0.504   4.066  1.5898  0.4389 -2.6392
   48MOL   H49624090   7.634   0.379   4.180 -1.7723  2.9883  1.1605
   48MOL   H49724091   7.886   0.254   4.031  0.6195 -0.4976  0.7763
   48MOL   H49824092   0.092   0.340   3.964 -2.3055 -0.6999 -3.4035
   48MOL   H49924093   0.140   0.587   3.979 -1.3316  2.4336 -1.7115
   48MOL   H50024094   7.950   0.742   4.061 -2.9691  0.2760 -1.1447
   48MOL   H50124095   7.746   0.673   4.075 -1.1292 -1.7019 -0.1558
   48MOL   H50224096   7.397   0.280   3.722 -0.1893  1.4054 -0.5311
   49MOL     C124097   7.718   1.649   6.225 -0.2128 -0.9269  0.5431
   49MOL     C224098   7.588   1.711   6.287  0.1785  0.3074 -1.3361
   49MOL     C324099   7.480   1.662   6.189  0.4682  0.3870  0.7018
   49MOL     C424100   7.596   1.863   6.295 -0.5952 -0.2913 -0.3508
   49MOL     O524101   7.519   1.937   6.238  0.9847 -0.0385  0.0484
   49MOL     O624102   7.706   1.910   6.362 -0.6379 -0.1604  0.0644
   49MOL     C724103   7.738   2.043   6.337 -0.3156  0.2992 -0.2850
   49MOL     C824104   7.889   2.066   6.333 -0.6432 -0.9312  0.3484
   49MOL     C924105   7.947   2.187   6.375 -0.0944 -0.2268  0.6423
   49MOL    C1024106   0.085   2.202   6.372  0.5588  0.0169 -0.5469
   49MOL    C1124107   0.166   2.096   6.328  0.3106 -0.1515  0.5424
   49MOL    C1224108   0.103   1.975   6.286 -0.3150 -0.8547  0.4752
   49MOL    C1324109   7.974   1.963   6.279 -0.2665  1.5151 -0.4996
   49MOL    H1424110   7.733   1.542   6.233  0.4299 -0.8025  1.0892
   49MOL    H1524111   7.720   1.662   6.117 -0.6253 -0.8323  0.5461
   49MOL    H1624112   7.501   1.700   6.089 -1.4617 -3.9871 -1.4610
   49MOL    H1724113   7.386   1.704   6.224 -0.4024 -1.8467  1.0759
   49MOL    H1824114   7.459   1.556   6.183 -1.3674  0.7492  0.2697
   49MOL    H1924115   7.695   2.091   6.249  2.5374  0.3403 -1.7389
   49MOL    H2024116   7.703   2.107   6.417 -1.1392  0.1283 -0.5078
   49MOL    H2124117   7.888   2.260   6.428 -0.5205  0.4989 -0.7847
   49MOL    H2224118   0.129   2.296   6.401  1.9393 -0.3421 -1.4477
   49MOL    H2324119   0.272   2.110   6.308  0.6395 -0.9498  1.6778
   49MOL    H2424120   0.165   1.898   6.244  2.1557  0.3324  1.7978
   49MOL    H2524121   7.925   1.874   6.244 -1.1952  0.8613  2.3430
   49MOL    H2624122   7.810   1.690   6.267 -0.0462 -0.9891  0.2326
   49MOL    C2724123   7.579   1.659   6.436  0.4191 -0.2879 -0.3593
   49MOL    C2824124   7.446   1.635   6.516 -0.5228  0.6294 -0.3306
   49MOL    C2924125   7.358   1.517   6.450  0.3355 -0.1499  0.7856
   49MOL    C3024126   7.368   1.765   6.526 -0.1995  0.3704 -0.2120
   49MOL    O3124127   7.420   1.874   6.565  0.3996 -0.3369  0.0081
   49MOL    O3224128   7.237   1.759   6.479 -0.2536 -0.0619  0.2847
   49MOL    C3324129   7.164   1.881   6.486 -0.2236  0.4765  0.0259
   49MOL    C3424130   7.026   1.852   6.433  0.3309  0.2467 -0.1936
   49MOL    C3524131   6.969   1.928   6.329  0.5113 -0.2403 -0.3221
   49MOL    C3624132   6.844   1.901   6.277 -0.1285  0.1621 -0.3991
   49MOL    C3724133   6.762   1.807   6.347  0.3531 -0.0382 -0.7660
   49MOL    C3824134   6.823   1.725   6.445 -0.4112 -0.3131 -0.1837
   49MOL    C3924135   6.959   1.745   6.489 -0.6292 -0.8217  0.1902
   49MOL    H4024136   7.641   1.720   6.501 -0.9919  0.0899  0.6457
   49MOL    H4124137   7.630   1.563   6.436  0.3837 -0.3178 -1.5976
   49MOL    H4224138   7.315   1.546   6.354  0.2541 -1.2875  0.4751
   49MOL    H4324139   7.274   1.497   6.517 -0.0361 -1.4269 -0.0365
   49MOL    H4424140   7.404   1.425   6.414  0.5920  0.9804 -1.8929
   49MOL    H4524141   7.146   1.907   6.591 -0.2251 -3.3161  1.0346
   49MOL    H4624142   7.218   1.966   6.445  0.7776 -0.8147 -1.3525
   49MOL    H4724143   7.030   1.998   6.274 -2.6739  2.7632 -0.1875
   49MOL    H4824144   6.792   1.944   6.192 -2.1229 -1.2848  0.0378
   49MOL    H4924145   6.667   1.771   6.312  0.8112 -1.2754 -0.7481
   49MOL    H5024146   6.775   1.638   6.486 -0.3875 -0.1033  0.2955
   49MOL    H5124147   7.012   1.685   6.562 -0.7783  1.0358  1.8544
   49MOL    C5224148   7.494   1.600   6.659 -0.3813 -0.2923 -0.4357
   49MOL    C5324149   7.417   1.515   6.765  0.0484 -0.4841 -0.4510
   49MOL    C5424150   7.412   1.366   6.728 -0.0244  0.0217 -0.1067
   49MOL    C5524151   7.273   1.571   6.773  0.3928  0.7067  0.2115
   49MOL    O5624152   7.172   1.495   6.754  0.1351 -0.3397 -0.2510
   49MOL    O5724153   7.266   1.701   6.807  0.0291 -0.4720  0.4763
   49MOL    C5824154   7.140   1.757   6.843 -0.1241  0.7098  0.2619
   49MOL    C5924155   7.153   1.907   6.877  0.1593  0.3743 -0.1274
   49MOL    C6024156   7.257   1.951   6.962  0.4170 -0.5146  0.5945
   49MOL    C6124157   7.258   2.083   7.007 -0.0554  0.0175 -1.0099
   49MOL    C6224158   7.158   2.170   6.963 -0.7656 -0.0974  0.6155
   49MOL    C6324159   7.057   2.131   6.882  0.2387 -0.1905 -0.2064
   49MOL    C6424160   7.060   2.002   6.835  0.2855 -0.9362 -0.0658
   49MOL    H6524161   7.539   1.688   6.706  1.5457 -2.7249  2.4777
   49MOL    H6624162   7.585   1.541   6.647  1.1341  1.7038  0.8762
   49MOL    H6724163   7.345   1.337   6.648 -2.8827 -0.2586  2.3060
   49MOL    H6824164   7.357   1.321   6.810  1.8687 -0.4667  0.9399
   49MOL    H6924165   7.514   1.331   6.710 -0.8267 -2.5865  0.1940
   49MOL    H7024166   7.082   1.762   6.751  0.9037  2.5957 -0.3115
   49MOL    H7124167   7.082   1.710   6.923 -0.7289  2.7823  1.0855
   49MOL    H7224168   7.336   1.887   6.999  1.8562  0.2745 -1.0135
   49MOL    H7324169   7.344   2.113   7.065 -2.1559 -1.2634  2.9545
   49MOL    H7424170   7.160   2.276   6.985 -1.4412  0.9207 -3.7371
   49MOL    H7524171   6.987   2.206   6.848 -0.5898 -0.3757  1.0798
   49MOL    H7624172   6.993   1.981   6.753 -0.4780 -0.4383  0.4209
   49MOL    C7724173   7.496   1.520   6.898 -0.4742 -0.1176 -0.3507
   49MOL    C7824174   7.476   1.444   7.034 -0.0205 -0.0451  0.8021
   49MOL    C7924175   7.562   1.311   7.024 -0.4283 -0.9108 -0.2614
   49MOL    C8024176   7.321   1.420   7.057 -0.6454 -0.0682 -0.6030
   49MOL    O8124177   7.247   1.516   7.060  0.1216  0.0623 -0.0919
   49MOL    O8224178   7.287   1.293   7.077  0.2912  0.3320  0.4595
   49MOL    C8324179   7.152   1.258   7.109  0.2707 -0.4859 -0.1362
   49MOL    C8424180   7.121   1.277   7.258 -0.3159 -0.0541 -0.0387
   49MOL    C8524181   7.053   1.396   7.301  0.5693  0.6725 -0.1816
   49MOL    C8624182   7.026   1.411   7.438  0.0091 -0.6391 -0.1027
   49MOL    C8724183   7.066   1.319   7.534  0.8776  0.3257  0.5590
   49MOL    C8824184   7.117   1.198   7.491  0.7747 -0.4458  0.4900
   49MOL    C8924185   7.146   1.174   7.348 -0.0604  0.6479 -0.5297
   49MOL    H9024186   7.489   1.626   6.922 -0.4382 -0.2834  0.3904
   49MOL    H9124187   7.601   1.507   6.870 -0.5448 -1.6034  0.0008
   49MOL    H9224188   7.667   1.334   7.011 -0.4040 -0.3981  0.7821
   49MOL    H9324189   7.535   1.249   6.938  1.4389  0.2411 -1.7068
   49MOL    H9424190   7.540   1.248   7.110 -1.9296 -0.1190 -0.0423
   49MOL    H9524191   7.081   1.317   7.052  1.5150  1.8628  0.6544
   49MOL    H9624192   7.140   1.152   7.088  2.5380 -1.0925  1.4680
   49MOL    H9724193   7.034   1.484   7.240 -0.5544  1.0836  0.7369
   49MOL    H9824194   7.012   1.510   7.477  0.9491 -0.2029 -0.8493
   49MOL    H9924195   7.032   1.342   7.634 -0.2292 -0.4770  0.3866
   49MOL   H10024196   7.135   1.122   7.566  1.4777 -0.4018  0.3724
   49MOL   H10124197   7.197   1.082   7.320 -2.5701 -0.4528 -1.5812
   49MOL   C10224198   7.540   1.528   7.146  0.1087 -0.1777 -0.4337
   49MOL   C10324199   7.554   1.485   7.301  0.3275  0.2881  0.0411
   49MOL   C10424200   7.437   1.395   7.348  0.7306  0.3899  0.1834
   49MOL   C10524201   7.543   1.616   7.390 -0.4973 -0.0629  0.0770
   49MOL   O10624202   7.478   1.627   7.491  0.0974 -0.2277 -0.2884
   49MOL   O10724203   7.623   1.713   7.340  0.0601 -0.1728  0.6970
   49MOL   C10824204   7.653   1.819   7.429  0.2748 -0.1858 -0.3897
   49MOL   C10924205   7.767   1.909   7.380 -0.7323 -0.4139  0.7288
   49MOL   C11024206   7.902   1.866   7.367  0.6402 -0.1121 -0.4974
   49MOL   C11124207   8.004   1.955   7.339 -0.3808  0.1934 -0.6552
   49MOL   C11224208   7.979   2.093   7.315 -0.2356 -0.3462 -0.6806
   49MOL   C11324209   7.846   2.134   7.317  0.4202  0.1511  0.2917
   49MOL   C11424210   7.747   2.044   7.348 -0.0240 -0.1204 -0.0885
   49MOL   H11524211   7.498   1.629   7.140  0.5719  0.0658  0.4517
   49MOL   H11624212   7.641   1.545   7.110  0.2451  1.9392  0.8528
   49MOL   H11724213   7.428   1.306   7.286 -1.7043  1.2001 -0.6853
   49MOL   H11824214   7.343   1.450   7.345  2.5666  3.6134 -0.9023
   49MOL   H11924215   7.448   1.353   7.448  1.0069 -0.3972 -0.1751
   49MOL   H12024216   7.566   1.875   7.464 -0.4498 -0.8040 -1.1611
   49MOL   H12124217   7.695   1.779   7.521 -1.1512  0.4524  0.5595
   49MOL   H12224218   7.931   1.764   7.389 -1.7170 -0.8809 -0.7693
   49MOL   H12324219   0.100   1.923   7.339 -0.1469  0.8678  2.0708
   49MOL   H12424220   0.051   2.161   7.285 -0.8348 -0.6237 -2.9931
   49MOL   H12524221   7.828   2.237   7.290  0.1109 -0.0772 -0.3822
   49MOL   H12624222   7.647   2.080   7.329  0.0754 -0.3884 -1.0965
   49MOL   C12724223   7.694   1.416   7.325 -0.5824 -0.7388 -0.1167
   49MOL   C12824224   7.721   1.307   7.442  0.2632  0.1170  0.1525
   49MOL   C12924225   7.869   1.257   7.426 -0.3355 -0.2261  0.7755
   49MOL   C13024226   7.648   1.172   7.417  0.5079 -0.1586  0.4855
   49MOL   O13124227   7.576   1.113   7.497 -0.0439 -0.4585 -0.3119
   49MOL   O13224228   7.670   1.129   7.291  0.1481 -0.4661 -0.3066
   49MOL   C13324229   7.598   1.007   7.264 -0.0792  0.0881  0.3480
   49MOL   C13424230   7.573   0.983   7.114  0.2169 -0.6471 -0.0481
   49MOL   C13524231   7.687   0.988   7.023  0.1560 -0.6190  0.3324
   49MOL   C13624232   7.669   0.974   6.881  0.2580 -0.8271 -0.5482
   49MOL   C13724233   7.539   0.956   6.837  0.7104 -0.7599 -0.4235
   49MOL   C13824234   7.427   0.942   6.920 -0.0588 -0.0371  0.0871
   49MOL   C13924235   7.448   0.957   7.061 -0.0861  0.7029  0.2050
   49MOL   H14024236   7.769   1.495   7.332 -0.3492 -0.6629 -2.7642
   49MOL   H14124237   7.723   1.369   7.231  0.1291  1.9281 -1.2930
   49MOL   H14224238   7.874   1.160   7.475 -0.0534 -0.8901 -0.5426
   49MOL   H14324239   7.948   1.314   7.475  0.3858  0.1227 -0.7427
   49MOL   H14424240   7.887   1.243   7.319 -0.4843 -0.9475  0.8464
   49MOL   H14524241   7.657   0.926   7.309 -0.8060  0.3145  1.7416
   49MOL   H14624242   7.500   1.004   7.311 -1.4478  3.3140 -2.1867
   49MOL   H14724243   7.782   0.997   7.073  0.8445 -2.2189 -0.6490
   49MOL   H14824244   7.753   0.977   6.814 -0.8626  0.0429 -1.9511
   49MOL   H14924245   7.516   0.947   6.732 -0.8081 -1.3137 -0.0530
   49MOL   H15024246   7.326   0.927   6.887  0.5547 -0.4410 -1.6566
   49MOL   H15124247   7.356   0.965   7.118 -0.6284  1.2794 -0.7336
   49MOL   C15224248   7.685   1.364   7.585 -0.0161 -0.3952 -0.3457
   49MOL   C15324249   7.789   1.453   7.672  0.2538 -1.3367 -0.1621
   49MOL   C15424250   7.865   1.555   7.580  0.1752  0.3147 -0.4754
   49MOL   C15524251   7.893   1.353   7.736  0.0817  0.8697 -0.3571
   49MOL   O15624252   7.880   1.232   7.742  0.2965 -0.3874 -0.2428
   49MOL   O15724253   7.999   1.418   7.783 -0.2364 -0.3382 -0.2391
   49MOL   C15824254   0.096   1.339   7.840  0.6031 -0.1516  0.3763
   49MOL   C15924255   0.227   1.354   7.762  0.0105 -0.2876 -0.5762
   49MOL   C16024256   0.333   1.417   7.826 -0.6155  0.1022  0.0376
   49MOL   C16124257   0.460   1.428   7.764 -0.1331  0.2862 -0.3035
   49MOL   C16224258   0.469   1.386   7.633 -0.2053  0.2077 -0.1886
   49MOL   C16324259   0.361   1.324   7.564 -0.0674  0.2145 -0.1703
   49MOL   C16424260   0.242   1.303   7.636  1.0674 -0.3560 -0.3657
   49MOL   H16524261   7.652   1.284   7.651 -0.6060 -1.7716 -2.2533
   49MOL   H16624262   7.592   1.421   7.577  0.0888  0.0884  1.6941
   49MOL   H16724263   7.927   1.506   7.506  0.6557  0.2166 -0.0139
   49MOL   H16824264   7.934   1.620   7.634 -0.3930  0.0771  0.5507
   49MOL   H16924265   7.802   1.616   7.515 -1.4583  1.9878  2.5636
   49MOL   H17024266   0.115   1.364   7.945  1.8154 -0.0662  0.1457
   49MOL   H17124267   0.069   1.234   7.848  0.3170 -0.1617 -0.7370
   49MOL   H17224268   0.335   1.461   7.925  1.6813 -0.1642  0.1302
   49MOL   H17324269   0.556   1.464   7.800  0.7340 -1.0280 -1.2285
   49MOL   H17424270   0.567   1.385   7.588  0.0296  3.9394  0.1585
   49MOL   H17524271   0.373   1.296   7.461 -1.6112  1.3152 -0.6673
   49MOL   H17624272   0.151   1.259   7.598  0.4867 -4.1485  4.7974
   49MOL   C17724273   7.692   1.518   7.781  0.0803 -0.5395 -0.8825
   49MOL   C17824274   7.740   1.588   7.907  0.0339  0.8524  0.0394
   49MOL   C17924275   7.622   1.669   7.952  0.2469 -0.8805 -0.3795
   49MOL   C18024276   7.842   1.704   7.863  0.4210 -0.2352  0.2919
   49MOL   O18124277   7.951   1.730   7.912 -0.3135  0.1588  0.4485
   49MOL   O18224278   7.794   1.781   7.759  0.0091  0.4620 -0.2426
   49MOL   C18324279   7.855   1.908   7.732 -0.2772 -0.0354 -0.2253
   49MOL   C18424280   7.754   2.025   7.731  0.6886  0.3608  0.0976
   49MOL   C18524281   7.794   2.160   7.751  0.1845  0.4720 -0.1542
   49MOL   C18624282   7.706   2.265   7.725 -0.0181 -0.0140 -0.4751
   49MOL   C18724283   7.574   2.241   7.693 -0.2594 -0.1590  0.5456
   49MOL   C18824284   7.537   2.107   7.669  0.1702  0.6694  0.4305
   49MOL   C18924285   7.627   1.998   7.678 -0.4575 -0.0503 -0.6151
   49MOL   H19024286   7.626   1.437   7.809  2.0010 -1.2174  1.9157
   49MOL   H19124287   7.627   1.583   7.722  0.1936 -1.6962 -2.3295
   49MOL   H19224288   7.643   1.728   0.034 -0.6778 -2.9792  1.2868
   49MOL   H19324289   7.543   1.595   7.970 -0.9679  0.7913  1.3026
   49MOL   H19424290   7.575   1.736   7.880 -0.8693 -0.6685  0.5317
   49MOL   H19524291   7.936   1.920   7.805  0.1727 -0.3739 -0.6670
   49MOL   H19624292   7.919   1.910   7.644  2.4751  0.5173  1.7077
   49MOL   H19724293   7.891   2.176   7.797  1.5601  1.1149 -3.1601
   49MOL   H19824294   7.737   2.365   7.753  0.8683 -0.6733  0.9517
   49MOL   H19924295   7.496   2.313   7.675  0.6354  0.5440 -0.5802
   49MOL   H20024296   7.437   2.084   7.636 -0.4909  3.2635  0.5262
   49MOL   H20124297   7.586   1.897   7.677 -0.2624 -0.1359 -0.0343
   49MOL   C20224298   7.803   1.488   0.003 -0.2906 -0.0987 -0.3546
   49MOL   C20324299   7.789   1.504   0.164  1.1746 -0.2051  1.0118
   49MOL   C20424300   7.648   1.513   0.213 -0.1135  0.5521  0.7321
   49MOL   C20524301   7.857   1.641   0.213 -0.6909  0.3528 -0.3433
   49MOL   O20624302   7.790   1.740   0.233  0.2558 -0.1656  0.4097
   49MOL   O20724303   7.990   1.646   0.220 -0.0047  0.2868 -0.2140
   49MOL   C20824304   0.051   1.762   0.246  0.4462  0.1481  0.1035
   49MOL   C20924305   0.194   1.734   0.272 -0.9459 -0.3799  0.4887
   49MOL   C21024306   0.257   1.612   0.242 -0.1214 -0.8520  0.1758
   49MOL   C21124307   0.389   1.588   0.289 -0.2830 -0.3822 -0.3977
   49MOL   C21224308   0.469   1.682   0.355 -0.3573 -0.3862  0.3096
   49MOL   C21324309   0.405   1.806   0.377 -0.4693 -0.7131  0.3927
   49MOL   C21424310   0.275   1.830   0.343  0.1055 -0.7936  0.3907
   49MOL   H21524311   7.911   1.480   7.996 -0.5908 -1.8081 -1.9349
   49MOL   H21624312   7.752   1.394   7.986  0.0178 -0.3890  0.1176
   49MOL   H21724313   7.595   1.607   0.197 -0.5313 -0.3934 -4.2510
   49MOL   H21824314   7.645   1.497   0.320  2.9887 -2.1038  0.4900
   49MOL   H21924315   7.580   1.432   0.188 -0.6740  0.1818  3.3431
   49MOL   H22024316   0.049   1.824   0.157  1.3020  0.6953  0.4584
   49MOL   H22124317   0.007   1.828   0.321 -2.3058 -1.2834 -0.1956
   49MOL   H22224318   0.191   1.539   0.198 -2.3594  2.4753 -2.2687
   49MOL   H22324319   0.426   1.488   0.272 -1.8332 -0.9721 -0.4079
   49MOL   H22424320   0.567   1.665   0.397 -0.8518  2.9052  2.9744
   49MOL   H22524321   0.452   1.880   0.441  0.4323 -0.0758 -0.9830
   49MOL   H22624322   0.229   1.923   0.374 -1.9332 -1.1470 -1.4251
   49MOL   C22724323   7.872   1.393   0.243  0.5389  0.1137  0.0348
   49MOL   C22824324   7.829   1.239   0.244 -0.0088  0.7176  0.1746
   49MOL   C22924325   7.836   1.182   0.097  0.4359  0.3348 -0.2543
   49MOL   C23024326   7.681   1.215   0.293 -0.4506 -0.3789  0.2867
   49MOL   O23124327   7.597   1.158   0.224  0.1144  0.7692 -0.2107
   49MOL   O23224328   7.667   1.255   0.425 -0.1136  0.4810  0.0802
   49MOL   C23324329   7.541   1.247   0.496  0.4668 -0.7621 -0.4981
   49MOL   C23424330   7.493   1.106   0.502 -0.1699  0.1569 -0.6843
   49MOL   C23524331   7.567   0.999   0.559 -0.6708 -0.1430  0.5472
   49MOL   C23624332   7.513   0.872   0.570 -0.0439 -0.3689 -0.7161
   49MOL   C23724333   7.383   0.850   0.516  0.7007  0.2187  1.2580
   49MOL   C23824334   7.312   0.949   0.443 -0.6654  0.9792 -0.1698
   49MOL   C23924335   7.366   1.076   0.450  0.8881 -0.3582  0.5899
   49MOL   H24024336   7.860   1.419   0.349 -0.3609 -1.8230  0.4304
   49MOL   H24124337   7.976   1.406   0.213  1.1814 -0.8073  1.7932
   49MOL   H24224338   7.923   1.216   0.041  2.1123 -1.0124  1.4621
   49MOL   H24324339   7.737   1.200   0.055 -0.2621 -0.6050  0.9161
   49MOL   H24424340   7.841   1.073   0.102  2.7618  0.3567 -1.5039
   49MOL   H24524341   7.556   1.285   0.597 -0.6655 -0.7654 -0.3213
   49MOL   H24624342   7.469   1.314   0.449 -0.4143  1.6036  3.9395
   49MOL   H24724343   7.660   1.027   0.605  3.1732 -1.1404 -6.0635
   49MOL   H24824344   7.550   0.788   0.626  2.2824 -1.0579 -3.1372
   49MOL   H24924345   7.330   0.756   0.511  2.2581 -0.5795 -1.4350
   49MOL   H25024346   7.221   0.928   0.390  1.7936  1.5942 -4.9428
   49MOL   H25124347   7.312   1.154   0.398  0.2458  0.4870  2.4738
   49MOL   C25224348   7.916   1.149   0.336  0.0104  0.7257  0.8339
   49MOL   C25324349   0.062   1.149   0.358 -0.1253 -0.2454  0.0115
   49MOL   C25424350   0.107   1.271   0.446 -0.3096 -0.3486  0.3634
   49MOL   C25524351   0.134   1.171   0.226 -0.1118  0.0271  0.6102
   49MOL   O25624352   0.164   1.283   0.180  0.4605  0.3242  0.7988
   49MOL   O25724353   0.176   1.065   0.159 -0.0469  0.5814 -0.1248
   49MOL   C25824354   0.239   1.083   0.030  0.1166 -0.3509 -0.5945
   49MOL   C25924355   0.304   0.955   7.985 -0.5107  0.5164 -0.5252
   49MOL   C26024356   0.315   0.834   0.055  0.3012 -1.4506 -0.5296
   49MOL   C26124357   0.368   0.721   0.001  0.2766  1.1627 -0.1029
   49MOL   C26224358   0.416   0.714   7.871 -0.4291 -0.3643  0.4497
   49MOL   C26324359   0.403   0.833   7.795  0.1275 -0.2495 -0.2539
   49MOL   C26424360   0.355   0.952   7.855 -0.1122 -0.2194 -0.0971
   49MOL   H26524361   7.873   1.049   0.325  1.2374  0.4844 -2.2451
   49MOL   H26624362   7.883   1.179   0.435  0.1668  2.9687  0.2158
   49MOL   H26724363   0.062   1.274   0.545  0.1760  0.4843  0.5683
   49MOL   H26824364   0.079   1.369   0.406  1.3743 -0.2390 -0.5838
   49MOL   H26924365   0.216   1.275   0.451 -0.3348 -0.2715  0.8311
   49MOL   H27024366   0.156   1.118   7.977 -0.6418 -0.9088  0.1203
   49MOL   H27124367   0.315   1.161   0.040 -0.9306  0.6228 -0.0424
   49MOL   H27224368   0.291   0.837   0.160 -1.9310  2.4227 -1.0498
   49MOL   H27324369   0.378   0.635   0.065 -1.1379 -0.1747 -1.6613
   49MOL   H27424370   0.448   0.628   7.813  1.2692  0.0752  0.7067
   49MOL   H27524371   0.429   0.834   7.690  0.5775 -0.4049 -0.1453
   49MOL   H27624372   0.354   1.045   7.800  2.1530  0.3808  0.8408
   49MOL   C27724373   0.100   1.009   0.417 -0.1430 -0.2739  0.2525
   49MOL   C27824374   0.069   0.975   0.577 -0.0977  0.0569  0.5346
   49MOL   C27924375   7.923   0.986   0.609  0.6596 -0.1408 -0.2564
   49MOL   C28024376   0.159   1.060   0.680 -0.0569  0.1600 -0.0300
   49MOL   O28124377   0.110   1.100   0.787 -0.6904  0.2545  0.6318
   49MOL   O28224378   0.283   1.075   0.632  0.0337 -0.6982 -0.2714
   49MOL   C28324379   0.382   1.142   0.713 -0.0461 -0.0001  0.2377
   49MOL   C28424380   0.455   1.234   0.623  0.5151 -0.1152 -0.2569
   49MOL   C28524381   0.461   1.215   0.488  0.2594 -0.3232  0.8358
   49MOL   C28624382   0.545   1.287   0.402  0.1830  0.4480  0.0287
   49MOL   C28724383   0.618   1.392   0.459  0.3898  0.2840  0.5369
   49MOL   C28824384   0.618   1.414   0.592  0.1426 -0.1268  0.3546
   49MOL   C28924385   0.540   1.332   0.676 -0.8309 -0.5667 -0.4164
   49MOL   H29024386   0.204   0.996   0.388  0.4922  0.3500  2.1337
   49MOL   H29124387   0.057   0.933   0.351  0.2497  2.1778 -2.9225
   49MOL   H29224388   7.887   1.087   0.627 -2.0895 -0.8337 -1.6814
   49MOL   H29324389   7.902   0.944   0.707 -0.2040 -0.9284 -0.7741
   49MOL   H29424390   7.863   0.929   0.538  0.4721  0.2372 -0.3991
   49MOL   H29524391   0.341   1.198   0.797  0.9933  0.5126  0.4055
   49MOL   H29624392   0.459   1.073   0.748 -1.4029 -2.5720 -1.6711
   49MOL   H29724393   0.402   1.142   0.434  1.1573 -0.5121  0.0896
   49MOL   H29824394   0.542   1.285   0.294  1.5668  3.4468 -0.1085
   49MOL   H29924395   0.677   1.460   0.400  1.3658 -1.7592 -0.9263
   49MOL   H30024396   0.678   1.496   0.628 -1.2614  0.5450  1.2242
   49MOL   H30124397   0.546   1.355   0.781 -2.9662  2.3029 -0.8439
   49MOL   C30224398   0.107   0.828   0.586  0.2939  0.5648  0.3363
   49MOL   C30324399   0.148   0.738   0.709 -0.6117  0.7010  0.0749
   49MOL   C30424400   0.059   0.764   0.831  0.0246 -0.4073 -0.4509
   49MOL   C30524401   0.305   0.745   0.747  0.0797  0.8500 -0.3451
   49MOL   O30624402   0.386   0.818   0.684  0.4110  0.2660 -0.0593
   49MOL   O30724403   0.337   0.663   0.863 -0.3385 -0.4631  0.1176
   49MOL   C30824404   0.470   0.672   0.910 -0.4248  0.4782 -0.3139
   49MOL   C30924405   0.514   0.808   0.970 -0.1183  0.0640 -0.2242
   49MOL   C31024406   0.645   0.845   0.965 -0.0541  0.1791 -0.7047
   49MOL   C31124407   0.679   0.974   1.011  0.1423  0.6964 -0.1144
   49MOL   C31224408   0.581   1.062   1.062  0.4867 -0.4641 -0.2609
   49MOL   C31324409   0.445   1.026   1.067  0.0060  0.0231 -0.0408
   49MOL   C31424410   0.414   0.897   1.022 -0.1656  0.2823  0.0655
   49MOL   H31524411   0.193   0.820   0.520  0.3410  2.0656  0.1842
   49MOL   H31624412   0.031   0.775   0.528 -0.9959  1.4471  1.1979
   49MOL   H31724413   0.073   0.692   0.912 -0.2695 -0.2552 -0.2620
   49MOL   H31824414   7.964   0.751   0.795 -1.1354  3.2414  1.2322
   49MOL   H31924415   0.065   0.861   0.881  2.2633 -0.0299 -1.3988
   49MOL   H32024416   0.470   0.602   0.993 -2.1144 -0.1047 -0.7850
   49MOL   H32124417   0.542   0.642   0.833 -0.5082  1.3272 -0.7395
   49MOL   H32224418   0.718   0.790   0.907 -1.3124 -2.3266  0.0404
   49MOL   H32324419   0.784   0.999   1.018  0.5296 -1.3386  1.9406
   49MOL   H32424420   0.614   1.151   1.112 -0.4166  0.3251 -1.0442
   49MOL   H32524421   0.370   1.089   1.112 -1.4682 -1.4283 -0.3915
   49MOL   H32624422   0.315   0.856   1.011 -0.6928  1.4189  0.5546
   49MOL   C32724423   0.112   0.591   0.670  0.8257 -0.2535  0.3236
   49MOL   C32824424   0.192   0.496   0.565  0.5973  0.0080 -0.1861
   49MOL   C32924425   0.341   0.481   0.604 -0.5851  0.2750  0.1050
   49MOL   C33024426   0.177   0.554   0.427 -0.1613 -0.4529  0.2799
   49MOL   O33124427   0.267   0.612   0.373 -0.3983  0.6257  0.0374
   49MOL   O33224428   0.047   0.556   0.387  0.2865  0.5801  0.0045
   49MOL   C33324429   0.006   0.595   0.258  0.1630 -0.0082  0.4640
   49MOL   C33424430   7.872   0.649   0.262 -0.0487  0.1352  0.1305
   49MOL   C33524431   7.843   0.777   0.223 -0.9858 -0.0924 -0.5633
   49MOL   C33624432   7.712   0.821   0.213 -0.0269 -0.3091 -0.1809
   49MOL   C33724433   7.608   0.735   0.257 -0.0438 -0.4710 -0.5021
   49MOL   C33824434   7.634   0.609   0.303 -0.4819  0.1143 -0.3982
   49MOL   C33924435   7.765   0.568   0.314 -1.7195 -0.0948  0.2802
   49MOL   H34024436   0.005   0.583   0.653  0.7814 -0.0519  0.5106
   49MOL   H34124437   0.129   0.533   0.760 -0.5035 -0.8350  0.2095
   49MOL   H34224438   0.405   0.568   0.590  0.9413 -0.9642 -0.7601
   49MOL   H34324439   0.388   0.403   0.543  1.1425  0.8969  0.6015
   49MOL   H34424440   0.359   0.446   0.706 -0.0172  0.1243 -0.0458
   49MOL   H34524441   0.067   0.676   0.218  1.4030 -1.8092 -1.4291
   49MOL   H34624442   0.010   0.507   0.194 -0.5329  2.8707 -3.7581
   49MOL   H34724443   7.923   0.838   0.184  1.1064 -2.2503  0.2013
   49MOL   H34824444   7.684   0.919   0.179  0.5567  0.1683  0.6737
   49MOL   H34924445   7.508   0.776   0.260  0.0296 -0.3544  0.5681
   49MOL   H35024446   7.550   0.548   0.333  0.1371 -0.5024  0.1157
   49MOL   H35124447   7.784   0.468   0.350 -0.4591  0.0249 -0.0044
   49MOL   C35224448   0.123   0.352   0.582  0.5617  0.2102  0.4190
   49MOL   C35324449   0.171   0.212   0.533  0.3537  0.1920  0.3776
   49MOL   C35424450   0.282   0.165   0.635  0.2326 -0.5613  0.2982
   49MOL   C35524451   0.222   0.237   0.385  1.0125 -0.2907  0.3270
   49MOL   O35624452   0.146   0.278   0.293 -0.0309 -0.4195  0.3482
   49MOL   O35724453   0.347   0.209   0.372  0.0362 -0.4300 -0.2459
   49MOL   C35824454   0.406   0.183   0.244 -0.0509  0.3982 -0.7353
   49MOL   C35924455   0.533   0.120   0.256  0.3183  0.5278  0.1493
   49MOL   C36024456   0.544   7.987   0.278  0.1097 -0.0498 -0.8195
   49MOL   C36124457   0.668   7.925   0.299 -0.4280 -0.3247 -0.3941
   49MOL   C36224458   0.784   8.007   0.293 -0.4610 -0.4522  0.0064
   49MOL   C36324459   0.780   0.134   0.253  0.3165  0.1807  0.1289
   49MOL   C36424460   0.656   0.192   0.230  0.5212 -0.8109  0.9983
   49MOL   H36524461   0.023   0.365   0.540 -0.3175 -1.8938  1.8050
   49MOL   H36624462   0.101   0.342   0.688  0.1816  0.7672  0.3964
   49MOL   H36724463   0.246   0.163   0.738  0.7363  0.4911  0.4951
   49MOL   H36824464   0.369   0.230   0.638  0.7249 -1.2359  0.7388
   49MOL   H36924465   0.319   0.064   0.615 -0.7087 -1.2565  1.9289
   49MOL   H37024466   0.343   0.123   0.178 -0.7134 -0.9123  1.0627
   49MOL   H37124467   0.411   0.276   0.188 -1.3894 -0.9631 -3.2133
   49MOL   H37224468   0.455   7.929   0.297  0.8906 -0.6483  1.1222
   49MOL   H37324469   0.677   7.819   0.321 -0.8227 -0.0910  0.9347
   49MOL   H37424470   0.874   7.953   0.319 -0.3337 -0.4870 -0.5037
   49MOL   H37524471   0.861   0.205   0.244 -0.5505  1.2775  0.8901
   49MOL   H37624472   0.656   0.295   0.198  1.0317 -1.1428 -0.1015
   49MOL   C37724473   0.047   0.116   0.539 -0.2019 -0.0964 -0.2437
   49MOL   C37824474   0.040   7.978   0.474 -0.0511  0.5896  0.0328
   49MOL   C37924475   7.923   7.912   0.533 -0.6181  0.0479  0.3863
   49MOL   C38024476   0.163   7.893   0.513 -1.3461  0.3052  0.1086
   49MOL   O38124477   0.257   7.877   0.431 -0.0269  0.6783 -0.4460
   49MOL   O38224478   0.163   7.838   0.637  0.1016 -0.0545  0.1209
   49MOL   C38324479   0.283   7.771   0.667  1.0253 -0.2755  0.2628
   49MOL   C38424480   0.275   7.689   0.794  0.3104  0.5241 -0.5090
   49MOL   C38524481   0.362   7.714   0.902  0.5328  0.1627  0.4536
   49MOL   C38624482   0.381   7.623   1.002 -0.2655  0.1308  0.1060
   49MOL   C38724483   0.298   7.505   1.011 -0.0510 -0.2658 -0.3167
   49MOL   C38824484   0.197   7.490   0.913  0.0397  0.7823  0.0163
   49MOL   C38924485   0.187   7.579   0.804 -0.8441  0.1040 -0.8283
   49MOL   H39024486   7.973   0.156   0.479 -0.7316  2.0421  1.8082
   49MOL   H39124487   0.019   0.109   0.644  1.3874  1.2022  0.2924
   49MOL   H39224488   7.832   7.964   0.505 -0.3714  0.4955  0.3922
   49MOL   H39324489   7.927   7.911   0.642  0.3436 -0.6715  0.3510
   49MOL   H39424490   7.906   7.811   0.498  1.0512  0.6429 -2.2821
   49MOL   H39524491   0.294   7.696   0.589  2.0628 -1.8587  1.9034
   49MOL   H39624492   0.370   7.837   0.661  2.3494 -1.8286  1.9787
   49MOL   H39724493   0.418   7.806   0.905  0.3040  0.2549  2.2975
   49MOL   H39824494   0.453   7.641   1.080 -1.1179  0.6102  0.7910
   49MOL   H39924495   0.326   7.421   1.073  1.8967 -1.4422 -2.6949
   49MOL   H40024496   0.130   7.405   0.911 -0.1140  0.8989  0.1171
   49MOL   H40124497   0.129   7.543   0.720 -0.2857 -1.6505 -0.4751
   49MOL   C40224498   0.020   7.990   0.320  0.4864  0.1846 -0.2236
   49MOL   C40324499   7.974   7.871   0.226 -0.2254  0.0893 -0.3942
   49MOL   C40424500   8.003   7.929   0.080  0.1071 -0.0667 -0.5105
   49MOL   C40524501   7.821   7.859   0.232 -0.2629  0.0949 -0.1986
   49MOL   O40624502   7.770   7.755   0.284  0.4499 -0.0764 -0.5635
   49MOL   O40724503   7.746   7.957   0.178  0.2600 -0.4327 -0.1023
   49MOL   C40824504   7.603   7.964   0.190 -0.3578 -0.1603 -0.3351
   49MOL   C40924505   7.548   0.095   0.160 -0.3689  0.7158 -0.3261
   49MOL   C41024506   7.413   0.117   0.156 -0.0854 -0.0213  0.2760
   49MOL   C41124507   7.361   0.250   0.141 -0.1399  0.4765 -0.3054
   49MOL   C41224508   7.450   0.354   0.102  0.1216  0.4118 -0.4519
   49MOL   C41324509   7.585   0.327   0.095 -0.8342 -0.0200 -0.3711
   49MOL   C41424510   7.640   0.199   0.126  0.3791 -0.6942  0.3523
   49MOL   H41524511   0.112   0.026   0.281  2.9671 -1.8265  3.1698
   49MOL   H41624512   7.951   0.060   0.304  1.7887  1.2026 -1.6751
   49MOL   H41724513   0.103   7.930   0.062  0.0981  0.1405 -0.5620
   49MOL   H41824514   7.969   0.026   0.073 -0.1709 -0.2726 -2.4547
   49MOL   H41924515   7.956   7.875   8.005 -1.5857 -0.9060  0.9755
   49MOL   H42024516   7.562   7.874   0.145  0.8504 -1.4738  1.1588
   49MOL   H42124517   7.594   7.951   0.298  1.1341 -1.7310 -0.3830
   49MOL   H42224518   7.342   0.039   0.177 -1.6055  0.9913 -1.0486
   49MOL   H42324519   7.255   0.261   0.159 -0.1582  0.8381 -0.6405
   49MOL   H42424520   7.422   0.453   0.069  0.4445  0.8599  0.5943
   49MOL   H42524521   7.656   0.404   0.067  0.1545  0.1740  2.5137
   49MOL   H42624522   7.747   0.189   0.123  0.6718  2.0710  0.2551
   49MOL   C42724523   0.053   7.739   0.242  1.0510  0.1900  0.3277
   49MOL   C42824524   0.031   7.601   0.179 -0.6354 -0.4073 -0.4169
   49MOL   C42924525   7.992   7.623   0.031  0.9338  0.4961 -0.6725
   49MOL   C43024526   7.940   7.509   0.263 -0.0968  0.2987 -0.1735
   49MOL   O43124527   7.957   7.496   0.383 -0.3401  0.8040 -0.1070
   49MOL   O43224528   7.846   7.456   0.182  0.6228  0.1879 -0.4495
   49MOL   C43324529   7.728   7.409   0.236  0.5993 -0.4213 -0.2503
   49MOL   C43424530   7.622   7.389   0.134 -0.5293  0.0154 -0.3524
   49MOL   C43524531   7.593   7.493   0.040  0.0577  0.1471 -0.1519
   49MOL   C43624532   7.486   7.470   7.956  0.3159  0.0397 -0.4000
   49MOL   C43724533   7.429   7.340   7.947 -0.0149  0.8398  0.0227
   49MOL   C43824534   7.473   7.231   0.023 -0.4514 -0.7753 -0.0350
   49MOL   C43924535   7.560   7.260   0.127  0.5904  0.7925 -0.8014
   49MOL   H44024536   0.062   7.723   0.350 -1.1692 -1.2906  0.3271
   49MOL   H44124537   0.150   7.776   0.207 -0.4283  0.8316 -3.2884
   49MOL   H44224538   0.036   7.690   7.969  1.4695  0.3780 -0.3930
   49MOL   H44324539   7.887   7.649   0.024  0.9272  0.5876 -0.2022
   49MOL   H44424540   7.998   7.525   7.989 -1.0303 -0.7179  1.4391
   49MOL   H44524541   7.737   7.314   0.289  1.6538 -0.5814 -0.6983
   49MOL   H44624542   7.692   7.484   0.307 -1.7950 -0.7899 -1.0197
   49MOL   H44724543   7.654   7.582   0.037 -1.3480  1.2221  1.7643
   49MOL   H44824544   7.450   7.547   7.888 -0.8237  1.1890  1.4604
   49MOL   H44924545   7.350   7.329   7.874 -1.3191 -0.9302  1.6703
   49MOL   H45024546   7.412   7.141   0.023 -0.6972 -0.6121 -0.5376
   49MOL   H45124547   7.587   7.191   0.206 -0.4041 -0.2082 -1.3107
   49MOL   C45224548   0.174   7.535   0.178  0.6443 -0.8083 -0.0185
   49MOL   C45324549   0.211   7.405   0.092 -0.1265 -0.7486 -0.0325
   49MOL   C45424550   0.348   7.363   0.158 -0.2625 -0.1429 -0.2541
   49MOL   C45524551   0.242   7.444   7.950 -0.5118  0.3899  0.4450
   49MOL   O45624552   0.187   7.385   7.857  0.0904  0.0272  0.6565
   49MOL   O45724553   0.342   7.523   7.929 -0.3767 -0.1383  0.2840
   49MOL   C45824554   0.362   7.585   7.803 -0.0287  0.3671  0.1717
   49MOL   C45924555   0.405   7.727   7.826  0.3447 -0.4935  1.0030
   49MOL   C46024556   0.493   7.762   7.925 -0.4691 -0.1314 -0.6744
   49MOL   C46124557   0.524   7.896   7.943 -0.4585  0.2331  0.4425
   49MOL   C46224558   0.471   7.997   7.861 -0.3612  0.6852 -0.0374
   49MOL   C46324559   0.391   7.957   7.747 -0.1190 -0.2871 -0.3804
   49MOL   C46424560   0.351   7.822   7.741 -0.1393 -0.0954 -0.2600
   49MOL   H46524561   0.208   7.527   0.281 -0.6893 -0.2635  0.4758
   49MOL   H46624562   0.245   7.610   0.146  1.2099 -2.0395 -1.7617
   49MOL   H46724563   0.427   7.439   0.155  0.7719 -1.2118 -0.3922
   49MOL   H46824564   0.392   7.269   0.124 -0.7358 -0.9761  1.4125
   49MOL   H46924565   0.329   7.331   0.260  3.0282 -1.9664 -0.1382
   49MOL   H47024566   0.436   7.529   7.745  1.0460  1.2890  0.6344
   49MOL   H47124567   0.273   7.583   7.740 -0.5536 -0.5838  0.9279
   49MOL   H47224568   0.537   7.681   7.982 -0.6784 -0.1182 -0.4936
   49MOL   H47324569   0.614   7.920   7.998  1.3681 -1.3650 -1.7916
   49MOL   H47424570   0.502   0.093   7.864  0.9944  0.2788  0.0897
   49MOL   H47524571   0.344   0.023   7.682 -0.8982 -0.4310  0.0189
   49MOL   H47624572   0.285   7.788   7.663 -0.3454  1.2796 -0.7083
   49MOL   C47724573   0.114   7.285   0.099  0.3585 -0.0589 -0.2750
   49MOL   C47824574   0.164   7.145   0.050  0.5404  0.2921  0.3120
   49MOL   C47924575   0.053   7.079   7.968  0.0887 -0.3954 -0.6221
   49MOL   C48024576   0.207   7.055   0.169  0.1126 -0.1928  0.2857
   49MOL   O48124577   0.214   7.108   0.278  0.1661 -0.6357 -0.2745
   49MOL   O48224578   0.216   6.921   0.134 -0.1258  0.4156 -0.5871
   49MOL   C48324579   0.280   6.824   0.210  0.0390 -0.6964  0.1700
   49MOL   C48424580   0.282   6.688   0.138  0.0435  0.3704  0.1169
   49MOL   C48524581   0.168   6.638   0.079 -0.1021 -0.0345 -0.7058
   49MOL   C48624582   0.176   6.508   0.014  0.4123  0.2974  0.2366
   49MOL   C48724583   0.302   6.441   0.007  0.2536 -0.5396 -0.1494
   49MOL   C48824584   0.416   6.502   0.065 -0.3764 -0.0884  0.5304
   49MOL   C48924585   0.407   6.618   0.135  0.2595  0.6063  0.3055
   49MOL   H49024586   0.030   7.311   0.035 -0.5089 -1.2977  0.3224
   49MOL   H49124587   0.074   7.273   0.200  0.8756  1.1262  0.0790
   49MOL   H49224588   7.965   7.084   0.014  0.3375  1.1048 -0.2874
   49MOL   H49324589   0.077   6.980   7.929  1.2856 -0.5132  0.3718
   49MOL   H49424590   0.030   7.127   7.873 -1.9022 -0.4835 -0.1982
   49MOL   H49524591   0.382   6.863   0.209 -0.1403 -0.2365 -0.7085
   49MOL   H49624592   0.247   6.813   0.313 -0.6397 -0.5952 -0.0347
   49MOL   H49724593   0.072   6.686   0.094 -1.2285 -2.8547  1.5683
   49MOL   H49824594   0.089   6.466   7.974  0.3735  0.2114  0.3833
   49MOL   H49924595   0.320   6.357   7.949 -0.0698 -0.8998  0.2296
   49MOL   H50024596   0.508   6.445   0.061 -0.2286  0.2476 -1.6912
   49MOL   H50124597   0.496   6.661   0.180  0.5791 -0.1354  0.3833
   49MOL   H50224598   0.246   7.149   7.985  1.1861  0.8664  1.0728
   50MOL     C124599   5.455   3.181   4.901  0.4592  0.0440 -0.1074
   50MOL     C224600   5.333   3.088   4.877  1.0675  0.3991 -0.2650
   50MOL     C324601   5.225   3.131   4.970  0.0876 -0.6614  0.2812
   50MOL     C424602   5.375   2.940   4.914  0.0627 -0.3204  0.3147
   50MOL     O524603   5.492   2.918   4.932 -0.2279 -0.1779  0.6921
   50MOL     O624604   5.272   2.857   4.941 -0.0992  0.8035  0.2633
   50MOL     C724605   5.302   2.735   5.011 -0.3069 -0.2053 -0.3787
   50MOL     C824606   5.200   2.626   4.983  0.1148 -0.6357 -0.4152
   50MOL     C924607   5.198   2.504   5.059  0.1246 -0.1390 -0.1187
   50MOL    C1024608   5.102   2.401   5.030 -0.1567 -0.1428 -0.1654
   50MOL    C1124609   5.022   2.415   4.919  0.3578  0.0320  0.4825
   50MOL    C1224610   5.020   2.533   4.844 -0.2288 -0.2878 -0.2724
   50MOL    C1324611   5.114   2.636   4.877  0.2143  0.4030  0.4470
   50MOL    H1424612   5.529   3.157   4.825 -1.5467  0.5310 -2.2490
   50MOL    H1524613   5.431   3.281   4.866  3.5807  0.8477 -0.1551
   50MOL    H1624614   5.188   3.232   4.952  0.2619 -0.6354  0.0752
   50MOL    H1724615   5.248   3.123   5.076 -0.5767 -1.9843  0.3362
   50MOL    H1824616   5.140   3.064   4.958  0.4476 -0.7593 -1.9258
   50MOL    H1924617   5.401   2.689   5.006 -0.5690 -0.8875  0.5838
   50MOL    H2024618   5.309   2.755   5.118  0.0048 -1.2151 -0.2075
   50MOL    H2124619   5.257   2.490   5.149  1.3532  0.8219 -0.7504
   50MOL    H2224620   5.097   2.311   5.089 -1.1523 -0.7025 -1.0736
   50MOL    H2324621   4.961   2.328   4.897 -1.8468  0.9810  2.5839
   50MOL    H2424622   4.954   2.549   4.761  0.5855  2.9277 -0.3943
   50MOL    H2524623   5.121   2.721   4.810 -2.1635  1.4519  1.4914
   50MOL    H2624624   5.507   3.171   4.997 -0.5151 -0.5401  0.3676
   50MOL    C2724625   5.277   3.091   4.729  0.2906 -0.2891  0.4876
   50MOL    C2824626   5.369   3.091   4.599 -0.5090  0.1200  0.7111
   50MOL    C2924627   5.481   2.981   4.604  0.2806  0.2449 -0.0215
   50MOL    C3024628   5.442   3.233   4.584  0.0513 -0.8757  0.2352
   50MOL    O3124629   5.555   3.236   4.542 -0.6102 -0.1428 -0.6315
   50MOL    O3224630   5.369   3.340   4.611  0.2078 -0.2878 -0.6504
   50MOL    C3324631   5.435   3.469   4.601 -0.0264 -0.4263  0.5341
   50MOL    C3424632   5.457   3.527   4.736  0.7297 -0.9547 -0.0640
   50MOL    C3524633   5.348   3.541   4.827 -0.4318  0.4752 -0.3324
   50MOL    C3624634   5.368   3.598   4.953  1.1947  0.1794 -0.4439
   50MOL    C3724635   5.500   3.628   4.998 -0.3933 -0.2839 -0.3879
   50MOL    C3824636   5.603   3.626   4.907 -0.0765 -0.4405 -0.2660
   50MOL    C3924637   5.579   3.588   4.772  0.2073  0.5411  0.1374
   50MOL    H4024638   5.207   3.174   4.721  0.1360 -0.4714 -0.0852
   50MOL    H4124639   5.208   3.006   4.723 -0.5604  0.4795 -0.7124
   50MOL    H4224640   5.543   2.979   4.694  0.3396  2.1617 -0.0143
   50MOL    H4324641   5.546   2.982   4.517 -1.0614  1.9614 -1.0338
   50MOL    H4424642   5.432   2.883   4.611  0.2469  0.3285  0.9990
   50MOL    H4524643   5.535   3.469   4.559  0.1545  0.3626  0.9546
   50MOL    H4624644   5.370   3.524   4.533  0.2779 -1.5411 -0.6861
   50MOL    H4724645   5.253   3.503   4.791 -1.1474  0.3029  1.6778
   50MOL    H4824646   5.281   3.621   5.013  0.6248 -0.9686 -0.8033
   50MOL    H4924647   5.516   3.651   5.102 -2.5935  1.8937 -0.4824
   50MOL    H5024648   5.705   3.651   4.934 -0.6833 -1.4407  3.0730
   50MOL    H5124649   5.661   3.602   4.703  0.4550  1.9445  0.6906
   50MOL    C5224650   5.275   3.073   4.477  0.8320  0.3533  0.1970
   50MOL    C5324651   5.236   2.936   4.399 -0.0626 -0.2840  0.1956
   50MOL    C5424652   5.153   2.851   4.506 -0.2507 -0.6420  0.5793
   50MOL    C5524653   5.367   2.871   4.338  0.6683 -0.2748 -0.1399
   50MOL    O5624654   5.401   2.755   4.376  0.0247  0.4613  0.5168
   50MOL    O5724655   5.439   2.952   4.257 -0.1222 -0.2145 -0.8075
   50MOL    C5824656   5.564   2.904   4.208 -0.2182  0.4381 -0.1408
   50MOL    C5924657   5.612   2.998   4.106 -0.2571 -0.4469 -0.8740
   50MOL    C6024658   5.733   3.073   4.120 -0.0099  0.4754  0.1916
   50MOL    C6124659   5.784   3.161   4.020 -0.1711  1.0568  0.2084
   50MOL    C6224660   5.703   3.179   3.906 -0.0581  0.0475  0.2496
   50MOL    C6324661   5.583   3.113   3.888 -0.3683 -0.2867 -0.3716
   50MOL    C6424662   5.535   3.025   3.992 -0.5424 -0.0610  0.4482
   50MOL    H6524663   5.325   3.127   4.396 -2.1793 -1.3446 -2.9561
   50MOL    H6624664   5.185   3.134   4.480  0.5302 -0.1058  0.4676
   50MOL    H6724665   5.073   2.911   4.549  3.3035  4.0719  1.0212
   50MOL    H6824666   5.220   2.832   4.590  2.2710  0.2768 -1.1613
   50MOL    H6924667   5.132   2.751   4.468  0.6313 -0.5836 -0.0868
   50MOL    H7024668   5.647   2.891   4.277 -1.6510 -0.5719  1.4280
   50MOL    H7124669   5.558   2.806   4.161  0.5894  1.2110 -1.9033
   50MOL    H7224670   5.799   3.065   4.205  1.0733  1.9283 -0.4916
   50MOL    H7324671   5.872   3.222   4.034 -0.9979  1.8672  1.9456
   50MOL    H7424672   5.736   3.238   3.821  1.7213 -1.4938 -0.1649
   50MOL    H7524673   5.534   3.115   3.792  0.6798 -0.6485 -0.9255
   50MOL    H7624674   5.443   2.972   3.973  0.4338 -1.5185 -0.2009
   50MOL    C7724675   5.138   2.983   4.281 -0.5510  0.1390  0.1952
   50MOL    C7824676   5.076   2.893   4.165 -0.4554 -0.1389 -0.7644
   50MOL    C7924677   5.148   2.755   4.176  0.1548  0.2208  0.4345
   50MOL    C8024678   5.109   2.957   4.026  0.2877 -0.4457 -0.4431
   50MOL    O8124679   5.077   3.075   4.004 -0.0057  0.0451  0.3290
   50MOL    O8224680   5.161   2.878   3.941 -0.0517 -0.0889 -0.5284
   50MOL    C8324681   5.190   2.922   3.809 -0.2239 -0.1544  0.6445
   50MOL    C8424682   5.261   2.809   3.731  0.3524  0.4415  0.4093
   50MOL    C8524683   5.356   2.829   3.629  0.5356 -0.0747  0.9867
   50MOL    C8624684   5.432   2.722   3.567  0.3843  0.5867 -0.5742
   50MOL    C8724685   5.403   2.592   3.616 -0.1599  0.9831  0.1320
   50MOL    C8824686   5.309   2.570   3.715 -1.0435  0.7363 -0.3973
   50MOL    C8924687   5.245   2.679   3.769  0.3166  0.7714 -0.0625
   50MOL    H9024688   5.211   3.049   4.234 -0.5551 -0.8515 -1.2063
   50MOL    H9124689   5.055   3.040   4.324  0.2480  0.4181  1.3937
   50MOL    H9224690   5.109   2.690   4.098  2.2995 -1.1858  0.4694
   50MOL    H9324691   5.152   2.710   4.275 -1.0526 -0.6127  0.1124
   50MOL    H9424692   5.254   2.757   4.149  0.6660 -0.5977  2.2560
   50MOL    H9524693   5.099   2.958   3.760  0.1004 -2.2677 -1.6284
   50MOL    H9624694   5.261   3.004   3.820 -1.3343  1.0913 -1.0533
   50MOL    H9724695   5.354   2.931   3.593 -1.4332 -0.6559 -0.6171
   50MOL    H9824696   5.506   2.736   3.489 -0.4769  0.7126 -1.3681
   50MOL    H9924697   5.448   2.506   3.569  2.1615  1.8876  0.6598
   50MOL   H10024698   5.287   2.473   3.757 -1.6414  1.0230 -0.0429
   50MOL   H10124699   5.163   2.652   3.834 -0.0253  0.9321 -0.4248
   50MOL   C10224700   4.920   2.887   4.188  0.0814  0.6479  0.3556
   50MOL   C10324701   4.820   2.786   4.104  0.4040 -0.7038 -0.6614
   50MOL   C10424702   4.690   2.841   4.152 -0.1960 -0.4233 -0.2736
   50MOL   C10524703   4.844   2.641   4.147  0.1463  0.4034 -0.2448
   50MOL   O10624704   4.905   2.557   4.081 -0.2991 -0.1198 -0.0719
   50MOL   O10724705   4.800   2.612   4.268  0.0292 -0.3842 -0.4524
   50MOL   C10824706   4.791   2.480   4.311 -0.9276  0.1173  0.2619
   50MOL   C10924707   4.701   2.457   4.432  0.1824  0.4716 -0.3750
   50MOL   C11024708   4.582   2.394   4.406  0.2109 -0.3788  0.4536
   50MOL   C11124709   4.492   2.373   4.512  0.2300 -0.4642  0.3771
   50MOL   C11224710   4.517   2.432   4.640  0.1208  0.0192 -0.2803
   50MOL   C11324711   4.638   2.504   4.664 -0.3716 -0.3202 -0.4584
   50MOL   C11424712   4.733   2.509   4.560  0.6705 -0.1881  0.2515
   50MOL   H11524713   4.881   2.984   4.157 -0.3214 -0.0312 -1.3150
   50MOL   H11624714   4.909   2.864   4.294  0.9134  0.1301  0.3326
   50MOL   H11724715   4.669   2.932   4.096  1.5575 -0.4616 -1.0167
   50MOL   H11824716   4.686   2.859   4.259  0.2385 -0.7798 -0.1995
   50MOL   H11924717   4.616   2.765   4.125  1.2037 -2.6631  2.0012
   50MOL   H12024718   4.756   2.432   4.220 -0.9902  3.1618 -1.3725
   50MOL   H12124719   4.893   2.445   4.325 -1.9106 -2.8022  0.4290
   50MOL   H12224720   4.565   2.357   4.306  0.6845  1.3575 -0.2946
   50MOL   H12324721   4.402   2.320   4.485 -1.1116  0.9110  2.0479
   50MOL   H12424722   4.446   2.411   4.719  2.0272 -0.8223  1.2292
   50MOL   H12524723   4.663   2.546   4.760  1.0916 -1.7598 -0.1820
   50MOL   H12624724   4.824   2.566   4.565  1.8207 -1.9245 -0.3623
   50MOL   C12724725   4.843   2.793   3.943 -0.1742 -0.0296  0.1720
   50MOL   C12824726   4.725   2.745   3.841  0.6745  0.2734  0.4841
   50MOL   C12924727   4.802   2.706   3.708 -0.2900 -0.3345  0.2667
   50MOL   C13024728   4.628   2.869   3.816  0.2249  0.0879 -0.0217
   50MOL   O13124729   4.526   2.888   3.879 -0.7607 -0.0731 -0.1444
   50MOL   O13224730   4.683   2.955   3.740  0.3335 -0.1618  0.1359
   50MOL   C13324731   4.635   3.074   3.721  0.0337  0.0308  0.1164
   50MOL   C13424732   4.541   3.076   3.601 -0.0130 -0.9071 -0.3757
   50MOL   C13524733   4.577   3.159   3.492 -0.1217 -0.3849  0.2839
   50MOL   C13624734   4.502   3.169   3.373  0.3648 -0.5469  0.1030
   50MOL   C13724735   4.391   3.077   3.363 -0.3487 -0.1826  0.1556
   50MOL   C13824736   4.341   3.009   3.475  0.0162 -0.3667 -0.5837
   50MOL   C13924737   4.419   3.008   3.596  0.3201 -0.5376  0.1636
   50MOL   H14024738   4.939   2.742   3.928 -0.4083 -1.2150  2.5411
   50MOL   H14124739   4.864   2.897   3.920  0.8941  0.2268  2.2382
   50MOL   H14224740   4.881   2.781   3.705 -1.0341  0.6387  3.2506
   50MOL   H14324741   4.736   2.712   3.622  1.6466  0.9900 -1.1637
   50MOL   H14424742   4.840   2.603   3.711  0.7590  0.0262 -0.3798
   50MOL   H14524743   4.590   3.115   3.811  1.7167 -0.9618  1.4394
   50MOL   H14624744   4.725   3.131   3.696  1.0306 -0.9896  1.2991
   50MOL   H14724745   4.666   3.218   3.509  0.0959  0.7367 -4.0365
   50MOL   H14824746   4.535   3.220   3.284 -2.4399 -2.5400 -2.2243
   50MOL   H14924747   4.333   3.069   3.272 -0.2468 -3.0925  0.3179
   50MOL   H15024748   4.260   2.939   3.459 -0.4262  0.4793 -2.1723
   50MOL   H15124749   4.385   2.947   3.679  1.4741 -1.5219 -0.0851
   50MOL   C15224750   4.651   2.612   3.893  0.3595 -0.2747 -0.3884
   50MOL   C15324751   4.538   2.537   3.830 -0.0224  0.2421  0.2211
   50MOL   C15424752   4.404   2.610   3.841 -0.4296 -0.7603 -0.6268
   50MOL   C15524753   4.528   2.396   3.897 -0.5647 -0.8158  0.5615
   50MOL   O15624754   4.432   2.359   3.961 -0.0519 -0.3406  0.2764
   50MOL   O15724755   4.635   2.318   3.868  0.2631 -0.1142 -0.3137
   50MOL   C15824756   4.636   2.183   3.914 -0.5545  0.0450 -0.0438
   50MOL   C15924757   4.717   2.163   4.039  0.1657  0.7659  0.7559
   50MOL   C16024758   4.659   2.096   4.154 -0.2837 -0.0255 -0.3990
   50MOL   C16124759   4.736   2.088   4.275  0.5359  0.5547  0.3064
   50MOL   C16224760   4.865   2.144   4.278 -0.1618 -0.0150 -0.5534
   50MOL   C16324761   4.923   2.200   4.158  0.0179 -0.1771 -0.0592
   50MOL   C16424762   4.850   2.207   4.038 -0.0975  0.3139  0.4164
   50MOL   H16524763   4.635   2.618   4.001 -0.5440  0.6867 -0.5717
   50MOL   H16624764   4.741   2.550   3.889 -0.3901 -1.3336 -1.0673
   50MOL   H16724765   4.384   2.667   3.750 -1.5927 -0.9347 -0.4923
   50MOL   H16824766   4.407   2.693   3.912  2.2276  0.0012 -1.5494
   50MOL   H16924767   4.311   2.560   3.866 -1.0644  0.6204 -0.1599
   50MOL   H17024768   4.542   2.128   3.904 -0.3479  0.1355 -3.0433
   50MOL   H17124769   4.695   2.133   3.837 -1.9102 -1.1576 -0.3360
   50MOL   H17224770   4.558   2.063   4.134  0.0504 -0.2711 -1.7363
   50MOL   H17324771   4.701   2.033   4.361 -1.7281  1.1614 -0.1947
   50MOL   H17424772   4.924   2.130   4.367  1.3452  1.3767 -1.3260
   50MOL   H17524773   5.024   2.239   4.159  0.7552 -1.9767 -0.9266
   50MOL   H17624774   4.894   2.248   3.949 -2.2605 -0.8647 -1.2535
   50MOL   C17724775   4.559   2.511   3.671 -0.0851  0.8073  0.3212
   50MOL   C17824776   4.464   2.413   3.585 -0.7840  0.4670  0.3785
   50MOL   C17924777   4.314   2.417   3.619 -0.5699  0.2187 -0.0954
   50MOL   C18024778   4.518   2.262   3.602 -0.1676  0.7331 -1.0364
   50MOL   O18124779   4.466   2.171   3.660 -0.1797 -0.1319  0.3638
   50MOL   O18224780   4.640   2.248   3.544  0.3413  0.6234  0.3873
   50MOL   C18324781   4.694   2.120   3.504  0.4364 -0.2357 -0.2218
   50MOL   C18424782   4.673   2.102   3.355 -0.2022  0.1686  0.2088
   50MOL   C18524783   4.543   2.067   3.313 -0.0190  0.6309  0.2187
   50MOL   C18624784   4.513   2.052   3.176 -0.3659  0.1800  0.5023
   50MOL   C18724785   4.617   2.060   3.084 -0.1333 -0.4937  0.8251
   50MOL   C18824786   4.751   2.089   3.122 -0.2405 -0.3103  0.1241
   50MOL   C18924787   4.784   2.104   3.261 -0.0938 -0.6408 -0.1321
   50MOL   H19024788   4.658   2.467   3.657 -0.0617 -0.0590  2.9194
   50MOL   H19124789   4.560   2.608   3.622 -0.9274  0.7800  0.2506
   50MOL   H19224790   4.299   2.381   3.721 -1.9795 -1.4219 -0.8420
   50MOL   H19324791   4.261   2.345   3.557 -0.7591  0.9340 -0.7667
   50MOL   H19424792   4.277   2.517   3.597 -0.1432  0.8413  1.9122
   50MOL   H19524793   4.799   2.130   3.531  0.1983  3.7104 -0.4048
   50MOL   H19624794   4.656   2.031   3.554 -0.8536  1.0094  1.1070
   50MOL   H19724795   4.463   2.047   3.383  0.6741 -1.1515  0.5303
   50MOL   H19824796   4.414   2.031   3.138  0.3949  1.3931 -2.2869
   50MOL   H19924797   4.589   2.053   2.980 -1.7364 -1.0454  1.2821
   50MOL   H20024798   4.829   2.105   3.049  0.1829  1.1343  0.8667
   50MOL   H20124799   4.886   2.119   3.294 -0.4825  0.6542  0.4748
   50MOL   C20224800   4.479   2.438   3.433  0.2511 -0.1051 -0.1739
   50MOL   C20324801   4.412   2.549   3.341 -0.7030 -0.3795  0.0583
   50MOL   C20424802   4.424   2.685   3.419  0.8353  0.8954 -0.5544
   50MOL   C20524803   4.263   2.527   3.304  0.5874  0.5773 -0.2007
   50MOL   O20624804   4.167   2.603   3.317  0.3686  0.5302  0.5521
   50MOL   O20724805   4.243   2.405   3.236 -0.1709  0.4692  0.0932
   50MOL   C20824806   4.111   2.364   3.208  0.3731  0.2251  0.0992
   50MOL   C20924807   4.076   2.360   3.067  0.2031 -0.4984 -0.0156
   50MOL   C21024808   3.994   2.258   3.016 -0.0854  0.3232  0.4027
   50MOL   C21124809   3.955   2.256   2.883 -0.1997  0.4009  0.0283
   50MOL   C21224810   4.012   2.348   2.788  0.4844 -0.1500 -0.4228
   50MOL   C21324811   4.095   2.449   2.841  0.0574  0.1156  0.3395
   50MOL   C21424812   4.124   2.455   2.977  0.3352 -0.1557  0.1567
   50MOL   H21524813   4.439   2.347   3.388 -1.4506 -0.4143  1.8329
   50MOL   H21624814   4.582   2.423   3.401  0.7349  0.0849  1.2499
   50MOL   H21724815   4.369   2.752   3.354  0.1815  2.5383  1.6285
   50MOL   H21824816   4.520   2.727   3.449  0.4740  1.6299 -0.4177
   50MOL   H21924817   4.362   2.682   3.509  3.3954 -2.7345  1.2352
   50MOL   H22024818   4.112   2.262   3.248  1.3237 -0.8363 -2.5252
   50MOL   H22124819   4.032   2.424   3.254  1.1382  2.6361 -1.6499
   50MOL   H22224820   3.947   2.181   3.076 -1.2648  0.1044 -0.7909
   50MOL   H22324821   3.896   2.175   2.843 -0.0298 -0.0779  0.7334
   50MOL   H22424822   3.995   2.342   2.682  0.3973 -0.9703 -0.3622
   50MOL   H22524823   4.116   2.528   2.769  1.0447 -0.3100  0.1537
   50MOL   H22624824   4.184   2.538   3.012 -0.0839 -0.8640  2.7086
   50MOL   C22724825   4.492   2.552   3.202  0.0485 -0.2711 -0.2250
   50MOL   C22824826   4.605   2.649   3.161  0.7957 -0.4308  0.1180
   50MOL   C22924827   4.710   2.683   3.274  0.4316  0.0024 -0.0016
   50MOL   C23024828   4.542   2.784   3.119 -0.1099  0.5068 -0.8030
   50MOL   O23124829   4.421   2.798   3.093  0.1603  0.3351  0.0908
   50MOL   O23224830   4.632   2.879   3.083  0.4297 -0.6485 -0.3830
   50MOL   C23324831   4.580   3.002   3.033 -0.1879 -0.2164 -0.0104
   50MOL   C23424832   4.694   3.097   3.004 -0.3522  0.3617  0.2588
   50MOL   C23524833   4.782   3.136   3.103 -0.1032 -0.7844  0.6005
   50MOL   C23624834   4.876   3.245   3.078  0.1229  0.5868 -0.8737
   50MOL   C23724835   4.880   3.305   2.955  0.1703  0.1337 -0.0486
   50MOL   C23824836   4.798   3.253   2.848 -0.2873  0.0892 -0.2088
   50MOL   C23924837   4.700   3.155   2.873  0.0516  0.1006  0.5291
   50MOL   H24024838   4.419   2.554   3.121 -0.0060 -0.4890 -0.1815
   50MOL   H24124839   4.529   2.450   3.191 -0.0832 -0.3040 -0.3581
   50MOL   H24224840   4.807   2.717   3.237  0.6407 -0.9043 -0.2869
   50MOL   H24324841   4.729   2.607   3.350 -1.8104 -0.8281 -0.2437
   50MOL   H24424842   4.672   2.772   3.324 -0.1604  0.1328 -0.6776
   50MOL   H24524843   4.525   3.001   2.939  1.7349  1.8719 -1.2191
   50MOL   H24624844   4.518   3.053   3.106 -2.4242 -1.0516 -1.2998
   50MOL   H24724845   4.772   3.086   3.198  0.7401  0.1612  1.2013
   50MOL   H24824846   4.945   3.287   3.148 -0.7383  3.2926 -1.5900
   50MOL   H24924847   4.952   3.383   2.933 -0.6466  1.9913  3.4188
   50MOL   H25024848   4.797   3.311   2.756  0.0001  2.0871  1.0099
   50MOL   H25124849   4.634   3.123   2.794  1.3743 -0.9302 -0.1953
   50MOL   C25224850   4.687   2.578   3.042 -0.5120 -0.7016  0.2462
   50MOL   C25324851   4.639   2.548   2.894 -0.4263 -0.7164 -0.4338
   50MOL   C25424852   4.498   2.485   2.889 -0.4591  0.1641  0.1151
   50MOL   C25524853   4.739   2.450   2.840 -0.4165 -0.4399  0.1450
   50MOL   O25624854   4.707   2.330   2.828  0.8445  0.1776 -0.9506
   50MOL   O25724855   4.849   2.498   2.801 -0.1584  0.4408  0.4255
   50MOL   C25824856   4.960   2.416   2.791 -0.6272 -0.1464 -0.7241
   50MOL   C25924857   5.065   2.469   2.694 -0.7365 -0.2036 -0.0832
   50MOL   C26024858   5.122   2.597   2.716 -0.4830 -0.0721  0.5092
   50MOL   C26124859   5.214   2.651   2.623 -0.4089  0.7788  0.2805
   50MOL   C26224860   5.247   2.580   2.502 -0.0794  0.2767 -0.4955
   50MOL   C26324861   5.177   2.462   2.473  0.4067  0.0834 -0.8487
   50MOL   C26424862   5.086   2.407   2.567  0.2717 -0.5337  0.0044
   50MOL   H26524863   4.726   2.484   3.082  1.6660 -0.6083 -1.5241
   50MOL   H26624864   4.769   2.650   3.037 -1.7415  0.9568  2.8125
   50MOL   H26724865   4.475   2.427   2.799 -3.0681  0.0256  0.8283
   50MOL   H26824866   4.427   2.568   2.887  0.2675  0.7794 -1.7272
   50MOL   H26924867   4.467   2.416   2.968  0.9110 -0.4313  0.1529
   50MOL   H27024868   5.007   2.413   2.889 -1.9593 -2.2777 -0.1207
   50MOL   H27124869   4.931   2.315   2.764  0.1288 -0.9707  1.5284
   50MOL   H27224870   5.099   2.660   2.801 -2.3453 -2.0758  1.5413
   50MOL   H27324871   5.258   2.746   2.649  1.1047 -0.1537  1.2564
   50MOL   H27424872   5.312   2.617   2.424  1.1300 -1.7639 -0.4709
   50MOL   H27524873   5.189   2.410   2.379 -1.4886  0.4621 -1.3194
   50MOL   H27624874   5.040   2.313   2.542  0.3511 -0.5151 -0.2089
   50MOL   C27724875   4.652   2.680   2.809 -0.5632  0.0881  0.3172
   50MOL   C27824876   4.609   2.700   2.659  0.3225 -0.3646  0.1418
   50MOL   C27924877   4.529   2.834   2.644 -0.1623  0.4069  0.1446
   50MOL   C28024878   4.525   2.588   2.604  0.3885 -0.8774  0.3777
   50MOL   O28124879   4.403   2.602   2.580 -0.4464  0.4161 -0.0915
   50MOL   O28224880   4.595   2.475   2.584  0.0568  0.0468  0.0261
   50MOL   C28324881   4.531   2.371   2.515  0.1701  0.9522 -0.3350
   50MOL   C28424882   4.621   2.284   2.431 -0.7649  0.3742 -1.0042
   50MOL   C28524883   4.756   2.310   2.440 -0.5620  0.0244 -0.3799
   50MOL   C28624884   4.851   2.248   2.357 -0.4189  0.0175  0.1834
   50MOL   C28724885   4.811   2.157   2.264 -0.0659 -0.3378  0.8302
   50MOL   C28824886   4.676   2.118   2.256  0.5360  0.5575 -0.3132
   50MOL   C28924887   4.586   2.184   2.342 -0.1073 -0.0602 -0.3796
   50MOL   H29024888   4.753   2.715   2.828 -0.2346 -0.7433  0.1376
   50MOL   H29124889   4.600   2.759   2.863  1.6359  1.1264  0.9489
   50MOL   H29224890   4.567   2.908   2.714  2.1551  0.0783 -0.7183
   50MOL   H29324891   4.421   2.827   2.659 -0.4942 -0.7226 -2.4778
   50MOL   H29424892   4.538   2.868   2.541  2.1410 -1.8552 -0.4509
   50MOL   H29524893   4.468   2.313   2.582  2.1591 -0.5324  0.2835
   50MOL   H29624894   4.466   2.411   2.437 -1.4804 -0.0111  0.5347
   50MOL   H29724895   4.791   2.379   2.515 -1.3417 -0.7326  0.7013
   50MOL   H29824896   4.955   2.276   2.371 -1.2092  2.6552  1.0005
   50MOL   H29924897   4.880   2.104   2.200  0.1695  0.1715  0.6573
   50MOL   H30024898   4.643   2.042   2.187 -0.5217  0.4393  0.3015
   50MOL   H30124899   4.488   2.143   2.356  0.9815 -1.9387  2.2061
   50MOL   C30224900   4.749   2.690   2.579 -0.2285  0.0572  0.4505
   50MOL   C30324901   4.766   2.738   2.425 -0.0448  0.2467 -0.2740
   50MOL   C30424902   4.911   2.691   2.384  0.2845  0.1676  0.3194
   50MOL   C30524903   4.768   2.890   2.419  0.6204 -0.2566  0.0410
   50MOL   O30624904   4.680   2.952   2.359  0.6152 -0.2795  0.4896
   50MOL   O30724905   4.866   2.954   2.488  0.3987 -0.3729 -0.5741
   50MOL   C30824906   4.867   3.091   2.513  0.5326  0.2500 -0.6605
   50MOL   C30924907   4.984   3.123   2.601  0.6539  0.2031  0.6368
   50MOL   C31024908   5.026   3.034   2.709  0.1632 -0.4508  0.6248
   50MOL   C31124909   5.149   3.062   2.779  0.3821  0.0599 -0.1320
   50MOL   C31224910   5.223   3.180   2.740 -0.1451 -0.6949  0.4242
   50MOL   C31324911   5.169   3.273   2.649 -0.5569  0.6415 -0.4308
   50MOL   C31424912   5.053   3.246   2.581  0.6779 -0.8022 -0.5221
   50MOL   H31524913   4.792   2.590   2.585  0.1474  0.2080  0.2783
   50MOL   H31624914   4.810   2.757   2.640  0.1751 -0.6356  0.8194
   50MOL   H31724915   4.957   2.742   2.299 -0.2407  0.1023 -0.0086
   50MOL   H31824916   4.904   2.582   2.377 -2.3171  0.3801 -1.2241
   50MOL   H31924917   4.987   2.714   2.459  0.3866  2.7559 -0.5167
   50MOL   H32024918   4.872   3.150   2.421 -2.1255  0.0815 -0.9436
   50MOL   H32124919   4.773   3.119   2.560  0.7836  0.1909 -0.1239
   50MOL   H32224920   4.966   2.948   2.737 -0.6681  0.1315  0.6402
   50MOL   H32324921   5.188   3.002   2.860  1.0046  1.1543  0.4051
   50MOL   H32424922   5.317   3.193   2.791 -0.3710 -0.3484  0.7510
   50MOL   H32524923   5.224   3.365   2.631  1.7406 -0.1140  2.2966
   50MOL   H32624924   5.020   3.304   2.496 -1.9249 -2.3191 -0.5883
   50MOL   C32724925   4.653   2.672   2.331  0.5196 -0.5318 -0.0026
   50MOL   C32824926   4.650   2.667   2.173  0.0385  0.6470 -0.4514
   50MOL   C32924927   4.553   2.552   2.138 -0.7157 -0.4285 -0.3855
   50MOL   C33024928   4.793   2.635   2.111 -0.5539 -0.1335  0.4042
   50MOL   O33124929   4.849   2.716   2.040  0.6288 -0.0663 -0.1580
   50MOL   O33224930   4.846   2.513   2.149  0.0521  0.2589 -0.0273
   50MOL   C33324931   4.959   2.459   2.088  0.2907  0.1450 -0.0122
   50MOL   C33424932   4.932   2.331   2.010  0.2140  0.2192  0.0313
   50MOL   C33524933   5.023   2.223   1.998 -0.2832 -0.2807 -0.5543
   50MOL   C33624934   4.990   2.102   1.939 -0.5774 -0.3492  0.3269
   50MOL   C33724935   4.864   2.080   1.880  0.2364 -0.0063 -0.4228
   50MOL   C33824936   4.778   2.192   1.881 -0.3650  1.1581  0.6351
   50MOL   C33924937   4.811   2.311   1.946  0.3381  0.0631 -0.3952
   50MOL   H34024938   4.556   2.711   2.361 -0.4672 -4.0434  1.6481
   50MOL   H34124939   4.657   2.567   2.358 -0.6056 -0.3324  0.9488
   50MOL   H34224940   4.457   2.557   2.189  0.5346  2.5871  1.8717
   50MOL   H34324941   4.611   2.461   2.157 -0.1427 -0.7512 -3.4260
   50MOL   H34424942   4.524   2.560   2.034  2.0875 -1.3113 -1.2947
   50MOL   H34524943   5.010   2.523   2.016  1.5388 -0.1682  0.5713
   50MOL   H34624944   5.041   2.440   2.157 -1.0012 -2.3774  0.8879
   50MOL   H34724945   5.117   2.234   2.050  1.2291  0.1485 -3.2668
   50MOL   H34824946   5.060   2.020   1.942  1.3622  1.3404  2.1918
   50MOL   H34924947   4.830   1.984   1.843  0.3010 -1.2633  2.6330
   50MOL   H35024948   4.685   2.187   1.827  0.0589  0.6206 -0.0557
   50MOL   H35124949   4.738   2.391   1.940  0.2593 -0.0230 -0.5544
   50MOL   C35224950   4.597   2.802   2.119  0.0677  0.1858  0.1003
   50MOL   C35324951   4.528   2.818   1.978  0.4234 -0.3416  0.4508
   50MOL   C35424952   4.591   2.734   1.860 -0.0711 -0.4314 -0.2376
   50MOL   C35524953   4.528   2.970   1.923 -0.9222  0.7381 -0.8221
   50MOL   O35624954   4.590   3.058   1.981  0.6943 -0.0763 -0.4254
   50MOL   O35724955   4.475   2.989   1.803  0.5317 -0.4889  0.9393
   50MOL   C35824956   4.494   3.112   1.732 -0.5943 -0.9383  0.0511
   50MOL   C35924957   4.449   3.097   1.586  0.2573 -0.1714 -0.2272
   50MOL   C36024958   4.360   3.185   1.520  0.1292 -0.3374  0.0585
   50MOL   C36124959   4.328   3.163   1.382  0.1679 -0.0537 -0.5597
   50MOL   C36224960   4.373   3.045   1.315 -0.1934 -0.4605  0.7327
   50MOL   C36324961   4.463   2.962   1.381  0.3924 -0.4023  0.2485
   50MOL   C36424962   4.498   2.985   1.515  0.2350  0.0568  0.4209
   50MOL   H36524963   4.677   2.876   2.130 -0.4317  0.5746  1.0958
   50MOL   H36624964   4.528   2.842   2.193 -0.7680  1.5155 -1.3725
   50MOL   H36724965   4.537   2.737   1.765 -0.8822  0.5225  0.2406
   50MOL   H36824966   4.606   2.627   1.879  2.1679  0.0610  1.0172
   50MOL   H36924967   4.683   2.781   1.827  1.6300 -2.1614  1.8640
   50MOL   H37024968   4.433   3.189   1.780  0.5220 -0.1929  0.2794
   50MOL   H37124969   4.593   3.158   1.735 -0.0978 -1.8497 -1.8270
   50MOL   H37224970   4.338   3.283   1.561 -0.5574 -0.5333  0.1598
   50MOL   H37324971   4.271   3.241   1.333 -1.8088 -0.3547  1.1532
   50MOL   H37424972   4.358   3.035   1.209 -0.0966  0.7947  0.5884
   50MOL   H37524973   4.503   2.873   1.335 -0.1732  0.0043 -1.0649
   50MOL   H37624974   4.570   2.919   1.560  1.2732 -1.1587 -2.9367
   50MOL   C37724975   4.372   2.785   1.984 -0.0322  0.2606  0.4331
   50MOL   C37824976   4.268   2.849   2.079 -0.8655 -0.2125 -0.9363
   50MOL   C37924977   4.313   2.996   2.125  0.2251 -0.6935 -0.3354
   50MOL   C38024978   4.270   2.771   2.212  0.1138 -0.1405  0.0574
   50MOL   O38124979   4.296   2.827   2.321 -0.2810  0.4672  0.1861
   50MOL   O38224980   4.229   2.639   2.205  0.5577 -0.3022  0.1225
   50MOL   C38324981   4.212   2.570   2.333  0.3272 -0.2421 -0.5008
   50MOL   C38424982   4.183   2.424   2.334  0.2427 -0.0755  0.8983
   50MOL   C38524983   4.203   2.354   2.452 -0.2728  0.2142  0.7102
   50MOL   C38624984   4.151   2.224   2.460  0.4352  0.3391 -0.1088
   50MOL   C38724985   4.091   2.159   2.350  0.1514 -0.3682 -0.5567
   50MOL   C38824986   4.089   2.222   2.226 -0.3282 -0.3636 -0.2915
   50MOL   C38924987   4.135   2.358   2.215 -0.0979 -0.7966  0.1638
   50MOL   H39024988   4.356   2.678   1.995 -3.6012  0.2820 -3.1597
   50MOL   H39124989   4.336   2.781   1.881 -1.7883  1.6133  0.9788
   50MOL   H39224990   4.252   3.031   2.208  0.0214 -0.4486 -0.5873
   50MOL   H39324991   4.286   3.068   2.048 -3.1503 -0.9596  0.5128
   50MOL   H39424992   4.416   3.004   2.159  0.3146 -0.6572 -0.6094
   50MOL   H39524993   4.300   2.589   2.394 -0.4163 -0.0488  0.5115
   50MOL   H39624994   4.136   2.624   2.389  1.5416  0.1304  0.7993
   50MOL   H39724995   4.237   2.395   2.546 -0.6996 -1.4977  1.6365
   50MOL   H39824996   4.141   2.169   2.553 -1.3596 -0.1983 -0.5898
   50MOL   H39924997   4.058   2.058   2.365 -0.1910 -0.1205  0.4226
   50MOL   H40024998   4.042   2.166   2.146 -1.3688 -0.8422  0.6350
   50MOL   H40124999   4.135   2.404   2.117  2.4394  0.9733  0.9235
   50MOL   C40225000   4.120   2.837   2.028 -0.3733 -0.4499  0.5723
   50MOL   C40325001   4.049   2.958   1.943 -0.3351 -0.0327  0.8268
   50MOL   C40425002   4.135   3.000   1.818 -0.1208 -0.5784 -0.4641
   50MOL   C40525003   4.028   3.087   2.026 -0.1571 -0.2190 -0.0275
   50MOL   O40625004   4.054   3.203   1.980 -0.0129  0.1788 -0.0808
   50MOL   O40725005   4.001   3.070   2.154 -0.4146  0.2503  0.1147
   50MOL   C40825006   3.980   3.182   2.244 -0.4700 -0.0770  0.5818
   50MOL   C40925007   3.944   3.142   2.382  0.4763 -0.2184  0.0439
   50MOL   C41025008   3.835   3.200   2.449 -0.8433  0.3358 -0.2894
   50MOL   C41125009   3.806   3.166   2.585  0.3515 -0.7983  0.2008
   50MOL   C41225010   3.889   3.068   2.654 -0.5313  0.0412 -0.4576
   50MOL   C41325011   3.995   3.004   2.586 -0.3758 -0.2957  0.2997
   50MOL   C41425012   4.023   3.039   2.451 -0.2277 -0.0762  0.8459
   50MOL   H41525013   4.052   2.820   2.112 -0.8065  1.2302  0.5666
   50MOL   H41625014   4.108   2.743   1.975  2.0043 -0.2585 -0.3597
   50MOL   H41725015   4.149   2.911   1.756  0.1013 -0.4382 -0.6173
   50MOL   H41825016   4.218   3.067   1.838  0.1100 -0.6282 -1.2356
   50MOL   H41925017   4.073   3.060   1.752 -0.5868 -2.2232 -1.5628
   50MOL   H42025018   4.074   3.236   2.237  0.3460 -1.6473 -0.8154
   50MOL   H42125019   3.907   3.253   2.204 -0.9601 -0.2679  1.1196
   50MOL   H42225020   3.769   3.270   2.399 -0.0861 -0.7230 -2.8849
   50MOL   H42325021   3.724   3.213   2.636  0.9928  1.6779 -0.9994
   50MOL   H42425022   3.864   3.048   2.757  0.4626  3.0745  0.4025
   50MOL   H42525023   4.048   2.930   2.644  1.6053  2.0944  1.5923
   50MOL   H42625024   4.100   2.989   2.395 -0.2344  1.3211 -0.4579
   50MOL   C42725025   3.914   2.899   1.888  0.3505  0.6726 -0.2809
   50MOL   C42825026   3.779   2.975   1.864 -0.4401 -0.6524 -0.5192
   50MOL   C42925027   3.809   3.105   1.783  0.3480 -0.0698 -0.0412
   50MOL   C43025028   3.714   3.014   1.999 -0.1325  0.2253  0.3088
   50MOL   O43125029   3.695   3.133   2.024 -0.0164 -0.8120 -0.1079
   50MOL   O43225030   3.695   2.915   2.087 -0.0977 -0.5260  0.0990
   50MOL   C43325031   3.634   2.937   2.217  0.5429 -0.5458  0.1355
   50MOL   C43425032   3.678   2.827   2.312  0.1467  0.1093 -0.4014
   50MOL   C43525033   3.585   2.753   2.386 -0.1339 -0.1823  0.1508
   50MOL   C43625034   3.625   2.645   2.471 -0.6794 -0.0003  0.4978
   50MOL   C43725035   3.764   2.612   2.483 -0.4238 -0.2443 -0.2592
   50MOL   C43825036   3.861   2.696   2.418  0.6642  0.3340  0.7390
   50MOL   C43925037   3.815   2.797   2.331  0.2479 -0.0949  0.1416
   50MOL   H44025038   3.885   2.819   1.956 -0.7298  1.7398  0.5378
   50MOL   H44125039   3.934   2.861   1.788 -0.5112  2.2622 -1.0721
   50MOL   H44225040   3.873   3.089   1.696  1.9593  1.5646  0.7932
   50MOL   H44325041   3.853   3.187   1.841 -1.4600  1.6893 -1.1000
   50MOL   H44425042   3.722   3.152   1.737  0.5742  0.9813  0.5727
   50MOL   H44525043   3.658   3.035   2.259  0.4923  0.0564 -1.2186
   50MOL   H44625044   3.527   2.952   2.202  1.2586  2.2240 -2.6789
   50MOL   H44725045   3.480   2.755   2.362  0.1006 -0.4091 -0.9127
   50MOL   H44825046   3.547   2.584   2.515 -1.8142  2.2955  1.7909
   50MOL   H44925047   3.793   2.524   2.539 -0.5478  0.3176  0.6897
   50MOL   H45025048   3.966   2.691   2.441  0.7058  1.8594  0.9409
   50MOL   H45125049   3.880   2.862   2.276 -0.8147  0.3093 -0.6433
   50MOL   C45225050   3.684   2.876   1.785 -0.3857  0.2468  0.1981
   50MOL   C45325051   3.529   2.883   1.772  0.2959 -0.1409 -0.2307
   50MOL   C45425052   3.489   3.027   1.745  0.3095 -0.2650  0.2803
   50MOL   C45525053   3.462   2.830   1.897  0.2153  0.5884  0.2105
   50MOL   O45625054   3.512   2.730   1.955  0.9091 -0.2638  0.2921
   50MOL   O45725055   3.344   2.886   1.920 -0.0493 -0.1594 -0.6140
   50MOL   C45825056   3.284   2.861   2.039 -0.1066 -0.2945 -0.1875
   50MOL   C45925057   3.200   2.737   2.042 -0.1296 -0.2423  0.1368
   50MOL   C46025058   3.087   2.719   1.958 -0.2678  0.1808 -0.3423
   50MOL   C46125059   3.008   2.607   1.971  0.1655  0.7822  0.1256
   50MOL   C46225060   3.040   2.501   2.063  0.8905 -0.1183 -0.2330
   50MOL   C46325061   3.153   2.510   2.142 -0.4121  0.3728 -0.4260
   50MOL   C46425062   3.231   2.626   2.129  0.2916  0.0665 -1.1724
   50MOL   H46525063   3.722   2.776   1.809 -0.6825 -0.0368 -0.4774
   50MOL   H46625064   3.728   2.884   1.685  0.2122  0.6438  0.4924
   50MOL   H46725065   3.382   3.044   1.738  0.2216 -1.2639 -0.9150
   50MOL   H46825066   3.531   3.054   1.648 -1.1493  1.2976  0.0564
   50MOL   H46925067   3.525   3.082   1.832 -0.1602  1.5384 -0.6447
   50MOL   H47025068   3.362   2.852   2.115  1.2713  1.7661 -1.3144
   50MOL   H47125069   3.236   2.954   2.069 -0.7305 -0.5739 -0.3004
   50MOL   H47225070   3.050   2.792   1.888  2.3786  2.6172  0.7068
   50MOL   H47325071   2.918   2.613   1.911 -0.0839  0.9682  0.5176
   50MOL   H47425072   2.965   2.427   2.083  2.4299 -1.6819 -0.2070
   50MOL   H47525073   3.180   2.430   2.209 -0.4349  0.6435 -0.0872
   50MOL   H47625074   3.316   2.644   2.193 -0.8879  0.5754  0.2858
   50MOL   C47725075   3.487   2.801   1.641 -0.3941  0.2329  0.4038
   50MOL   C47825076   3.344   2.734   1.620 -0.0184 -1.2272  0.5435
   50MOL   C47925077   3.364   2.620   1.526 -0.1682 -0.2461 -0.0344
   50MOL   C48025078   3.233   2.830   1.582 -0.2310 -0.1214 -0.1507
   50MOL   O48125079   3.256   2.939   1.534  0.5353 -0.1083  0.1264
   50MOL   O48225080   3.109   2.776   1.604  0.2394  0.0669 -0.2108
   50MOL   C48325081   2.994   2.853   1.569  0.0550 -0.1340 -0.4981
   50MOL   C48425082   2.869   2.771   1.571  0.8249 -0.6460 -0.1693
   50MOL   C48525083   2.833   2.722   1.440  0.2887  0.6682 -0.5012
   50MOL   C48625084   2.721   2.637   1.436  0.2285 -0.5379  0.1382
   50MOL   C48725085   2.651   2.603   1.548  0.1526 -0.4166 -0.2178
   50MOL   C48825086   2.687   2.644   1.672 -0.6820  0.6413  0.6467
   50MOL   C48925087   2.797   2.732   1.686 -0.1601  0.9883  0.3775
   50MOL   H49025088   3.553   2.715   1.633 -2.2495 -1.4971  3.0216
   50MOL   H49125089   3.512   2.859   1.552 -0.2454 -0.7784 -0.2249
   50MOL   H49225090   3.410   2.641   1.430  0.1264  1.1494  0.3943
   50MOL   H49325091   3.265   2.579   1.505 -0.0809 -0.1965 -0.5308
   50MOL   H49425092   3.417   2.540   1.577 -0.1180 -0.0832  0.1730
   50MOL   H49525093   2.992   2.929   1.647 -1.2094 -0.2496 -0.3996
   50MOL   H49625094   3.013   2.920   1.486 -2.0086  1.6252  0.3909
   50MOL   H49725095   2.895   2.748   1.356  2.8140 -1.2992  0.6911
   50MOL   H49825096   2.698   2.597   1.339  1.3054 -0.0957 -0.3093
   50MOL   H49925097   2.577   2.526   1.534 -0.0114 -0.7352  2.2129
   50MOL   H50025098   2.629   2.606   1.755 -0.7552 -1.3925 -0.2960
   50MOL   H50125099   2.821   2.760   1.787 -1.6939 -1.8577  1.5953
   50MOL   H50225100   3.302   2.694   1.712 -0.4920 -3.0353 -0.4388
   51MOL     C125101   6.838   3.368   7.645  0.1003 -0.3619 -0.1296
   51MOL     C225102   6.897   3.366   7.787  0.0775 -0.2379  0.2829
   51MOL     C325103   6.907   3.218   7.832 -0.2254  0.1718 -0.3006
   51MOL     C425104   6.792   3.448   7.875  0.0463 -0.8616  0.3744
   51MOL     O525105   6.744   3.553   7.836 -0.3299 -0.1600  0.5880
   51MOL     O625106   6.774   3.404   7.998 -0.2814 -0.0669  0.0825
   51MOL     C725107   6.718   3.474   0.094 -0.3266 -0.3804 -0.0367
   51MOL     C825108   6.575   3.442   0.115 -0.1681  0.3671  0.5561
   51MOL     C925109   6.534   3.403   0.244 -0.5930 -0.5634 -0.2742
   51MOL    C1025110   6.398   3.373   0.272  0.6227  0.7834  0.4394
   51MOL    C1125111   6.305   3.397   0.165  0.6937  0.5206 -0.6518
   51MOL    C1225112   6.348   3.439   0.038  0.0920  0.2645 -0.1012
   51MOL    C1325113   6.484   3.459   0.011  0.9735  0.5173 -0.1869
   51MOL    H1425114   6.909   3.320   7.577  1.9743 -0.8429  2.1019
   51MOL    H1525115   6.740   3.325   7.628  0.7173 -0.9182 -2.5170
   51MOL    H1625116   6.816   3.163   7.807  0.9620 -1.9366 -0.0694
   51MOL    H1725117   6.905   3.207   7.940  1.2591 -1.6610 -0.4434
   51MOL    H1825118   6.999   3.173   7.795 -1.0152 -2.1590  0.5342
   51MOL    H1925119   6.774   3.466   0.187  0.9198  2.4454 -0.4960
   51MOL    H2025120   6.731   3.581   0.077  0.1925 -0.6961 -1.7170
   51MOL    H2125121   6.602   3.382   0.324  0.5436 -1.0081 -1.3511
   51MOL    H2225122   6.367   3.326   0.364 -0.3632 -1.2690 -0.9130
   51MOL    H2325123   6.201   3.384   0.193  0.5165  0.8804 -1.1282
   51MOL    H2425124   6.279   3.447   7.962  0.8182 -3.9319 -1.2445
   51MOL    H2525125   6.514   3.482   7.917  0.6527 -0.5224 -0.5234
   51MOL    H2625126   6.827   3.466   7.598 -1.5708 -0.0783  0.8399
   51MOL    C2725127   7.036   3.438   7.781  0.8394  0.6926  0.8063
   51MOL    C2825128   7.122   3.496   7.908  0.6216  0.0046 -0.7988
   51MOL    C2925129   7.156   3.378   7.996 -0.8467 -0.1001  0.0075
   51MOL    C3025130   7.044   3.608   7.988 -0.2144  0.0972  0.1282
   51MOL    O3125131   7.014   3.586   0.101  0.7583 -0.2592  0.3431
   51MOL    O3225132   7.028   3.717   7.913  0.2239 -0.5642 -0.2164
   51MOL    C3325133   6.959   3.828   7.955  0.5498 -0.1803 -0.0445
   51MOL    C3425134   6.924   3.921   7.834  0.8222  0.1940  0.2457
   51MOL    C3525135   6.951   4.059   7.838  0.2840 -0.2146 -0.7886
   51MOL    C3625136   6.920   4.136   7.725 -0.6051 -0.1886  0.2730
   51MOL    C3725137   6.864   4.073   7.611  0.0268 -0.4360  0.2250
   51MOL    C3825138   6.828   3.937   7.607 -0.2305  0.6627 -0.1887
   51MOL    C3925139   6.855   3.861   7.721  0.5520  0.7062  0.1914
   51MOL    H4025140   7.028   3.520   7.710 -0.2038  0.3133  0.4768
   51MOL    H4125141   7.103   3.370   7.729 -1.2909 -3.6911  3.4951
   51MOL    H4225142   7.209   3.302   7.938  0.5838  0.8813  0.0001
   51MOL    H4325143   7.070   3.328   0.032 -0.6129 -0.5493 -0.0381
   51MOL    H4425144   7.214   3.405   0.077  1.9480  1.5091 -2.2538
   51MOL    H4525145   6.874   3.802   0.011  1.8250 -3.3372  0.4679
   51MOL    H4625146   7.022   3.876   0.023 -0.4052  0.0487  0.6184
   51MOL    H4725147   6.995   4.097   7.929  0.0378  0.4318 -0.9370
   51MOL    H4825148   6.947   4.239   7.710  0.1553 -0.0714  2.3355
   51MOL    H4925149   6.835   4.141   7.532 -0.5862 -1.0048 -0.0402
   51MOL    H5025150   6.795   3.886   7.518  1.6025  0.1841 -0.6179
   51MOL    H5125151   6.832   3.756   7.723 -0.5775  0.9274 -0.8223
   51MOL    C5225152   7.258   3.555   7.851 -0.1874  0.1170 -0.6600
   51MOL    C5325153   7.387   3.603   7.925 -0.1984  0.0849  0.0849
   51MOL    C5425154   7.473   3.682   7.823 -0.3176 -0.0683  0.5323
   51MOL    C5525155   7.467   3.480   7.976 -0.6643 -0.3773  0.2844
   51MOL    O5625156   7.452   3.432   0.078  0.6137 -0.3018  0.5557
   51MOL    O5725157   7.538   3.424   7.878 -0.0370 -0.1401  0.3488
   51MOL    C5825158   7.601   3.297   7.899 -0.2448 -0.2308 -0.6293
   51MOL    C5925159   7.669   3.253   7.770  0.1093  0.3829  0.0575
   51MOL    C6025160   7.647   3.127   7.717  0.2320  0.4418  0.2987
   51MOL    C6125161   7.720   3.078   7.610 -0.4505 -0.0399 -0.2985
   51MOL    C6225162   7.803   3.162   7.538 -0.4465 -0.1236 -0.0661
   51MOL    C6325163   7.823   3.293   7.595 -0.1983 -0.3156  0.3221
   51MOL    C6425164   7.758   3.340   7.707 -0.4107  0.1163  0.1900
   51MOL    H6525165   7.231   3.641   7.790  1.1438  1.2855  0.3423
   51MOL    H6625166   7.299   3.483   7.780  0.7776  1.4271 -1.4679
   51MOL    H6725167   7.497   3.627   7.732 -1.3247  2.1580 -1.1072
   51MOL    H6825168   7.570   3.714   7.862  0.1551  2.0073 -2.2212
   51MOL    H6925169   7.419   3.767   7.783  0.4375 -0.1327 -0.6293
   51MOL    H7025170   7.678   3.309   7.976  1.0371 -0.1325 -1.8977
   51MOL    H7125171   7.522   3.229   7.932  0.2958  1.3179  4.3286
   51MOL    H7225172   7.588   3.052   7.768  2.3105 -0.9405  0.7600
   51MOL    H7325173   7.695   2.981   7.570  2.8375 -1.4595  0.9341
   51MOL    H7425174   7.848   3.130   7.446  0.0977 -0.0073  0.1561
   51MOL    H7525175   7.901   3.356   7.555  0.7162 -0.1706  2.2683
   51MOL    H7625176   7.788   3.430   7.759  1.0616 -0.6793  0.7451
   51MOL    C7725177   7.346   3.694   0.044 -0.0692 -0.0354 -0.3892
   51MOL    C7825178   7.449   3.790   0.120 -0.0174  0.1293 -1.1345
   51MOL    C7925179   7.582   3.712   0.143  0.2407 -0.0554 -0.5989
   51MOL    C8025180   7.385   3.806   0.266 -0.3641  0.1664 -0.0286
   51MOL    O8125181   7.422   3.741   0.367 -0.0944 -0.5754 -0.0445
   51MOL    O8225182   7.287   3.903   0.272  0.7190  0.4392  0.5121
   51MOL    C8325183   7.218   3.918   0.391  0.1506 -0.5350 -0.1509
   51MOL    C8425184   7.126   4.036   0.388 -0.8264  0.5978  0.6782
   51MOL    C8525185   7.067   4.080   0.504 -0.0147  0.6669  0.4664
   51MOL    C8625186   6.986   4.193   0.501 -0.0032  0.2433  0.2488
   51MOL    C8725187   6.963   4.266   0.383 -0.3161 -0.9789  0.6649
   51MOL    C8825188   7.029   4.225   0.269 -0.3214 -0.2695  0.0831
   51MOL    C8925189   7.107   4.108   0.269 -0.1476  0.6229 -0.0581
   51MOL    H9025190   7.286   3.635   0.114 -0.3788  1.4845  0.6615
   51MOL    H9125191   7.277   3.770   0.006 -1.1762 -0.9296 -0.1650
   51MOL    H9225192   7.654   3.757   0.211 -0.6413  2.6701 -1.4315
   51MOL    H9325193   7.636   3.696   0.050  0.6799  1.1060 -0.5520
   51MOL    H9425194   7.558   3.611   0.176 -0.0738 -0.4489 -2.0013
   51MOL    H9525195   7.152   3.835   0.417 -0.7548 -0.0968 -1.0260
   51MOL    H9625196   7.285   3.921   0.477  0.3622 -0.0773 -0.3301
   51MOL    H9725197   7.071   4.028   0.599 -0.7595  1.1093  0.7456
   51MOL    H9825198   6.933   4.226   0.589  0.9659  1.5225  0.3526
   51MOL    H9925199   6.887   4.343   0.389  0.9934  0.3042  1.0750
   51MOL   H10025200   7.020   4.279   0.175 -0.7623 -0.6598 -0.0991
   51MOL   H10125201   7.158   4.076   0.179  1.5751 -1.2783  1.5367
   51MOL   C10225202   7.469   3.930   0.045 -1.0431 -0.1552  0.1896
   51MOL   C10325203   7.593   4.032   0.072 -0.1189 -0.5409  0.3692
   51MOL   C10425204   7.725   3.974   0.016 -0.0759 -0.2893 -0.3936
   51MOL   C10525205   7.621   4.088   0.209 -0.3800 -0.1169 -0.0741
   51MOL   O10625206   7.549   4.050   0.305 -0.5425  0.0862 -0.3717
   51MOL   O10725207   7.722   4.177   0.221  0.3608 -0.5944 -0.1260
   51MOL   C10825208   7.762   4.214   0.352 -0.8121  0.2859 -1.1076
   51MOL   C10925209   7.796   4.356   0.369  0.1526  0.4329 -0.8187
   51MOL   C11025210   7.689   4.454   0.365 -0.3869  0.2215 -0.4217
   51MOL   C11125211   7.718   4.581   0.403  0.0787 -0.3117  0.7891
   51MOL   C11225212   7.850   4.617   0.437  0.6780 -0.2489  0.6729
   51MOL   C11325213   7.957   4.525   0.430  0.3490 -0.8706  0.3544
   51MOL   C11425214   7.929   4.392   0.406 -0.2031  0.2039  0.2960
   51MOL   H11525215   7.375   3.986   0.051 -1.2074 -0.2481 -1.3997
   51MOL   H11625216   7.472   3.914   7.945 -1.4005  4.0620 -0.5410
   51MOL   H11725217   7.803   4.049   0.009  1.1068 -1.4546 -0.0082
   51MOL   H11825218   7.717   3.924   7.926  2.7887 -1.0800 -0.2762
   51MOL   H11925219   7.759   3.893   0.081 -2.4075 -0.4365  0.7075
   51MOL   H12025220   7.694   4.191   0.434  0.2797  2.1692  0.3707
   51MOL   H12125221   7.851   4.159   0.382 -0.4049  0.8004 -1.3670
   51MOL   H12225222   7.586   4.430   0.344 -1.4595  4.3916 -0.2686
   51MOL   H12325223   7.639   4.654   0.415 -1.2179 -1.5604  0.0457
   51MOL   H12425224   7.861   4.718   0.473 -0.8512  0.4062 -0.6343
   51MOL   H12525225   0.051   4.549   0.459  0.4529 -1.0203  0.1127
   51MOL   H12625226   0.001   4.321   0.427  0.7540  1.3214  0.5103
   51MOL   C12725227   7.567   4.152   7.996  0.6171 -0.3824  0.3743
   51MOL   C12825228   7.445   4.254   0.005  0.1311 -0.7061  0.7425
   51MOL   C12925229   7.384   4.271   0.148  0.7769  0.7011  0.3666
   51MOL   C13025230   7.331   4.206   7.919 -0.2634 -0.7038  0.3172
   51MOL   O13125231   7.226   4.163   7.968 -0.2696  0.0846  0.1420
   51MOL   O13225232   7.368   4.207   7.789 -0.0449  0.1613  0.2962
   51MOL   C13325233   7.285   4.160   7.689  0.0432 -0.0369  0.0281
   51MOL   C13425234   7.341   4.034   7.620 -0.3456  0.2822  0.4368
   51MOL   C13525235   7.475   4.018   7.584 -0.2373 -0.4747  0.5978
   51MOL   C13625236   7.522   3.897   7.530  0.7177  0.0588  0.7102
   51MOL   C13725237   7.433   3.791   7.513 -1.1842  0.1675  0.7584
   51MOL   C13825238   7.294   3.807   7.545 -0.6732  0.6893  0.2237
   51MOL   C13925239   7.254   3.924   7.601  0.2012 -0.0073  0.1251
   51MOL   H14025240   7.571   4.127   7.890 -0.5678  2.6668 -0.4433
   51MOL   H14125241   7.663   4.204   7.995  1.2293 -1.4650 -2.3581
   51MOL   H14225242   7.366   4.171   0.189  1.2884  0.8961  1.0810
   51MOL   H14325243   7.289   4.324   0.154 -0.2616 -0.9214 -1.1568
   51MOL   H14425244   7.447   4.324   0.219  0.2094  0.4221  1.0930
   51MOL   H14525245   7.190   4.130   7.733 -0.0736 -0.1218 -0.2848
   51MOL   H14625246   7.261   4.225   7.605 -0.8407 -1.0187 -0.4855
   51MOL   H14725247   7.540   4.103   7.599 -1.7610  0.6606  0.8361
   51MOL   H14825248   7.626   3.881   7.503 -0.3343 -0.8860 -3.0804
   51MOL   H14925249   7.467   3.701   7.463 -0.9614  1.4448 -1.4466
   51MOL   H15025250   7.220   3.732   7.524 -0.7619  0.3824  1.5463
   51MOL   H15125251   7.151   3.940   7.630  0.5780  0.2605  1.3075
   51MOL   C15225252   7.506   4.388   7.958 -0.0286 -0.0841  0.1836
   51MOL   C15325253   7.437   4.532   7.961 -0.4981  0.0359 -0.1254
   51MOL   C15425254   7.525   4.618   0.045 -0.5092 -0.1941 -0.5809
   51MOL   C15525255   7.294   4.531   0.002  0.5436 -0.3248  0.1132
   51MOL   O15625256   7.257   4.572   0.112  0.3482 -0.1468 -0.5185
   51MOL   O15725257   7.210   4.478   7.913  0.0633  0.2680 -0.2409
   51MOL   C15825258   7.072   4.453   7.945 -0.7100 -0.3647 -0.7182
   51MOL   C15925259   6.975   4.477   7.832  0.0619 -0.0298 -0.6449
   51MOL   C16025260   7.017   4.529   7.712 -0.8060  0.0757 -0.4055
   51MOL   C16125261   6.924   4.557   7.610  0.2124  0.1859 -0.6636
   51MOL   C16225262   6.790   4.513   7.628  0.3785 -0.1561 -0.2512
   51MOL   C16325263   6.748   4.447   7.747 -0.3920  0.0423 -0.1548
   51MOL   C16425264   6.841   4.435   7.849  1.3246 -0.4171  0.5439
   51MOL   H16525265   7.556   4.374   7.862 -1.0936  0.3782 -0.4411
   51MOL   H16625266   7.593   4.395   0.016 -0.5952  0.6201  0.8723
   51MOL   H16725267   7.624   4.654   0.018 -0.6178  2.2110  1.8832
   51MOL   H16825268   7.534   4.574   0.145 -0.6692  2.3621  0.5923
   51MOL   H16925269   7.475   4.712   0.069 -1.8696 -0.8772 -0.7204
   51MOL   H17025270   7.058   4.352   7.983 -0.1777 -0.3206 -0.4017
   51MOL   H17125271   7.030   4.516   0.016 -1.3412 -0.8823 -0.6365
   51MOL   H17225272   7.116   4.568   7.698 -0.7485  0.3340  0.6763
   51MOL   H17325273   6.955   4.602   7.517 -0.9255  1.6400 -0.3511
   51MOL   H17425274   6.718   4.517   7.548  1.1409  1.8902 -0.8600
   51MOL   H17525275   6.650   4.404   7.761 -0.9529  0.7456 -1.8339
   51MOL   H17625276   6.823   4.385   7.943 -0.8748  1.4049  1.1327
   51MOL   C17725277   7.445   4.587   7.814  0.1150  0.1252  0.2127
   51MOL   C17825278   7.413   4.738   7.777 -1.0305  0.3891 -0.3005
   51MOL   C17925279   7.298   4.801   7.853  0.0181 -0.2722  0.6503
   51MOL   C18025280   7.360   4.733   7.627 -0.7080 -0.3576 -0.0955
   51MOL   O18125281   7.263   4.801   7.592 -0.1023  0.2678 -0.2143
   51MOL   O18225282   7.428   4.654   7.540 -0.1920 -0.2650  0.3780
   51MOL   C18325283   7.399   4.649   7.402  0.1270 -0.5589  0.0453
   51MOL   C18425284   7.292   4.545   7.372 -0.4144  0.4997  0.2222
   51MOL   C18525285   7.159   4.569   7.332  0.8607 -0.3991  0.1189
   51MOL   C18625286   7.070   4.464   7.312 -0.0070  0.8124 -0.8558
   51MOL   C18725287   7.105   4.328   7.327 -0.9479 -0.1110 -0.0394
   51MOL   C18825288   7.240   4.298   7.363 -0.5360  0.2790  0.1430
   51MOL   C18925289   7.332   4.405   7.380 -0.2208 -0.4898  0.6988
   51MOL   H19025290   7.376   4.526   7.755 -3.1317  0.6108  3.2851
   51MOL   H19125291   7.544   4.572   7.772 -0.6357 -0.9694 -1.2097
   51MOL   H19225292   7.314   4.810   7.960  0.5072  1.0873  0.4758
   51MOL   H19325293   7.209   4.740   7.840  0.5209 -0.6282 -1.2091
   51MOL   H19425294   7.273   4.898   7.809 -0.4490 -1.2670 -1.3195
   51MOL   H19525295   7.369   4.745   7.361  0.7519 -0.5622 -0.4305
   51MOL   H19625296   7.490   4.640   7.342 -2.4143 -0.1010 -4.0754
   51MOL   H19725297   7.125   4.672   7.325  0.3199 -0.5344  0.7226
   51MOL   H19825298   6.969   4.494   7.291 -0.6183 -0.8885 -0.4374
   51MOL   H19925299   7.040   4.247   7.298  0.3668 -1.1064 -0.2732
   51MOL   H20025300   7.276   4.196   7.372  0.4648  0.5496 -0.7122
   51MOL   H20125301   7.427   4.385   7.425 -0.3724 -2.8765  0.0256
   51MOL   C20225302   7.543   4.822   7.799  0.1176  0.4197  0.6845
   51MOL   C20325303   7.571   4.956   7.722  0.0529  0.4686  0.3732
   51MOL   C20425304   7.449   5.055   7.708 -0.3868  0.1998  0.7438
   51MOL   C20525305   7.623   4.919   7.579 -0.0089  0.4009 -0.2029
   51MOL   O20625306   7.671   4.810   7.553  0.0231 -0.1280 -0.8799
   51MOL   O20725307   7.632   5.022   7.493 -0.7266 -0.6847 -0.5751
   51MOL   C20825308   7.679   4.999   7.363 -0.3182  0.3399 -0.5926
   51MOL   C20925309   7.819   5.062   7.345  0.1916  0.1633  0.1278
   51MOL   C21025310   7.845   5.186   7.285 -0.0469 -0.0927 -0.6760
   51MOL   C21125311   7.978   5.227   7.263  0.3126  0.8727 -0.5980
   51MOL   C21225312   0.076   5.140   7.293  0.2462  0.0912  0.2795
   51MOL   C21325313   0.057   5.018   7.357 -0.4047  0.1906  0.2719
   51MOL   C21425314   7.931   4.985   7.380 -0.0956 -0.3036  0.4795
   51MOL   H21525315   7.635   4.764   7.797 -0.9463 -1.2627 -1.0589
   51MOL   H21625316   7.536   4.858   7.902  1.0751  0.3103  0.7904
   51MOL   H21725317   7.403   5.079   7.804  0.7227  0.5370  1.1938
   51MOL   H21825318   7.368   5.026   7.640 -0.0051 -1.6847  1.0702
   51MOL   H21925319   7.470   5.152   7.663 -1.2734  0.2930  0.5128
   51MOL   H22025320   7.680   4.895   7.332 -0.5499  0.3755 -0.7170
   51MOL   H22125321   7.611   5.049   7.295  0.4211  1.3378 -0.6102
   51MOL   H22225322   7.759   5.240   7.248 -0.1185  0.6979  0.6453
   51MOL   H22325323   8.006   5.319   7.214  0.1086 -0.2560 -2.9331
   51MOL   H22425324   0.176   5.175   7.276  0.7548 -0.6604  1.6305
   51MOL   H22525325   0.136   4.951   7.386 -0.4701  0.0092  0.0334
   51MOL   H22625326   7.922   4.891   7.433 -0.4292 -0.0130  0.9404
   51MOL   C22725327   7.666   5.052   7.796 -1.0207 -0.3624 -0.6935
   51MOL   C22825328   7.808   5.014   7.847  0.0508 -0.1965  0.4593
   51MOL   C22925329   7.889   4.945   7.737  0.7930 -0.4849  0.2362
   51MOL   C23025330   7.807   4.920   7.971 -1.4534  0.5559  0.1644
   51MOL   O23125331   7.855   4.805   7.967 -0.5002 -0.4846  0.2348
   51MOL   O23225332   7.753   4.973   0.068 -0.3253  0.2637 -0.2168
   51MOL   C23325333   7.751   4.914   0.198 -0.8213  0.1584  0.0540
   51MOL   C23425334   7.666   4.997   0.299 -1.1074  0.2676 -0.0666
   51MOL   C23525335   7.698   5.123   0.349  0.3960  0.2600 -0.2159
   51MOL   C23625336   7.618   5.188   0.444  0.1384 -0.1291  0.3944
   51MOL   C23725337   7.507   5.121   0.493  0.0634  0.5092  0.3048
   51MOL   C23825338   7.469   4.990   0.445 -0.6382 -0.1588  0.0620
   51MOL   C23925339   7.554   4.929   0.350  0.3447  0.0087  0.2378
   51MOL   H24025340   7.611   5.082   7.885 -0.2163 -2.6462  0.6102
   51MOL   H24125341   7.676   5.139   7.732  0.7374 -1.0548 -1.3895
   51MOL   H24225342   7.846   4.850   7.706  0.1410 -0.2893  0.5385
   51MOL   H24325343   7.985   4.922   7.785  0.5769  2.0716  2.0111
   51MOL   H24425344   7.897   5.010   7.650  0.4616  0.2302  0.7343
   51MOL   H24525345   7.697   4.819   0.197 -0.2323 -0.2477  3.2571
   51MOL   H24625346   7.855   4.893   0.221 -0.5731 -0.9043 -1.9014
   51MOL   H24725347   7.787   5.174   0.312  0.2885 -1.2842 -2.7476
   51MOL   H24825348   7.647   5.284   0.484 -0.8768 -0.2278  1.3939
   51MOL   H24925349   7.468   5.148   0.590  0.2136 -0.0855  0.5373
   51MOL   H25025350   7.388   4.929   0.482  0.9441 -2.6950 -0.4813
   51MOL   H25125351   7.519   4.831   0.321  1.7194 -1.5666  3.5473
   51MOL   C25225352   7.875   5.150   7.891 -0.0246  0.4479  0.4874
   51MOL   C25325353   0.023   5.171   7.924  0.0188  0.7837  0.5558
   51MOL   C25425354   0.090   5.206   7.793  0.6106 -0.0877  0.3432
   51MOL   C25525355   0.093   5.054   8.006  0.0666  0.4068  0.6707
   51MOL   O25625356   0.189   4.995   7.958  0.0140 -0.1563  0.0035
   51MOL   O25725357   0.051   5.040   0.125  0.4376 -0.5261  0.3538
   51MOL   C25825358   0.111   4.947   0.214 -0.0765  0.5776  0.8086
   51MOL   C25925359   0.208   5.016   0.310  0.4573 -0.0191  0.1943
   51MOL   C26025360   0.142   5.108   0.399  0.1377  0.2740 -0.2314
   51MOL   C26125361   0.222   5.196   0.474 -0.2883 -0.5966  0.1489
   51MOL   C26225362   0.367   5.179   0.473  0.1709  0.4028  0.2657
   51MOL   C26325363   0.430   5.099   0.373  0.0622 -0.1058  0.2959
   51MOL   C26425364   0.350   5.010   0.293 -0.4523  0.1616 -0.2585
   51MOL   H26525365   7.819   5.175   7.981 -0.4132 -0.1155  0.3953
   51MOL   H26625366   7.844   5.227   7.820  0.8844  0.0956 -0.2927
   51MOL   H26725367   0.049   5.293   7.743  1.3127 -0.4655 -0.8971
   51MOL   H26825368   0.082   5.114   7.735 -0.3316  0.4656 -0.4225
   51MOL   H26925369   0.198   5.215   7.804  0.4413 -0.9275  3.2079
   51MOL   H27025370   0.049   4.884   0.278  2.9136 -0.5100  2.7200
   51MOL   H27125371   0.170   4.873   0.160  0.1931  0.0828  1.7682
   51MOL   H27225372   0.034   5.118   0.396  0.2787  2.9031  1.6266
   51MOL   H27325373   0.179   5.268   0.542 -0.9381 -0.7336 -0.1191
   51MOL   H27425374   0.420   5.245   0.540  2.2143 -2.4280  1.5593
   51MOL   H27525375   0.537   5.092   0.362  0.0281 -0.2250  0.0235
   51MOL   H27625376   0.408   4.952   0.223  1.5126  1.1487  0.4854
   51MOL   C27725377   0.016   5.310   8.000 -0.4118 -0.5108  0.0055
   51MOL   C27825378   0.137   5.407   0.024 -0.2445 -0.1801  0.3196
   51MOL   C27925379   0.264   5.331   0.074  0.2807 -0.1555  0.8966
   51MOL   C28025380   0.096   5.494   0.141 -0.0183  0.4805  0.6915
   51MOL   O28125381   0.164   5.535   0.225 -0.1903 -0.1217 -0.1633
   51MOL   O28225382   7.976   5.525   0.136 -0.5346 -0.0788  0.3606
   51MOL   C28325383   7.927   5.622   0.228  1.0448  0.1474 -0.6695
   51MOL   C28425384   7.777   5.628   0.230  0.8772  0.3284 -0.2301
   51MOL   C28525385   7.712   5.752   0.211  0.7367  0.1608  0.2416
   51MOL   C28625386   7.570   5.758   0.210  0.2235  0.6688  0.3289
   51MOL   C28725387   7.495   5.641   0.230  0.5490 -0.0529 -0.4238
   51MOL   C28825388   7.566   5.521   0.259  0.1928 -0.4815  0.1112
   51MOL   C28925389   7.706   5.512   0.249  0.3529 -0.1573  0.8679
   51MOL   H29025390   7.979   5.281   0.089 -3.0017 -0.5796 -1.1682
   51MOL   H29125391   7.952   5.369   7.943 -2.9153 -0.8345  2.6385
   51MOL   H29225392   0.237   5.260   0.152  1.5705  0.4929  1.9562
   51MOL   H29325393   0.337   5.401   0.114  0.1798 -0.3195  1.3714
   51MOL   H29425394   0.304   5.265   8.004  0.8964  1.1776  0.0553
   51MOL   H29525395   7.960   5.606   0.330 -0.0873 -0.4044 -0.3825
   51MOL   H29625396   7.971   5.715   0.191  1.6611  0.3198  0.4861
   51MOL   H29725397   7.766   5.839   0.176  0.1323  1.3817  2.2902
   51MOL   H29825398   7.511   5.845   0.184 -1.2030 -0.3733 -0.0293
   51MOL   H29925399   7.387   5.632   0.240  0.4891  0.4085 -0.6371
   51MOL   H30025400   7.501   5.437   0.277 -0.6231 -0.4117 -2.3167
   51MOL   H30125401   7.763   5.421   0.256 -0.8229 -1.1394 -1.7381
   51MOL   C30225402   0.166   5.497   7.894 -0.4695  0.3805 -0.8288
   51MOL   C30325403   0.249   5.629   7.887 -0.4503  0.2488  0.0572
   51MOL   C30425404   0.388   5.604   7.953  0.2353  0.1798  0.2276
   51MOL   C30525405   0.175   5.749   7.954  0.1536  1.2273 -0.2154
   51MOL   O30625406   0.054   5.745   7.956 -0.1926 -0.0945 -0.0417
   51MOL   O30725407   0.247   5.850   7.968  0.2769  0.0119  0.0141
   51MOL   C30825408   0.188   5.968   0.006 -0.4791 -0.6435  1.4648
   51MOL   C30925409   0.269   6.038   0.117 -0.1767  0.2953  0.0408
   51MOL   C31025410   0.403   5.995   0.141 -0.6779  0.0937 -0.0927
   51MOL   C31125411   0.480   6.073   0.227 -0.3887  0.4090 -0.4066
   51MOL   C31225412   0.433   6.190   0.288  0.8505 -0.2036 -0.1003
   51MOL   C31325413   0.303   6.237   0.256  0.6623 -0.1374 -0.0396
   51MOL   C31425414   0.215   6.154   0.178 -1.3714 -0.4652 -0.5646
   51MOL   H31525415   0.073   5.503   7.838 -1.4980 -0.6369  0.7362
   51MOL   H31625416   0.243   5.437   7.846 -1.6578 -1.6241 -0.2957
   51MOL   H31725417   0.454   5.682   7.914  0.2483 -0.1650 -0.4607
   51MOL   H31825418   0.446   5.514   7.931 -0.2926 -0.2244  0.4786
   51MOL   H31925419   0.379   5.614   0.054 -0.1289  1.1929  0.1073
   51MOL   H32025420   0.202   6.035   7.928  0.5131 -1.4470  0.9790
   51MOL   H32125421   0.086   5.975   0.043 -0.6125  3.6461  0.5240
   51MOL   H32225422   0.447   5.907   0.096 -0.0827 -0.0759  0.8001
   51MOL   H32325423   0.584   6.051   0.248 -0.5132  0.1603 -0.0417
   51MOL   H32425424   0.492   6.250   0.356  0.8882  0.9648 -1.1374
   51MOL   H32525425   0.267   6.332   0.291 -0.4288 -0.2559 -0.7968
   51MOL   H32625426   0.118   6.189   0.148 -0.0695  3.7720 -0.1143
   51MOL   C32725427   0.262   5.678   7.739  0.6539  0.1603 -0.2197
   51MOL   C32825428   0.294   5.593   7.599  0.4682 -0.5918  0.5142
   51MOL   C32925429   0.180   5.490   7.579  0.1811  0.3475 -0.3495
   51MOL   C33025430   0.421   5.504   7.600  0.5283  0.2351 -0.3204
   51MOL   O33125431   0.491   5.498   7.698 -0.1882 -0.2546  0.0930
   51MOL   O33225432   0.437   5.435   7.486  0.3428 -0.0682 -0.4841
   51MOL   C33325433   0.562   5.371   7.453  0.8168  0.2835  0.3682
   51MOL   C33425434   0.533   5.259   7.361 -0.2259  0.1409  0.3371
   51MOL   C33525435   0.561   5.276   7.225 -0.1455 -0.1782 -0.1972
   51MOL   C33625436   0.530   5.175   7.136  0.3601  0.0012 -0.2654
   51MOL   C33725437   0.466   5.054   7.184 -0.0814 -0.4220 -0.2535
   51MOL   C33825438   0.433   5.039   7.319  0.6911  0.2928  0.1270
   51MOL   C33925439   0.462   5.146   7.410 -0.9915  0.3738 -0.4929
   51MOL   H34025440   0.338   5.755   7.747  1.2780 -0.4844  0.1414
   51MOL   H34125441   0.166   5.721   7.708  0.9354 -1.1911 -3.2175
   51MOL   H34225442   0.188   5.408   7.650 -1.3461  0.3756 -0.1304
   51MOL   H34325443   0.191   5.443   7.482  1.1831  0.7790 -0.4506
   51MOL   H34425444   0.081   5.530   7.600  0.6850  1.0882  0.6707
   51MOL   H34525445   0.618   5.447   7.399  1.8342 -2.1521 -2.1702
   51MOL   H34625446   0.615   5.341   7.543  0.7966  2.7362  1.2244
   51MOL   H34725447   0.622   5.357   7.189 -1.9247  2.4862  2.5471
   51MOL   H34825448   0.546   5.186   7.030 -2.3215 -0.9220 -0.8100
   51MOL   H34925449   0.435   4.970   7.123 -0.4323 -1.0033  0.7303
   51MOL   H35025450   0.387   4.949   7.356  0.8332 -0.1055 -0.6493
   51MOL   H35125451   0.443   5.132   7.515 -1.2010 -0.6033 -0.6619
   51MOL   C35225452   0.271   5.688   7.477  0.6831 -0.0123  0.4463
   51MOL   C35325453   0.370   5.798   7.442  0.2236 -0.7511  0.6245
   51MOL   C35425454   0.514   5.739   7.424  0.4878  0.2982  0.4332
   51MOL   C35525455   0.381   5.913   7.541  0.5150 -0.1575  0.2153
   51MOL   O35625456   0.493   5.952   7.586 -0.0801  0.3007 -0.5220
   51MOL   O35725457   0.263   5.975   7.562  0.2094  0.2628 -0.4328
   51MOL   C35825458   0.260   6.088   7.645  0.4225 -0.2313 -0.3202
   51MOL   C35925459   0.113   6.103   7.698 -0.6390 -0.6084 -0.1569
   51MOL   C36025460   0.072   6.209   7.782 -0.3716 -0.1146  1.0695
   51MOL   C36125461   7.964   6.207   7.859  0.3808  0.0000  0.6998
   51MOL   C36225462   7.877   6.103   7.844  0.0549 -1.0959  0.6945
   51MOL   C36325463   7.911   5.997   7.764  0.4117 -0.7240  0.3021
   51MOL   C36425464   0.022   5.991   7.688 -0.0976 -0.1527  0.2500
   51MOL   H36525465   0.174   5.736   7.491  1.0210  0.8491 -0.1821
   51MOL   H36625466   0.248   5.627   7.389 -2.3157 -1.0172  1.8585
   51MOL   H36725467   0.594   5.808   7.397 -0.0926 -0.2955 -3.0029
   51MOL   H36825468   0.518   5.652   7.358  0.6705  1.5023 -1.1745
   51MOL   H36925469   0.554   5.707   7.520 -0.5477 -0.5613  0.5883
   51MOL   H37025470   0.325   6.076   7.732 -0.1265 -1.4078 -0.0543
   51MOL   H37125471   0.281   6.177   7.587 -1.6085  0.9298  0.6835
   51MOL   H37225472   0.137   6.293   7.804 -3.0948  2.1879  0.5854
   51MOL   H37325473   7.954   6.292   7.925 -0.4465  1.9124 -1.7957
   51MOL   H37425474   7.785   6.091   7.900 -2.2619 -1.0385 -2.8915
   51MOL   H37525475   7.831   5.925   7.757 -1.5044  1.2551  1.2220
   51MOL   H37625476   0.043   5.908   7.622 -1.0273  1.5423 -2.2710
   51MOL   C37725477   0.334   5.840   7.297 -0.4687 -0.4381 -0.3382
   51MOL   C37825478   0.382   5.973   7.219 -0.4523 -0.4189 -0.6159
   51MOL   C37925479   0.532   5.993   7.231  0.4284  0.4880 -0.0177
   51MOL   C38025480   0.295   6.090   7.272  0.3368  0.2525 -0.3657
   51MOL   O38125481   0.347   6.186   7.324 -1.1841 -0.6592 -0.1018
   51MOL   O38225482   0.166   6.072   7.269 -0.4622  0.0620  0.4861
   51MOL   C38325483   0.070   6.161   7.323 -0.1028  0.3331  0.1935
   51MOL   C38425484   7.946   6.083   7.358  0.1864 -0.1425 -0.1830
   51MOL   C38525485   7.917   5.949   7.311  0.3953 -0.4467  0.1913
   51MOL   C38625486   7.791   5.889   7.334 -0.7572  0.0988  0.1920
   51MOL   C38725487   7.692   5.951   7.412  0.4655 -0.1502 -0.4354
   51MOL   C38825488   7.719   6.079   7.458 -0.3440 -0.2558 -0.0560
   51MOL   C38925489   7.847   6.145   7.438 -0.4121  0.3300  0.4125
   51MOL   H39025490   0.225   5.838   7.296 -0.4775  0.2530 -1.6946
   51MOL   H39125491   0.366   5.763   7.227  1.7799  0.5549 -0.4213
   51MOL   H39225492   0.557   6.012   7.335  0.3492 -1.1737  0.3234
   51MOL   H39325493   0.562   6.082   7.175  1.8191  0.5851  0.8732
   51MOL   H39425494   0.601   5.913   7.206 -0.4122 -0.2226 -0.1143
   51MOL   H39525495   0.110   6.205   7.414  2.8357 -1.0431 -0.3718
   51MOL   H39625496   0.043   6.237   7.250  1.8551  1.3269  0.4884
   51MOL   H39725497   7.994   5.899   7.253 -0.9009 -0.8971 -1.1551
   51MOL   H39825498   7.784   5.787   7.300 -1.5261 -0.4869  2.0268
   51MOL   H39925499   7.594   5.911   7.434 -0.4732  0.6041 -3.0284
   51MOL   H40025500   7.644   6.131   7.515  0.3957  1.0006 -0.2213
   51MOL   H40125501   7.872   6.237   7.488  2.2196 -0.7666  1.1843
   51MOL   C40225502   0.342   5.938   7.070 -0.2592  0.0134 -0.0091
   51MOL   C40325503   0.329   6.042   6.953  0.4361  0.3904 -0.0474
   51MOL   C40425504   0.444   6.146   6.944 -0.2232 -0.0028  0.1899
   51MOL   C40525505   0.188   6.111   6.964  0.1007  0.4379  0.2638
   51MOL   O40625506   0.182   6.233   6.967 -0.5122  0.7818  0.3553
   51MOL   O40725507   0.086   6.026   6.966  0.0657  0.1793  0.6540
   51MOL   C40825508   7.960   6.072   6.970 -0.1164 -0.2545 -0.6857
   51MOL   C40925509   7.875   6.004   6.863  1.1828  0.3082  0.7214
   51MOL   C41025510   7.925   5.934   6.752 -0.2790 -0.0853  0.0913
   51MOL   C41125511   7.845   5.882   6.654  0.0410  1.2531  0.7482
   51MOL   C41225512   7.711   5.897   6.665  0.2353  0.2792  0.6829
   51MOL   C41325513   7.655   5.971   6.772  0.2954  0.5268  0.0365
   51MOL   C41425514   7.738   6.023   6.871  0.4134 -0.3044  0.8076
   51MOL   H41525515   0.250   5.882   7.083 -0.6023  0.6297  0.2465
   51MOL   H41625516   0.409   5.857   7.041 -0.9161 -0.8207  0.8176
   51MOL   H41725517   0.535   6.095   6.973 -1.1978 -1.6952  0.3543
   51MOL   H41825518   0.433   6.222   7.021  1.1033 -0.8323  1.2109
   51MOL   H41925519   0.450   6.192   6.845  0.1776 -1.1758 -0.3452
   51MOL   H42025520   7.921   6.057   7.071  1.1102  2.4289  0.2288
   51MOL   H42125521   7.952   6.177   6.940 -2.2123 -0.3019 -0.4081
   51MOL   H42225522   0.025   5.937   6.740 -0.3073 -0.6675 -0.3589
   51MOL   H42325523   7.895   5.830   6.574 -0.3953  1.2125  0.5006
   51MOL   H42425524   7.644   5.873   6.584 -0.0866  0.5621  0.8624
   51MOL   H42525525   7.548   5.983   6.780  0.3618  2.0801 -1.0552
   51MOL   H42625526   7.686   6.073   6.952  0.5066 -1.2154  1.4395
   51MOL   C42725527   0.312   5.964   6.809  0.9106  0.1940 -0.3424
   51MOL   C42825528   0.442   5.898   6.728 -0.3278  0.4925  0.0117
   51MOL   C42925529   0.533   6.016   6.679 -0.4190 -0.3859 -0.3134
   51MOL   C43025530   0.372   5.839   6.604  0.2776  0.0428 -0.2870
   51MOL   O43125531   0.392   5.891   6.492 -0.5908  0.5470  0.4969
   51MOL   O43225532   0.289   5.735   6.628  0.7290 -0.8918 -0.4826
   51MOL   C43325533   0.264   5.643   6.524 -0.5625 -0.3887  0.0269
   51MOL   C43425534   0.129   5.584   6.527 -0.0572 -0.6505 -0.3386
   51MOL   C43525535   0.091   5.507   6.642  0.3305  0.2881 -0.2395
   51MOL   C43625536   7.963   5.461   6.654  0.0401 -0.6197  0.3549
   51MOL   C43725537   7.864   5.504   6.560 -0.1895 -0.0415 -0.5241
   51MOL   C43825538   7.903   5.585   6.450  0.1574  0.5171  0.6044
   51MOL   C43925539   0.028   5.613   6.430  0.7017  0.1528 -0.8763
   51MOL   H44025540   0.249   6.022   6.742  1.7204  0.9184 -0.4938
   51MOL   H44125541   0.250   5.876   6.825 -1.0129  1.3027 -1.5031
   51MOL   H44225542   0.596   6.071   6.749  0.0428  0.9369 -1.7535
   51MOL   H44325543   0.468   6.096   6.643  1.4145  2.1503  1.8242
   51MOL   H44425544   0.594   5.993   6.592 -0.5323  1.8965 -1.0333
   51MOL   H44525545   0.287   5.675   6.422 -1.3476 -0.4450 -0.1738
   51MOL   H44625546   0.333   5.559   6.531 -1.7290 -1.5704 -2.0952
   51MOL   H44725547   0.170   5.476   6.707  1.5588 -1.1518 -2.3435
   51MOL   H44825548   7.930   5.393   6.731 -1.0081  0.5346  0.9449
   51MOL   H44925549   7.759   5.482   6.570  0.3016 -0.8684  3.5055
   51MOL   H45025550   7.828   5.623   6.382  2.8684  2.3352 -1.4407
   51MOL   H45125551   0.059   5.674   6.347  1.4523  0.5256 -0.3333
   51MOL   C45225552   0.516   5.792   6.815  0.3932  0.5322 -0.1420
   51MOL   C45325553   0.628   5.688   6.762 -0.1973  0.0899 -0.2884
   51MOL   C45425554   0.576   5.571   6.671  0.5069  0.0351 -0.7460
   51MOL   C45525555   0.688   5.621   6.888  0.2978  0.2233 -0.2547
   51MOL   O45625556   0.654   5.508   6.936  0.0704 -0.3548  0.1925
   51MOL   O45725557   0.771   5.709   6.962 -0.0368  0.1176  0.6648
   51MOL   C45825558   0.827   5.665   7.089  0.5079 -0.2118 -0.0401
   51MOL   C45925559   0.925   5.764   7.155 -0.1785  0.3769 -0.0909
   51MOL   C46025560   1.064   5.763   7.117  0.2982  0.2933  0.1193
   51MOL   C46125561   1.160   5.835   7.189  0.5516 -0.3758  0.1843
   51MOL   C46225562   1.114   5.907   7.299 -0.3637  0.3284 -0.3559
   51MOL   C46325563   0.979   5.920   7.328  0.2899  1.1984  0.0998
   51MOL   C46425564   0.887   5.838   7.264  0.1176 -0.1922 -0.5815
   51MOL   H46525565   0.443   5.729   6.867  0.7328  0.0479 -0.2492
   51MOL   H46625566   0.570   5.855   6.886  0.3616  0.0878  0.2875
   51MOL   H46725567   0.483   5.531   6.709  1.2052  0.6871  1.7118
   51MOL   H46825568   0.645   5.488   6.686 -1.2067 -0.8515  2.6988
   51MOL   H46925569   0.566   5.582   6.563  0.5785 -1.1576 -0.8815
   51MOL   H47025570   0.738   5.676   7.150 -1.1364 -1.3768 -2.1513
   51MOL   H47125571   0.869   5.565   7.097 -0.4743 -0.6779 -0.6344
   51MOL   H47225572   1.089   5.705   7.029 -0.6021  0.7942 -0.4780
   51MOL   H47325573   1.265   5.844   7.163  0.7454  2.7444  1.7321
   51MOL   H47425574   1.192   5.966   7.345  0.1946 -1.3338  0.8892
   51MOL   H47525575   0.958   5.985   7.411  0.0208  2.5175 -0.9826
   51MOL   H47625576   0.783   5.838   7.293 -0.4280  0.0042 -2.4666
   51MOL   C47725577   0.740   5.763   6.684 -0.4502 -0.1795  0.2086
   51MOL   C47825578   0.875   5.693   6.652  0.8106 -0.1834 -0.0451
   51MOL   C47925579   0.993   5.720   6.748 -0.1696 -0.4888  0.3895
   51MOL   C48025580   0.911   5.706   6.505  0.0395  0.2422 -0.0362
   51MOL   O48125581   0.878   5.627   6.420  0.2049  0.5664 -0.4345
   51MOL   O48225582   0.989   5.806   6.487 -0.0347 -0.3809  0.1630
   51MOL   C48325583   1.061   5.830   6.364  0.3881  0.2491 -0.5069
   51MOL   C48425584   1.082   5.980   6.338 -0.3068 -0.7584  0.4202
   51MOL   C48525585   0.998   6.069   6.412 -0.8843 -0.7672 -0.8106
   51MOL   C48625586   1.017   6.207   6.386 -0.6482 -0.1361 -0.1921
   51MOL   C48725587   1.117   6.261   6.301  0.7317  0.1112  0.4540
   51MOL   C48825588   1.196   6.168   6.230  0.8024 -0.6866  0.2087
   51MOL   C48925589   1.184   6.032   6.250 -0.0319 -0.4930 -0.4938
   51MOL   H49025590   0.755   5.863   6.725  0.1946  0.4605 -1.5241
   51MOL   H49125591   0.681   5.781   6.594 -1.1395 -1.0983  0.4753
   51MOL   H49225592   1.019   5.826   6.747 -0.5222 -0.3966  0.6879
   51MOL   H49325593   1.078   5.658   6.720  0.0226  0.9335 -2.2566
   51MOL   H49425594   0.968   5.701   6.853 -3.4571  0.5912 -0.1418
   51MOL   H49525595   1.160   5.785   6.366 -0.3790 -1.5183 -1.3050
   51MOL   H49625596   1.019   5.783   6.275 -0.3369 -1.6038  0.7859
   51MOL   H49725597   0.921   6.034   6.479  0.5667 -1.2819  0.6526
   51MOL   H49825598   0.974   6.283   6.449  0.0345  0.6808 -0.6922
   51MOL   H49925599   1.132   6.368   6.303 -0.7312  0.3359  0.2778
   51MOL   H50025600   1.273   6.210   6.167 -0.7773  0.6059 -0.9101
   51MOL   H50125601   1.254   5.969   6.198  2.1231  2.1063 -0.8631
   51MOL   H50225602   0.854   5.586   6.646  0.9060 -0.0946 -2.4791
   52MOL     C125603   6.298   5.352   5.216  0.3797  0.2386  0.5878
   52MOL     C225604   6.190   5.244   5.184 -0.9619  0.3228 -0.1290
   52MOL     C325605   6.128   5.288   5.048  0.7935  0.8995  0.0293
   52MOL     C425606   6.076   5.254   5.295  0.8989 -1.2932  0.1358
   52MOL     O525607   5.955   5.232   5.276 -0.5801  0.0383  0.4846
   52MOL     O625608   6.130   5.276   5.415 -0.0250  0.5893  0.0839
   52MOL     C725609   6.062   5.297   5.531  0.4308  0.2979  0.4822
   52MOL     C825610   6.098   5.430   5.594  0.0691  0.0340  0.3065
   52MOL     C925611   6.098   5.548   5.518 -0.0411 -0.6106  0.3382
   52MOL    C1025612   6.136   5.670   5.578  0.0518  0.3168 -0.1089
   52MOL    C1125613   6.170   5.683   5.707 -0.6377  0.1123 -0.0513
   52MOL    C1225614   6.174   5.567   5.790  0.1521 -0.2024  1.1094
   52MOL    C1325615   6.152   5.445   5.727  0.0686  0.0222  0.0484
   52MOL    H1425616   6.359   5.361   5.125 -1.6338  2.2361 -0.6391
   52MOL    H1525617   6.244   5.446   5.230  0.8971  0.5941  0.2633
   52MOL    H1625618   6.071   5.381   5.046  1.4611  1.3060 -0.2073
   52MOL    H1725619   6.060   5.216   5.002  0.7091  0.2414  1.1666
   52MOL    H1825620   6.196   5.290   4.963 -0.2287  1.2887 -0.7873
   52MOL    H1925621   5.954   5.280   5.523 -0.0631  3.4915 -0.6972
   52MOL    H2025622   6.096   5.219   5.598 -0.9058  0.2244  1.1018
   52MOL    H2125623   6.099   5.534   5.411  0.2630  0.4049  0.2064
   52MOL    H2225624   6.148   5.750   5.506 -1.1819  1.1028  0.5404
   52MOL    H2325625   6.188   5.776   5.760 -0.1221 -0.1061  0.1591
   52MOL    H2425626   6.202   5.574   5.895  0.4326  2.3444  0.9019
   52MOL    H2525627   6.176   5.360   5.789 -1.0103  1.0154  1.8628
   52MOL    H2625628   6.368   5.331   5.296  1.1434  1.6654  0.3192
   52MOL    C2725629   6.247   5.104   5.164 -0.3111 -0.2338 -0.2881
   52MOL    C2825630   6.285   5.001   5.270  0.1150  0.0173  0.2247
   52MOL    C2925631   6.158   4.939   5.333 -0.4685  1.3831  0.2313
   52MOL    C3025632   6.378   5.069   5.377 -0.2999 -0.2229  0.9448
   52MOL    O3125633   6.355   5.073   5.498  0.2254  0.1824 -0.1314
   52MOL    O3225634   6.492   5.110   5.319 -0.1288  0.1879 -0.2186
   52MOL    C3325635   6.601   5.160   5.401 -1.1189 -0.2415  0.0633
   52MOL    C3425636   6.592   5.310   5.424  0.3539  0.3663  0.1855
   52MOL    C3525637   6.501   5.363   5.518  0.4452  0.0710 -0.3728
   52MOL    C3625638   6.496   5.504   5.547  0.4770  0.8134  0.4645
   52MOL    C3725639   6.585   5.591   5.481 -0.8974 -0.2336 -0.4524
   52MOL    C3825640   6.673   5.537   5.389  0.1987  0.8276  0.2223
   52MOL    C3925641   6.681   5.399   5.363 -0.6259  0.6377  0.2779
   52MOL    H4025642   6.334   5.127   5.103 -2.0349  1.2043 -2.2354
   52MOL    H4125643   6.191   5.051   5.087  0.4912  0.6051 -1.4645
   52MOL    H4225644   6.085   4.914   5.256 -1.1502  0.6290  1.1158
   52MOL    H4325645   6.114   5.005   5.407 -1.0519 -0.8022  1.9142
   52MOL    H4425646   6.178   4.850   5.393  2.3777  2.1264  0.4460
   52MOL    H4525647   6.611   5.099   5.490 -2.0871  1.3287  1.2699
   52MOL    H4625648   6.689   5.145   5.338 -1.3684  0.4623 -0.4651
   52MOL    H4725649   6.432   5.299   5.572 -0.1808  1.2669  0.2687
   52MOL    H4825650   6.417   5.526   5.616 -1.2496 -1.1329 -0.8282
   52MOL    H4925651   6.578   5.698   5.496 -0.5806 -0.4644  1.5000
   52MOL    H5025652   6.738   5.605   5.337  0.5818  0.9524  0.8651
   52MOL    H5125653   6.742   5.358   5.284 -0.5591  0.2731  0.5181
   52MOL    C5225654   6.370   4.887   5.199 -0.0650 -0.0989  0.1691
   52MOL    C5325655   6.435   4.751   5.261  0.2656 -0.3287  0.4379
   52MOL    C5425656   6.500   4.691   5.140  0.0976  0.2798  0.2011
   52MOL    C5525657   6.324   4.652   5.310 -0.0801 -0.5879  0.6296
   52MOL    O5625658   6.315   4.634   5.431  0.2165  0.1150 -0.7463
   52MOL    O5725659   6.241   4.599   5.213 -0.7461  0.6349 -0.6736
   52MOL    C5825660   6.123   4.518   5.248  0.3252  0.4002  0.1636
   52MOL    C5925661   5.999   4.595   5.286  0.4741 -0.7191  0.8998
   52MOL    C6025662   5.897   4.614   5.194  0.3791 -0.4507  0.1733
   52MOL    C6125663   5.770   4.675   5.241 -0.3956 -0.4298  0.7613
   52MOL    C6225664   5.759   4.701   5.378 -0.0955 -0.4041 -0.4491
   52MOL    C6325665   5.859   4.678   5.473  0.2485  0.0026  0.0577
   52MOL    C6425666   5.987   4.633   5.420  0.5318  0.5984 -0.1872
   52MOL    H6525667   6.455   4.936   5.153  0.5550 -2.6555 -1.5261
   52MOL    H6625668   6.302   4.857   5.118  0.2114 -2.1010  0.6426
   52MOL    H6725669   6.516   4.588   5.172  2.1263  0.5673  0.1556
   52MOL    H6825670   6.591   4.731   5.095  0.9690  1.4660  2.9320
   52MOL    H6925671   6.418   4.672   5.070  1.6816 -1.6811 -1.1917
   52MOL    H7025672   6.101   4.468   5.154  0.6436  1.7822 -0.6710
   52MOL    H7125673   6.143   4.437   5.318 -1.1240  0.4279  0.6231
   52MOL    H7225674   5.913   4.585   5.091  0.9250  1.3239 -0.2604
   52MOL    H7325675   5.690   4.698   5.172  1.8197  0.7274 -1.5099
   52MOL    H7425676   5.671   4.752   5.416  2.0536  2.8021  0.4440
   52MOL    H7525677   5.849   4.711   5.575  1.9035 -0.2132  0.3105
   52MOL    H7625678   6.075   4.636   5.482  2.7195  0.9885 -3.1815
   52MOL    C7725679   6.546   4.795   5.371 -0.0207  0.2610 -0.0598
   52MOL    C7825680   6.672   4.702   5.423 -0.1703  0.6676 -0.4348
   52MOL    C7925681   6.777   4.674   5.305  0.2836  0.2815 -0.1450
   52MOL    C8025682   6.628   4.568   5.478  0.3872 -0.0232  0.3605
   52MOL    O8125683   6.639   4.459   5.417 -0.0591 -0.7176  0.2416
   52MOL    O8225684   6.566   4.587   5.600  0.1449  0.6436  0.1884
   52MOL    C8325685   6.513   4.478   5.675 -0.2919 -0.8375 -0.1657
   52MOL    C8425686   6.483   4.513   5.822  0.9275  0.3049 -0.1983
   52MOL    C8525687   6.446   4.415   5.922  0.7763  0.4205 -0.1298
   52MOL    C8625688   6.418   4.450   6.057 -1.2930  0.1900 -0.3958
   52MOL    C8725689   6.435   4.584   6.094 -0.2093 -0.4128  0.6023
   52MOL    C8825690   6.469   4.683   5.998 -0.4493 -0.5221 -0.0364
   52MOL    C8925691   6.482   4.651   5.861  0.2877  0.1096  0.5963
   52MOL    H9025692   6.487   4.834   5.454  0.7185  2.0956 -0.3790
   52MOL    H9125693   6.595   4.885   5.335  0.4722 -0.5134 -1.3469
   52MOL    H9225694   6.832   4.763   5.276  0.7329 -0.1728 -0.7092
   52MOL    H9325695   6.740   4.630   5.212  0.8869 -0.0090 -0.2506
   52MOL    H9425696   6.860   4.611   5.339  1.4467  1.2590 -1.1629
   52MOL    H9525697   6.435   4.434   5.612 -0.4491 -0.3986 -0.2811
   52MOL    H9625698   6.589   4.401   5.665  0.3966 -0.1612 -0.1730
   52MOL    H9725699   6.432   4.311   5.898  0.3379  0.7460 -1.3280
   52MOL    H9825700   6.383   4.389   6.139 -2.0261 -1.4620 -1.9219
   52MOL    H9925701   6.408   4.618   6.193 -0.8517 -0.8944  0.5944
   52MOL   H10025702   6.461   4.787   6.027  1.5334  0.1148 -1.6189
   52MOL   H10125703   6.506   4.726   5.788  0.9678 -0.5477  0.1314
   52MOL   C10225704   6.739   4.792   5.534 -0.2252  0.0299  0.3596
   52MOL   C10325705   6.863   4.752   5.630  0.5067 -0.6677  1.1117
   52MOL   C10425706   6.922   4.883   5.695  0.5406  0.2934  0.2409
   52MOL   C10525707   6.984   4.696   5.554  0.6817  0.6777  0.4971
   52MOL   O10625708   7.013   4.581   5.549  0.0120 -0.6044  0.1585
   52MOL   O10725709   7.058   4.796   5.495  0.9328  0.6326 -0.3693
   52MOL   C10825710   7.179   4.759   5.426 -0.5665 -1.2149 -0.1781
   52MOL   C10925711   7.300   4.751   5.523  0.4864  0.3638 -0.0429
   52MOL   C11025712   7.391   4.649   5.497  0.1580  0.9185  0.3430
   52MOL   C11125713   7.504   4.634   5.581  0.1974  0.0002  0.7574
   52MOL   C11225714   7.536   4.733   5.678 -0.5334 -0.7238 -0.1789
   52MOL   C11325715   7.443   4.837   5.701 -0.1851 -0.3866 -0.0550
   52MOL   C11425716   7.327   4.850   5.619 -0.3844  0.4965 -0.0829
   52MOL   H11525717   6.666   4.822   5.609  2.6566 -0.2840  3.3995
   52MOL   H11625718   6.765   4.880   5.475 -1.4227 -0.1979 -0.5211
   52MOL   H11725719   7.017   4.864   5.745 -0.2715 -0.1278  1.6650
   52MOL   H11825720   6.857   4.921   5.773  0.4896  0.6326  0.0328
   52MOL   H11925721   6.942   4.969   5.631  0.3471  0.9329  1.0432
   52MOL   H12025722   7.154   4.667   5.373 -2.2740 -0.9432  0.1377
   52MOL   H12125723   7.202   4.831   5.346 -0.1197 -1.2052 -0.0427
   52MOL   H12225724   7.376   4.568   5.427  1.4297  0.6703  0.3493
   52MOL   H12325725   7.576   4.560   5.550  0.2107  0.0576  0.6555
   52MOL   H12425726   7.627   4.735   5.737  0.1091 -0.4759 -1.1644
   52MOL   H12525727   7.460   4.923   5.763 -3.6675 -0.3375  0.9787
   52MOL   H12625728   7.249   4.924   5.630 -2.8483 -2.1185  0.8169
   52MOL   C12725729   6.822   4.653   5.744 -0.2235  0.4066  0.0027
   52MOL   C12825730   6.908   4.632   5.879 -0.2163  0.3210  0.1123
   52MOL   C12925731   6.834   4.527   5.957  0.2443  0.5409 -0.5699
   52MOL   C13025732   6.909   4.764   5.967 -0.0206 -0.7276  0.4796
   52MOL   O13125733   7.011   4.839   5.987  0.5950  0.4109 -0.1956
   52MOL   O13225734   6.792   4.801   6.035  0.3998  0.2730 -0.6062
   52MOL   C13325735   6.790   4.917   6.112 -0.1631  0.2907 -0.7832
   52MOL   C13425736   6.681   4.928   6.220  0.4823 -0.7906 -1.1171
   52MOL   C13525737   6.666   4.830   6.322  0.7680 -0.2459 -0.3245
   52MOL   C13625738   6.557   4.837   6.411  0.3737 -0.0828  0.4167
   52MOL   C13725739   6.457   4.939   6.389 -0.1701 -0.2643  0.2362
   52MOL   C13825740   6.469   5.037   6.292 -0.4282  0.4421 -0.0804
   52MOL   C13925741   6.581   5.028   6.206 -0.5519  0.3971  0.3603
   52MOL   H14025742   6.794   4.555   5.704 -0.3212  0.4389 -0.0079
   52MOL   H14125743   6.726   4.689   5.779 -1.8627 -0.2566 -3.5998
   52MOL   H14225744   6.729   4.558   5.960 -0.0582 -0.3288 -1.7245
   52MOL   H14325745   6.859   4.514   6.063 -0.5846 -4.2450 -0.8747
   52MOL   H14425746   6.838   4.433   5.903 -4.7214 -1.4294  2.1196
   52MOL   H14525747   6.876   4.909   6.179 -0.4912 -1.6082 -0.5500
   52MOL   H14625748   6.805   5.004   6.048 -0.3993  1.7983  1.1504
   52MOL   H14725749   6.739   4.752   6.336  0.6190 -0.1186  1.2675
   52MOL   H14825750   6.564   4.766   6.492 -0.5123 -0.5378  0.1061
   52MOL   H14925751   6.373   4.941   6.457 -0.0798  0.3076  0.3318
   52MOL   H15025752   6.391   5.112   6.293  1.2096  2.1663  2.2487
   52MOL   H15125753   6.601   5.112   6.142  0.3403 -0.4544 -0.4923
   52MOL   C15225754   7.057   4.574   5.854  0.2794 -0.1974 -0.6340
   52MOL   C15325755   7.152   4.515   5.968  0.2774  0.6540 -0.5889
   52MOL   C15425756   7.299   4.535   5.918  0.6258  1.2775  0.4901
   52MOL   C15525757   7.119   4.358   5.973  0.2644  0.4969 -0.3196
   52MOL   O15625758   7.044   4.315   6.061  0.1686  0.1612 -0.1833
   52MOL   O15725759   7.163   4.290   5.869  0.2607 -0.0750  0.4739
   52MOL   C15825760   7.115   4.162   5.831  0.3966 -0.3033  0.2192
   52MOL   C15925761   6.988   4.165   5.747  0.4764  0.9886  0.3307
   52MOL   C16025762   6.884   4.071   5.765  0.0718 -0.0897  0.1839
   52MOL   C16125763   6.771   4.070   5.682  0.5234 -0.0431 -0.5448
   52MOL   C16225764   6.762   4.171   5.583 -0.5377 -0.5272  0.2006
   52MOL   C16325765   6.867   4.255   5.550 -0.1960 -0.2976  0.7883
   52MOL   C16425766   6.973   4.253   5.641  0.3827 -0.7144 -0.2840
   52MOL   H16525767   7.113   4.660   5.817 -1.1414  2.0742  2.2753
   52MOL   H16625768   7.061   4.497   5.778  0.9103 -1.7617  0.9526
   52MOL   H16725769   7.361   4.459   5.965  0.2813 -0.9674 -2.4907
   52MOL   H16825770   7.341   4.634   5.936  1.3803  1.1403 -0.4904
   52MOL   H16925771   7.308   4.501   5.815  0.4695 -0.8885  1.1654
   52MOL   H17025772   7.179   4.095   5.774 -0.0676  0.7307 -1.5232
   52MOL   H17125773   7.098   4.088   5.910 -0.9367 -1.7907 -1.4316
   52MOL   H17225774   6.898   3.997   5.843  0.3471  0.2772  0.4838
   52MOL   H17325775   6.698   3.994   5.702  0.4712  0.4376  1.2133
   52MOL   H17425776   6.672   4.173   5.524  0.1741  1.3312 -0.8711
   52MOL   H17525777   6.860   4.330   5.472 -0.4791 -1.6183 -0.4752
   52MOL   H17625778   7.059   4.316   5.623  1.0232 -2.0298 -1.9024
   52MOL   C17725779   7.138   4.580   6.113 -0.3028  0.0440 -0.8026
   52MOL   C17825780   7.231   4.540   6.241 -0.7250  0.8483 -0.3062
   52MOL   C17925781   7.260   4.390   6.262  0.3506 -0.0614 -0.2615
   52MOL   C18025782   7.140   4.589   6.360 -0.7589 -0.0007  0.3947
   52MOL   O18125783   7.099   4.519   6.455 -0.1727 -0.6433 -0.8047
   52MOL   O18225784   7.109   4.726   6.341 -0.2366  0.1442  0.3222
   52MOL   C18325785   7.010   4.801   6.409  0.6768 -0.2927 -0.3399
   52MOL   C18425786   7.058   4.874   6.534  0.5473  0.1774  0.8732
   52MOL   C18525787   7.149   4.980   6.520  0.3907 -0.6581 -1.4385
   52MOL   C18625788   7.192   5.050   6.638 -0.2066  0.1213  0.4344
   52MOL   C18725789   7.145   5.015   6.763  0.3333  0.8765 -0.8296
   52MOL   C18825790   7.052   4.911   6.768 -0.3588  0.1201 -0.6439
   52MOL   C18925791   7.013   4.832   6.658 -0.4321 -0.2159  0.7882
   52MOL   H19025792   7.033   4.569   6.140 -0.1177 -0.7574 -0.3945
   52MOL   H19125793   7.141   4.688   6.095 -2.3875  0.3276  0.4156
   52MOL   H19225794   7.171   4.327   6.260  0.6958 -0.5939  0.7424
   52MOL   H19325795   7.314   4.364   6.353  0.2977  1.7777  0.3174
   52MOL   H19425796   7.331   4.355   6.186  0.8956 -0.0630  0.2443
   52MOL   H19525797   6.968   4.882   6.350 -1.0660  0.1924  1.5122
   52MOL   H19625798   6.924   4.734   6.415 -0.3371  1.0499  0.4362
   52MOL   H19725799   7.174   5.008   6.419  0.3432  3.9669 -0.2857
   52MOL   H19825800   7.258   5.134   6.633  0.9519 -0.6300  2.6157
   52MOL   H19925801   7.183   5.064   6.851  1.8067  0.8254 -1.4212
   52MOL   H20025802   7.000   4.884   6.859  2.3232 -0.5336  0.7640
   52MOL   H20125803   6.941   4.752   6.671 -1.1783  0.2035 -0.6073
   52MOL   C20225804   7.365   4.622   6.236  0.0417  0.2210  0.0128
   52MOL   C20325805   7.451   4.651   6.362 -0.4943  0.7313  0.4273
   52MOL   C20425806   7.376   4.739   6.470 -0.1376 -0.5062  0.5806
   52MOL   C20525807   7.566   4.730   6.302  0.4199 -0.4919  0.0311
   52MOL   O20625808   7.592   4.842   6.341  0.2557 -0.8261 -0.6500
   52MOL   O20725809   7.638   4.667   6.212 -0.0435  0.0456 -0.3187
   52MOL   C20825810   7.753   4.741   6.156  0.0510 -0.5919 -0.1898
   52MOL   C20925811   7.825   4.671   6.044  0.4729 -0.5178 -0.3970
   52MOL   C21025812   7.750   4.620   5.935  0.8136 -0.4930  0.2813
   52MOL   C21125813   7.812   4.560   5.819  0.5097 -0.5572 -0.6392
   52MOL   C21225814   7.955   4.560   5.815  0.6008 -0.0647  0.6554
   52MOL   C21325815   0.023   4.619   5.923  0.1102  0.0949 -0.4295
   52MOL   C21425816   7.963   4.668   6.035  0.1654 -1.0113 -0.2261
   52MOL   H21525817   7.327   4.720   6.208 -0.6332  0.1430  0.6421
   52MOL   H21625818   7.417   4.600   6.143 -1.4080  1.4083 -1.1171
   52MOL   H21725819   7.308   4.818   6.438  1.3241  0.9735  1.1042
   52MOL   H21825820   7.444   4.789   6.538  0.8582 -1.0376 -0.0231
   52MOL   H21925821   7.320   4.674   6.538 -1.2440  0.1883  0.3530
   52MOL   H22025822   7.705   4.832   6.119 -0.1357 -1.8184 -3.0710
   52MOL   H22125823   7.833   4.770   6.224  0.8038  0.2999 -1.4420
   52MOL   H22225824   7.643   4.633   5.924  0.9952 -0.2800 -1.5051
   52MOL   H22325825   7.731   4.526   5.756 -0.8651  0.7746  0.3560
   52MOL   H22425826   7.999   4.508   5.731 -1.2575  1.3196 -1.2452
   52MOL   H22525827   0.130   4.618   5.909 -0.0088 -2.4522 -1.3452
   52MOL   H22625828   8.006   4.718   6.121 -0.2204  0.6320 -0.9500
   52MOL   C22725829   7.522   4.520   6.422  0.3956  0.4156 -0.1665
   52MOL   C22825830   7.653   4.519   6.515  0.2133  0.1680  0.4562
   52MOL   C22925831   7.778   4.556   6.429 -0.1442  0.3076  0.1970
   52MOL   C23025832   7.663   4.378   6.582 -0.5291 -0.3445  0.7180
   52MOL   O23125833   7.770   4.318   6.570 -0.1339 -0.0350  0.2389
   52MOL   O23225834   7.561   4.331   6.652  0.1996 -0.5197 -0.3455
   52MOL   C23325835   7.580   4.212   6.732 -0.5762  0.5329 -0.2741
   52MOL   C23425836   7.572   4.088   6.646 -0.0055  0.5016  0.5653
   52MOL   C23525837   7.685   4.033   6.584 -0.4674  0.4105  0.4683
   52MOL   C23625838   7.675   3.912   6.513 -0.2364  0.4523 -0.4608
   52MOL   C23725839   7.555   3.839   6.513 -0.1865 -0.4242 -0.7420
   52MOL   C23825840   7.448   3.892   6.578 -0.1661  0.1046 -0.0997
   52MOL   C23925841   7.450   4.012   6.645  0.4272 -0.0829 -0.6465
   52MOL   H24025842   7.519   4.443   6.345  0.6879 -1.0948  1.2879
   52MOL   H24125843   7.446   4.480   6.490  1.7447 -2.2102 -0.1452
   52MOL   H24225844   7.870   4.520   6.475  0.1338  0.2679 -0.3846
   52MOL   H24325845   7.810   4.660   6.426  2.9361 -0.5993 -0.0349
   52MOL   H24425846   7.780   4.520   6.326 -0.0541  0.1768  0.2441
   52MOL   H24525847   7.671   4.212   6.791  1.2211 -1.9903 -2.8873
   52MOL   H24625848   7.498   4.199   6.803 -1.0592 -0.2866 -0.9683
   52MOL   H24725849   7.782   4.079   6.585  0.0440 -0.6684  1.3646
   52MOL   H24825850   7.762   3.867   6.468  1.3984  0.5868  2.4736
   52MOL   H24925851   7.541   3.742   6.469 -0.5319  0.3274 -2.3443
   52MOL   H25025852   7.355   3.837   6.578  0.3886 -0.8560  1.5585
   52MOL   H25125853   7.367   4.050   6.703 -0.5123 -1.2951 -1.1995
   52MOL   C25225854   7.641   4.640   6.618  0.5162  0.6044 -0.2124
   52MOL   C25325855   7.734   4.653   6.750 -0.8162  0.3145  0.3211
   52MOL   C25425856   7.882   4.612   6.717 -0.1735 -0.6844  0.2384
   52MOL   C25525857   7.672   4.560   6.864  0.5524  0.2638  0.2627
   52MOL   O25625858   7.735   4.451   6.902  0.0607 -0.5373 -0.6224
   52MOL   O25725859   7.561   4.613   6.916 -0.1067 -0.1636  0.0844
   52MOL   C25825860   7.494   4.546   7.018 -0.5431 -0.0480 -0.4425
   52MOL   C25925861   7.366   4.485   6.969 -0.5991 -0.9671 -0.5340
   52MOL   C26025862   7.333   4.362   7.026 -0.4848 -0.3042  0.7378
   52MOL   C26125863   7.219   4.290   6.979 -1.0038 -0.9376 -0.4757
   52MOL   C26225864   7.131   4.352   6.884 -0.2703 -0.3313 -0.4670
   52MOL   C26325865   7.157   4.487   6.849  0.3493 -0.7284 -0.1597
   52MOL   C26425866   7.280   4.549   6.886  0.1983 -0.1726 -0.6666
   52MOL   H26525867   7.539   4.636   6.656  0.1512  0.6486 -1.1793
   52MOL   H26625868   7.655   4.731   6.559 -0.6698 -0.9941 -3.0542
   52MOL   H26725869   7.898   4.510   6.684 -1.5531 -0.7011 -0.4204
   52MOL   H26825870   7.937   4.603   6.810  2.2132  3.2388 -0.6798
   52MOL   H26925871   7.939   4.683   6.657  1.7266 -2.4231 -0.0510
   52MOL   H27025872   7.541   4.463   7.069  0.2174  1.0606  0.6934
   52MOL   H27125873   7.481   4.625   7.093  1.9041 -0.9348  0.9706
   52MOL   H27225874   7.391   4.305   7.097  1.4056  0.9100  0.2199
   52MOL   H27325875   7.199   4.196   7.027 -2.2827 -0.4550 -0.0483
   52MOL   H27425876   7.044   4.298   6.850 -1.4782 -0.1946  2.2674
   52MOL   H27525877   7.089   4.538   6.783 -0.4641 -2.6774 -0.8883
   52MOL   H27625878   7.301   4.652   6.860  0.8002 -0.0376  0.3196
   52MOL   C27725879   7.733   4.808   6.780 -0.1516  0.8022 -0.7996
   52MOL   C27825880   7.824   4.876   6.892  0.8932 -1.1535 -0.7790
   52MOL   C27925881   7.973   4.883   6.860 -0.1987 -0.1073  0.0427
   52MOL   C28025882   7.810   4.817   7.034  0.2889  0.1370  0.1353
   52MOL   O28125883   7.732   4.863   7.119  0.5801  0.0925 -0.0616
   52MOL   O28225884   7.886   4.705   7.048  0.5601 -0.0459 -0.0444
   52MOL   C28325885   7.873   4.626   7.158 -0.0205 -0.6243  0.0314
   52MOL   C28425886   7.990   4.531   7.162 -0.1329 -0.0240 -0.1538
   52MOL   C28525887   7.974   4.407   7.233  0.0604  0.3211  0.0602
   52MOL   C28625888   0.081   4.317   7.237 -0.1794 -0.2843  0.4202
   52MOL   C28725889   0.202   4.350   7.167  0.2586  0.6350 -0.8718
   52MOL   C28825890   0.214   4.477   7.104 -0.1095 -0.2448  0.0289
   52MOL   C28925891   0.103   4.567   7.098 -0.2565  0.6953  0.4814
   52MOL   H29025892   7.625   4.825   6.782 -0.7975 -2.9266  1.4155
   52MOL   H29125893   7.785   4.845   6.691 -1.0145  4.8788  0.3337
   52MOL   H29225894   7.991   4.931   6.764 -1.4856 -0.1305 -0.2224
   52MOL   H29325895   0.020   4.791   6.837 -1.0852 -0.4043 -0.9334
   52MOL   H29425896   0.022   4.947   6.927  1.7047  1.5517 -2.9929
   52MOL   H29525897   7.890   4.685   7.249  1.3499 -0.4949 -0.2935
   52MOL   H29625898   7.772   4.586   7.155 -0.4784  0.0817  3.5307
   52MOL   H29725899   7.879   4.386   7.280 -1.1955  2.4629 -1.4092
   52MOL   H29825900   0.074   4.221   7.287 -0.0505 -0.3031  0.4011
   52MOL   H29925901   0.273   4.273   7.144 -1.0912 -0.7681 -0.4364
   52MOL   H30025902   0.305   4.504   7.052 -0.5468  1.0177 -0.1013
   52MOL   H30125903   0.117   4.661   7.047 -1.3778  0.8981  0.5291
   52MOL   C30225904   7.776   5.031   6.902  0.7539  0.6051 -0.2266
   52MOL   C30325905   7.628   5.096   6.870 -0.0386  0.5747 -0.2469
   52MOL   C30425906   7.514   5.027   6.954  0.9392  0.5774  0.4288
   52MOL   C30525907   7.602   5.074   6.719 -0.1138 -0.3572 -0.1172
   52MOL   O30625908   7.504   5.014   6.684 -0.9835  0.2926 -0.4358
   52MOL   O30725909   7.694   5.129   6.637 -0.0489  0.2466  0.0846
   52MOL   C30825910   7.670   5.132   6.494  0.7511  0.1381 -0.7735
   52MOL   C30925911   7.794   5.124   6.415 -0.3096 -0.6231 -0.1466
   52MOL   C31025912   7.859   4.997   6.398 -0.1163 -0.3962 -0.4627
   52MOL   C31125913   7.965   4.986   6.309 -0.2512 -0.1802  0.5934
   52MOL   C31225914   0.009   5.107   6.246 -0.6886 -0.1906 -0.2427
   52MOL   C31325915   7.958   5.234   6.276  0.0492  0.1514  0.2399
   52MOL   C31425916   7.842   5.240   6.354  0.1273  0.1262 -0.6409
   52MOL   H31525917   7.851   5.090   6.850 -0.6102  1.2012 -1.5436
   52MOL   H31625918   7.798   5.058   7.006  0.6270 -1.3988  0.3411
   52MOL   H31725919   7.507   4.918   6.949 -1.6690  0.6230  2.4765
   52MOL   H31825920   7.410   5.053   6.934  1.0399  0.5660 -0.1265
   52MOL   H31925921   7.525   5.051   7.059  1.2086  0.7636  0.3601
   52MOL   H32025922   7.602   5.052   6.465  1.7394 -0.7981 -0.5556
   52MOL   H32125923   7.609   5.221   6.479 -1.3094 -1.0561  0.2815
   52MOL   H32225924   7.815   4.915   6.453  1.2851 -0.7021  0.2463
   52MOL   H32325925   0.016   4.898   6.285 -0.1565 -1.1481  4.0475
   52MOL   H32425926   0.093   5.087   6.182  0.5567 -0.2930  1.4000
   52MOL   H32525927   7.986   5.324   6.224 -2.3127  0.8085  0.0503
   52MOL   H32625928   7.785   5.332   6.363  0.9336  0.5506  0.2092
   52MOL   C32725929   7.640   5.257   6.906  0.7015 -0.0434  0.0980
   52MOL   C32825930   7.514   5.353   6.909  0.4895  0.3055 -0.2995
   52MOL   C32925931   7.412   5.323   6.784 -0.5325  0.2630  0.6501
   52MOL   C33025932   7.574   5.494   6.883  0.3942  0.1693 -0.1649
   52MOL   O33125933   7.527   5.562   6.793 -0.0785  0.3538  0.0652
   52MOL   O33225934   7.668   5.528   6.967 -0.4971 -0.2061 -0.3470
   52MOL   C33325935   7.739   5.655   6.941  0.3629 -0.1345 -0.4589
   52MOL   C33425936   7.868   5.639   7.014  0.2104 -0.2319 -0.2081
   52MOL   C33525937   7.987   5.659   6.947 -0.7151  0.4755 -0.4913
   52MOL   C33625938   0.104   5.622   7.009  0.1602 -0.5290 -0.1573
   52MOL   C33725939   0.101   5.589   7.148 -0.0474 -0.4196  0.4514
   52MOL   C33825940   7.995   5.595   7.225  0.3023  0.4366 -0.4352
   52MOL   C33925941   7.871   5.611   7.154 -0.6830 -0.1465 -0.4293
   52MOL   H34025942   7.706   5.296   6.829 -0.2738  2.1051  0.3089
   52MOL   H34125943   7.705   5.253   6.994  2.5418  0.6436 -1.2089
   52MOL   H34225944   7.341   5.404   6.766  0.3781  0.4315 -2.4019
   52MOL   H34325945   7.353   5.233   6.802 -0.6261  0.0001 -0.9335
   52MOL   H34425946   7.465   5.314   6.690  0.3052  1.3252  1.0121
   52MOL   H34525947   7.758   5.679   6.836  1.8315 -0.1342 -0.2114
   52MOL   H34625948   7.680   5.736   6.983  1.0135  0.2762 -0.3341
   52MOL   H34725949   8.000   5.691   6.845 -1.7304  2.1031 -0.1303
   52MOL   H34825950   0.192   5.626   6.947 -1.0194  0.0898 -1.8323
   52MOL   H34925951   0.195   5.571   7.198  0.3513  2.0209  0.6711
   52MOL   H35025952   8.001   5.570   7.330  0.8303 -2.1090 -1.0557
   52MOL   H35125953   7.790   5.584   7.220 -1.1999 -0.6859 -1.2729
   52MOL   C35225954   7.438   5.353   7.049 -0.2157 -0.0985 -0.8869
   52MOL   C35325955   7.333   5.461   7.107  0.0956 -0.1257  0.1773
   52MOL   C35425956   7.241   5.503   6.987 -0.6554 -0.0640  0.3981
   52MOL   C35525957   7.402   5.589   7.164 -0.8314 -0.1164  0.0773
   52MOL   O35625958   7.520   5.583   7.202  0.2500 -0.0800  0.2881
   52MOL   O35725959   7.328   5.696   7.173 -0.1894 -0.4741 -0.0349
   52MOL   C35825960   7.391   5.819   7.234 -0.3410 -0.5713 -0.0490
   52MOL   C35925961   7.300   5.935   7.232  0.1906 -0.9449  0.0762
   52MOL   C36025962   7.351   6.067   7.218  0.5605 -0.0220  0.1315
   52MOL   C36125963   7.255   6.168   7.187  0.3107 -0.3906  0.2478
   52MOL   C36225964   7.119   6.151   7.191  0.0087 -0.2407 -0.0236
   52MOL   C36325965   7.075   6.022   7.215  0.0679 -1.5448 -0.0016
   52MOL   C36425966   7.162   5.914   7.228  0.5795  0.0530 -0.8581
   52MOL   H36525967   7.522   5.353   7.119  0.6704  0.1254 -1.9266
   52MOL   H36625968   7.395   5.254   7.067  0.9266 -0.4623 -0.0935
   52MOL   H36725969   7.188   5.416   6.947  1.5751 -2.0114  1.5226
   52MOL   H36825970   7.290   5.558   6.907  0.2578 -1.7357 -0.2164
   52MOL   H36925971   7.167   5.569   7.033  2.4523  2.0176  2.6093
   52MOL   H37025972   7.427   5.813   7.337 -1.0678  0.4226  0.2751
   52MOL   H37125973   7.481   5.850   7.181 -0.3672  0.9056  0.7370
   52MOL   H37225974   7.456   6.086   7.231  0.5476 -0.3111  0.6781
   52MOL   H37325975   7.302   6.264   7.172 -0.2984  0.1480  1.7116
   52MOL   H37425976   7.053   6.230   7.160 -1.2934 -0.8384  1.1573
   52MOL   H37525977   6.967   6.008   7.215 -0.0188 -0.9139 -0.4884
   52MOL   H37625978   7.121   5.815   7.241  1.2476  0.1576  2.4497
   52MOL   C37725979   7.236   5.391   7.216  0.5060  1.0349  0.1694
   52MOL   C37825980   7.266   5.378   7.369  0.6313  0.0738  0.4595
   52MOL   C37925981   7.237   5.518   7.435  0.1608  0.5652 -0.2415
   52MOL   C38025982   7.409   5.335   7.404 -0.4450  0.8679  0.1424
   52MOL   O38125983   7.463   5.243   7.340 -0.2169 -0.2888  0.0345
   52MOL   O38225984   7.466   5.404   7.504  0.3934  0.1179  0.6015
   52MOL   C38325985   7.608   5.386   7.527  1.0253 -0.4593  0.5063
   52MOL   C38425986   7.677   5.480   7.618 -0.3708  0.0202  0.8019
   52MOL   C38525987   7.766   5.578   7.569 -0.3839 -0.6910 -0.2879
   52MOL   C38625988   7.827   5.666   7.656  0.1143  0.3604 -0.0148
   52MOL   C38725989   7.795   5.669   7.785  0.3585 -0.5642  0.0884
   52MOL   C38825990   7.696   5.580   7.837  0.9638 -0.0268  0.4311
   52MOL   C38925991   7.635   5.482   7.756 -0.0690 -0.7773 -0.3025
   52MOL   H39025992   7.216   5.291   7.177 -0.2182  0.9418  0.7514
   52MOL   H39125993   7.137   5.434   7.201  0.1636 -0.0122 -0.6900
   52MOL   H39225994   7.203   5.521   7.539  1.2617  0.5614  0.1255
   52MOL   H39325995   7.152   5.561   7.382  0.0989 -0.1661 -0.7545
   52MOL   H39425996   7.316   5.592   7.427 -0.1911  0.8615 -1.0697
   52MOL   H39525997   7.631   5.283   7.554 -1.5623 -1.0006  0.8247
   52MOL   H39625998   7.661   5.402   7.434  0.8015 -0.7436  0.3300
   52MOL   H39725999   7.781   5.594   7.464 -1.5646  1.0940 -0.2075
   52MOL   H39826000   7.910   5.726   7.623  0.9919 -1.5395 -1.3422
   52MOL   H39926001   7.837   5.735   7.859  0.9370 -0.8623  0.0283
   52MOL   H40026002   7.680   5.585   7.944  2.0759  0.7868  0.5703
   52MOL   H40126003   7.563   5.414   7.800 -0.9352 -0.1089 -0.6686
   52MOL   C40226004   7.168   5.278   7.447  0.4732  0.4134 -0.1238
   52MOL   C40326005   7.111   5.144   7.389  0.3516  0.6731  0.1087
   52MOL   C40426006   7.233   5.059   7.337 -0.7024  0.1574  0.3495
   52MOL   C40526007   7.007   5.164   7.271 -0.4426 -0.8315  0.1298
   52MOL   O40626008   6.956   5.278   7.258 -0.1754  0.5410 -0.4147
   52MOL   O40726009   6.972   5.059   7.208 -0.3081  0.0979 -0.1897
   52MOL   C40826010   6.872   5.070   7.114 -0.4685 -0.0838 -0.0480
   52MOL   C40926011   6.818   4.931   7.069 -0.1239  0.1335  0.7909
   52MOL   C41026012   6.703   4.929   6.984  0.6030 -0.3205  0.4062
   52MOL   C41126013   6.638   4.811   6.946  0.1376 -0.2891  0.1726
   52MOL   C41226014   6.697   4.683   6.979 -0.1035  0.1553  0.2221
   52MOL   C41326015   6.816   4.688   7.058  0.6855 -0.6500 -0.4888
   52MOL   C41426016   6.882   4.812   7.089 -0.4606 -0.4616  0.1944
   52MOL   H41526017   7.077   5.336   7.464 -0.5165 -0.5632 -1.9770
   52MOL   H41626018   7.204   5.269   7.550 -0.7672  0.3513  0.3171
   52MOL   H41726019   7.194   4.959   7.317 -1.3861  0.6100 -0.6509
   52MOL   H41826020   7.313   5.051   7.410  0.0112 -2.8011 -0.6903
   52MOL   H41926021   7.274   5.087   7.239 -2.5772 -0.5565 -0.6635
   52MOL   H42026022   6.786   5.129   7.144 -0.0289 -0.4215  1.9207
   52MOL   H42126023   6.915   5.129   7.032 -0.0756  3.0316  2.3227
   52MOL   H42226024   6.650   5.020   6.961  3.6517  0.9713 -1.7338
   52MOL   H42326025   6.542   4.805   6.897 -0.5592  1.4279  1.3023
   52MOL   H42426026   6.650   4.590   6.950 -1.9218  0.8265  0.9152
   52MOL   H42526027   6.871   4.599   7.084 -0.9793 -1.1806  1.3516
   52MOL   H42626028   6.976   4.810   7.142 -0.9721  2.0759  1.2333
   52MOL   C42726029   7.044   5.045   7.498  0.1688  0.3941 -0.2319
   52MOL   C42826030   6.910   5.083   7.579  0.5050  0.0048 -0.0036
   52MOL   C42926031   6.798   5.136   7.485 -0.2952  0.0840  0.2959
   52MOL   C43026032   6.950   5.199   7.675 -0.1519 -0.3177  0.4774
   52MOL   O43126033   6.881   5.302   7.675 -0.2722 -0.7015 -0.2057
   52MOL   O43226034   7.064   5.185   7.754  0.3556  1.1019 -0.3604
   52MOL   C43326035   7.076   5.272   7.859 -0.3403 -0.1080  0.0331
   52MOL   C43426036   7.201   5.245   7.950  0.0274 -0.6175  0.2514
   52MOL   C43526037   7.318   5.328   7.940  0.6993  0.4172 -0.3165
   52MOL   C43626038   7.430   5.298   0.013 -0.7423 -0.5584  0.0682
   52MOL   C43726039   7.431   5.183   0.094 -0.5525 -0.3350 -0.4895
   52MOL   C43826040   7.317   5.105   0.107 -0.7581 -0.6458  0.5359
   52MOL   C43926041   7.202   5.137   0.033 -0.3524  0.5940  0.0261
   52MOL   H44026042   7.116   5.024   7.578 -0.0107  0.3130 -0.0940
   52MOL   H44126043   7.026   4.949   7.451  1.8535  0.5989 -1.3428
   52MOL   H44226044   6.827   5.235   7.449  0.5396  0.0475  0.8591
   52MOL   H44326045   6.701   5.133   7.535 -0.2627 -2.0861  0.2630
   52MOL   H44426046   6.775   5.068   7.403 -0.6721  0.8610 -0.2399
   52MOL   H44526047   7.069   5.377   7.830 -0.4169  0.6551  2.7127
   52MOL   H44626048   6.988   5.270   7.922 -0.2087  1.9195  0.2998
   52MOL   H44726049   7.314   5.417   7.879  0.4224 -1.0004 -2.4117
   52MOL   H44826050   7.513   5.367   0.005 -1.4562  0.4935  1.4346
   52MOL   H44926051   7.523   5.158   0.145  0.1155 -0.5373 -1.7677
   52MOL   H45026052   7.310   5.019   0.172  3.0536 -0.2950  1.5475
   52MOL   H45126053   7.119   5.069   0.037 -0.8357  1.1222 -0.8308
   52MOL   C45226054   6.863   4.954   7.660  0.3469 -0.2686 -0.3666
   52MOL   C45326055   6.761   4.939   7.782 -0.6821  0.2390 -0.2518
   52MOL   C45426056   6.744   4.783   7.784 -0.4047 -0.5376  0.2843
   52MOL   C45526057   6.624   5.005   7.773  0.0104 -0.9084  0.2899
   52MOL   O45626058   6.526   4.936   7.740  0.2497  0.1177  0.1054
   52MOL   O45726059   6.623   5.132   7.809 -0.2808 -0.1476  0.3480
   52MOL   C45826060   6.499   5.196   7.783  0.2624  0.4318 -1.0068
   52MOL   C45926061   6.495   5.345   7.828 -0.1303 -0.5699  0.9435
   52MOL   C46026062   6.589   5.403   7.915 -0.1483  0.7319 -0.4940
   52MOL   C46126063   6.583   5.538   7.945  0.2204 -0.3020  0.0150
   52MOL   C46226064   6.476   5.615   7.898 -0.7217 -0.4962  0.1428
   52MOL   C46326065   6.376   5.562   7.816 -0.8929  0.0375 -0.3913
   52MOL   C46426066   6.391   5.431   7.783 -0.2728  0.4631 -0.6015
   52MOL   H46526067   6.959   4.909   7.683  0.2574  0.7455  2.0762
   52MOL   H46626068   6.807   4.903   7.581  0.7609 -0.8473 -0.2916
   52MOL   H46726069   6.700   4.739   7.695 -0.2419 -1.4266  0.6402
   52MOL   H46826070   6.688   4.738   7.866  2.4621 -1.7138  1.6664
   52MOL   H46926071   6.842   4.738   7.802 -0.4691 -1.1447 -0.8590
   52MOL   H47026072   6.465   5.190   7.680 -1.6329  2.0182 -0.5048
   52MOL   H47126073   6.418   5.162   7.848  1.8786 -1.5963  0.0165
   52MOL   H47226074   6.667   5.340   7.955  1.6596  3.3693  0.2720
   52MOL   H47326075   6.654   5.571   0.012 -2.7320  0.0617  2.8265
   52MOL   H47426076   6.469   5.716   7.937 -0.3383 -1.0181  1.6013
   52MOL   H47526077   6.289   5.614   7.777 -0.8898 -0.1810 -0.6860
   52MOL   H47626078   6.316   5.377   7.725 -1.0582 -0.5610  1.3059
   52MOL   C47726079   6.828   4.977   7.912 -1.2413  0.0188  0.1719
   52MOL   C47826080   6.761   4.944   0.039 -0.4166  0.1750  0.1116
   52MOL   C47926081   6.747   5.072   0.125 -0.2445 -0.4770  0.5838
   52MOL   C48026082   6.838   4.844   0.125  0.2996  0.1657  0.8914
   52MOL   O48126083   6.776   4.744   0.163 -0.4012  0.6636  0.4706
   52MOL   O48226084   6.966   4.886   0.162 -0.2731  0.3940  0.6007
   52MOL   C48326085   7.062   4.792   0.206  0.0302  0.2533  0.0197
   52MOL   C48426086   7.096   4.801   0.353  0.6182  0.0041  0.2803
   52MOL   C48526087   7.094   4.679   0.419  0.0117  0.5798  0.3257
   52MOL   C48626088   7.122   4.673   0.559  0.7415 -0.3528  0.7301
   52MOL   C48726089   7.164   4.789   0.630 -0.6263  0.1645 -0.2692
   52MOL   C48826090   7.151   4.909   0.558 -0.5183  0.0430 -0.8827
   52MOL   C48926091   7.115   4.916   0.424 -0.3871  0.6408 -1.0914
   52MOL   H49026092   6.850   5.084   7.914  1.7330 -0.5424  1.5436
   52MOL   H49126093   6.927   4.931   7.911 -2.1926 -2.1141  0.9502
   52MOL   H49226094   6.843   5.108   0.161 -0.3679 -0.1725  0.6073
   52MOL   H49326095   6.698   5.036   0.216 -0.2647  0.1710  0.8348
   52MOL   H49426096   6.679   5.141   0.076  0.2119 -1.4893 -1.4951
   52MOL   H49526097   7.037   4.690   0.175 -1.2246  0.3125  0.8196
   52MOL   H49626098   7.151   4.826   0.152  0.5210 -1.0313 -0.0097
   52MOL   H49726099   7.057   4.590   0.371  0.7907  0.4786 -0.0987
   52MOL   H49826100   7.124   4.581   0.615 -0.7673 -0.3527  0.8178
   52MOL   H49926101   7.211   4.790   0.727 -2.6631  0.0489  0.7525
   52MOL   H50026102   7.165   4.995   0.623 -3.2195 -0.3822  0.3487
   52MOL   H50126103   7.094   5.008   0.371 -0.4143  0.3056 -1.6581
   52MOL   H50226104   6.662   4.902   0.025 -0.2138 -0.3234  0.1892
   53MOL     C126105   5.001   7.256   2.435 -0.1980  0.0838 -0.4612
   53MOL     C226106   4.939   7.130   2.368  0.0180 -0.3997 -0.0763
   53MOL     C326107   5.017   7.115   2.234 -0.7729  0.5724 -0.4573
   53MOL     C426108   4.786   7.159   2.336 -0.1514  0.6746  0.3062
   53MOL     O526109   4.719   7.217   2.419  0.3036  0.5929  0.3449
   53MOL     O626110   4.740   7.096   2.222  0.6794 -0.0555 -0.3998
   53MOL     C726111   4.605   7.103   2.190  0.0654 -0.0578 -0.9050
   53MOL     C826112   4.573   7.038   2.060  1.0344 -0.9782  0.4319
   53MOL     C926113   4.535   6.905   2.045  0.3365  0.3576  0.3229
   53MOL    C1026114   4.478   6.860   1.928  0.2596 -0.0028 -0.8246
   53MOL    C1126115   4.488   6.935   1.809  0.2415 -0.8265  0.2793
   53MOL    C1226116   4.527   7.070   1.821  0.2294  0.2068 -0.5224
   53MOL    C1326117   4.568   7.119   1.947 -0.6487 -0.2760 -0.0033
   53MOL    H1426118   5.100   7.236   2.475  0.2064  0.8089 -1.0768
   53MOL    H1526119   4.996   7.348   2.376  0.2680 -0.7034 -1.7505
   53MOL    H1626120   4.971   7.058   2.152  3.0706 -1.6227 -1.2129
   53MOL    H1726121   5.117   7.078   2.257 -1.3052 -0.1298  0.7664
   53MOL    H1826122   5.033   7.215   2.193  2.6196 -0.0220 -0.6927
   53MOL    H1926123   4.538   7.056   2.263 -3.4778  1.5624 -2.9561
   53MOL    H2026124   4.575   7.207   2.177  1.0348  0.4627  0.8104
   53MOL    H2126125   4.524   6.846   2.135 -0.5930 -0.0659 -0.0543
   53MOL    H2226126   4.445   6.757   1.929  0.2272  0.0119 -0.3822
   53MOL    H2326127   4.457   6.903   1.711  0.1631 -2.6317  0.8747
   53MOL    H2426128   4.514   7.134   1.735  0.9724 -1.5805 -1.9904
   53MOL    H2526129   4.590   7.225   1.951 -1.2670 -0.0766 -1.4444
   53MOL    H2626130   4.938   7.285   2.519  0.9326 -2.0132  1.1375
   53MOL    C2726131   4.963   7.007   2.461 -0.2609 -0.1731 -0.1003
   53MOL    C2826132   4.887   6.874   2.449  1.2025 -0.5756  0.2359
   53MOL    C2926133   4.885   6.815   2.303  0.4335 -0.8214  0.9012
   53MOL    C3026134   4.734   6.889   2.496 -0.2801  0.3926  0.0236
   53MOL    O3126135   4.635   6.872   2.425 -0.3341 -0.2142 -0.2123
   53MOL    O3226136   4.735   6.916   2.628  0.3005  0.2843 -0.2493
   53MOL    C3326137   4.616   6.927   2.696  0.4986 -0.5075  0.1335
   53MOL    C3426138   4.637   7.000   2.827  0.3121  0.2072  0.4375
   53MOL    C3526139   4.715   6.930   2.923  0.6091  0.4892 -0.1470
   53MOL    C3626140   4.741   6.992   3.049 -0.1904  0.0697  0.1411
   53MOL    C3726141   4.679   7.118   3.081 -0.5758  0.0137  0.6557
   53MOL    C3826142   4.598   7.185   2.987  0.9093 -0.2032 -0.7491
   53MOL    C3926143   4.583   7.128   2.851  0.4589 -0.3006 -0.2371
   53MOL    H4026144   4.944   7.047   2.561  0.5617  1.7238 -0.6789
   53MOL    H4126145   5.070   6.988   2.458 -0.5856 -2.0023 -0.6223
   53MOL    H4226146   4.983   6.806   2.256 -0.2182 -2.3323 -0.1767
   53MOL    H4326147   4.838   6.884   2.232  0.0517 -2.2011 -0.1985
   53MOL    H4426148   4.834   6.719   2.302  2.1727 -1.7385 -1.5549
   53MOL    H4526149   4.532   6.980   2.651 -0.8593 -1.3331  1.6335
   53MOL    H4626150   4.573   6.829   2.714  0.3527  0.0033  2.7742
   53MOL    H4726151   4.775   6.848   2.888  1.8126 -0.0745  3.0580
   53MOL    H4826152   4.818   6.963   3.119 -0.9132 -0.6340  0.6493
   53MOL    H4926153   4.697   7.166   3.176  0.5173 -1.8053  1.3967
   53MOL    H5026154   4.558   7.280   3.021 -3.1299 -2.4317  1.0756
   53MOL    H5126155   4.533   7.182   2.773  0.5206 -1.1666 -0.8817
   53MOL    C5226156   4.951   6.767   2.549 -0.0229 -0.3122  0.7892
   53MOL    C5326157   5.059   6.663   2.512  0.6086 -0.2733  0.0652
   53MOL    C5426158   5.180   6.735   2.444 -0.6165  0.1387  0.3629
   53MOL    C5526159   5.000   6.547   2.435  0.5618  0.3773 -0.3118
   53MOL    O5626160   5.050   6.510   2.330 -0.0768  0.2137  0.3958
   53MOL    O5726161   4.892   6.492   2.486  0.0603  0.1669 -0.1501
   53MOL    C5826162   4.800   6.419   2.405 -0.0219 -0.1147 -0.9898
   53MOL    C5926163   4.655   6.470   2.419  0.4272 -0.5393  0.5598
   53MOL    C6026164   4.616   6.531   2.543 -0.1309 -0.6360  0.3943
   53MOL    C6126165   4.483   6.576   2.552  0.5900  0.4946 -0.1221
   53MOL    C6226166   4.388   6.571   2.446 -0.0087  0.2635 -0.4254
   53MOL    C6326167   4.430   6.509   2.324  0.5876  0.2655  0.3228
   53MOL    C6426168   4.562   6.453   2.311 -0.5209  0.5528 -0.3097
   53MOL    H6526169   4.861   6.717   2.585 -1.6348  0.6391 -1.7491
   53MOL    H6626170   4.984   6.829   2.633  0.0038  1.6531 -0.6199
   53MOL    H6726171   5.237   6.789   2.519 -0.2136 -1.1876  1.0375
   53MOL    H6826172   5.159   6.796   2.356 -1.4325  0.7667  0.9871
   53MOL    H6926173   5.253   6.661   2.410 -0.9031 -1.1604  2.4183
   53MOL    H7026174   4.821   6.435   2.300  1.2717 -0.4303 -0.7860
   53MOL    H7126175   4.811   6.312   2.418  0.1479  0.1613  1.3457
   53MOL    H7226176   4.682   6.571   2.618 -1.6618  1.3294  0.7224
   53MOL    H7326177   4.448   6.637   2.634  1.6677  3.1246 -1.5509
   53MOL    H7426178   4.285   6.592   2.468 -0.1231 -1.4104  0.7084
   53MOL    H7526179   4.356   6.507   2.245 -1.2657  0.7037  2.0316
   53MOL    H7626180   4.596   6.403   2.221  1.4064  2.3522 -0.6291
   53MOL    C7726181   5.111   6.620   2.657 -0.1921  0.1919  1.1174
   53MOL    C7826182   5.206   6.492   2.691 -0.1565 -0.7805 -0.0032
   53MOL    C7926183   5.334   6.508   2.606  0.2640 -0.1803  0.1572
   53MOL    C8026184   5.150   6.356   2.664  0.4894  0.1297  0.3017
   53MOL    O8126185   5.211   6.276   2.599 -1.1183  0.3278  0.3793
   53MOL    O8226186   5.022   6.335   2.688 -0.0324  0.0422 -0.2123
   53MOL    C8326187   4.965   6.211   2.658 -0.3916  0.2932 -0.0699
   53MOL    C8426188   4.812   6.208   2.675  0.0652 -0.0876  0.0416
   53MOL    C8526189   4.742   6.297   2.765  0.3632 -0.7077  0.1930
   53MOL    C8626190   4.604   6.282   2.790 -0.4756  0.6137 -0.1604
   53MOL    C8726191   4.535   6.179   2.717 -0.1226 -0.4778  0.1636
   53MOL    C8826192   4.608   6.092   2.633 -0.6752 -0.4236  0.2429
   53MOL    C8926193   4.746   6.107   2.607  0.2323  0.7756 -0.2228
   53MOL    H9026194   5.021   6.591   2.711  0.6250  1.1343  3.0079
   53MOL    H9126195   5.139   6.713   2.706  0.6531  1.0009 -0.8409
   53MOL    H9226196   5.321   6.490   2.499 -0.1215 -0.7360  0.2932
   53MOL    H9326197   5.403   6.433   2.645  1.3604  1.4774  1.4625
   53MOL    H9426198   5.377   6.606   2.624  0.8224 -0.2125 -0.9456
   53MOL    H9526199   4.998   6.186   2.557 -0.7997 -0.2220 -0.0790
   53MOL    H9626200   5.013   6.133   2.716  0.7122 -1.1841 -2.8409
   53MOL    H9726201   4.804   6.375   2.807  0.8784  0.2317 -2.2107
   53MOL    H9826202   4.543   6.328   2.866 -1.6212  0.3140 -0.8923
   53MOL    H9926203   4.430   6.154   2.717 -0.0742 -0.7148 -1.2693
   53MOL   H10026204   4.552   6.010   2.589 -2.3014  1.0694 -0.5406
   53MOL   H10126205   4.797   6.046   2.534  0.5140 -0.4296  0.9698
   53MOL   C10226206   5.248   6.493   2.849  0.2908 -0.0405  0.3188
   53MOL   C10326207   5.158   6.512   2.981  0.2776 -0.0047 -0.0556
   53MOL   C10426208   5.039   6.414   2.971  0.0531  0.1988 -0.1821
   53MOL   C10526209   5.111   6.658   2.984  0.2022 -0.5458  0.9786
   53MOL   O10626210   4.994   6.691   3.004 -0.3385  0.3224  0.3794
   53MOL   O10726211   5.204   6.745   2.983  0.3223 -0.0254 -0.4803
   53MOL   C10826212   5.172   6.882   3.013 -0.2688  0.2169 -0.0497
   53MOL   C10926213   5.300   6.970   3.011  0.1818 -0.3052  0.1730
   53MOL   C11026214   5.308   7.093   3.076 -0.5870  0.2026 -0.5706
   53MOL   C11126215   5.424   7.176   3.067  0.5734 -0.2937  0.3865
   53MOL   C11226216   5.530   7.141   2.989  0.2992 -0.5508 -0.7855
   53MOL   C11326217   5.521   7.017   2.923  0.1557 -0.4532  0.1650
   53MOL   C11426218   5.407   6.932   2.929 -0.1104 -0.2723 -0.0528
   53MOL   H11526219   5.328   6.564   2.870 -0.8810  0.5884  2.8371
   53MOL   H11626220   5.311   6.407   2.869  0.3530  0.2401  1.3289
   53MOL   H11726221   4.972   6.408   3.057  1.3064  0.1584  0.8101
   53MOL   H11826222   5.072   6.317   2.933  1.7118 -0.1438  2.0176
   53MOL   H11926223   4.972   6.447   2.891  0.4666 -1.0937 -1.0768
   53MOL   H12026224   5.098   6.929   2.947 -0.3361  1.7313  1.0941
   53MOL   H12126225   5.124   6.896   3.110 -0.5918 -1.1892  0.0038
   53MOL   H12226226   5.229   7.126   3.142 -1.6369  0.0950 -1.7560
   53MOL   H12326227   5.426   7.270   3.120 -1.4325 -0.6906  1.1966
   53MOL   H12426228   5.617   7.204   2.976 -0.7739  1.4155  1.2644
   53MOL   H12526229   5.600   6.998   2.852  1.4242  2.5991  0.7000
   53MOL   H12626230   5.402   6.836   2.879 -1.0930 -0.7211  0.8783
   53MOL   C12726231   5.260   6.484   3.104 -0.4930 -0.4013  0.0325
   53MOL   C12826232   5.211   6.453   3.248 -0.1222 -0.4621  0.4123
   53MOL   C12926233   5.170   6.307   3.260 -0.5634 -0.0023  0.2913
   53MOL   C13026234   5.093   6.542   3.285 -0.1635 -0.2779  0.1133
   53MOL   O13126235   4.988   6.493   3.316 -0.4003  0.0541 -0.2572
   53MOL   O13226236   5.115   6.676   3.289 -0.7115  0.2998 -0.2499
   53MOL   C13326237   5.009   6.769   3.318 -0.2468 -0.1027 -0.5311
   53MOL   C13426238   5.061   6.899   3.364 -0.3488  0.1788  0.0755
   53MOL   C13526239   5.189   6.910   3.420 -0.4772 -0.1405 -0.2311
   53MOL   C13626240   5.233   7.037   3.472 -0.3923  0.1660 -0.0549
   53MOL   C13726241   5.154   7.152   3.455 -0.3375  0.1930 -0.4173
   53MOL   C13826242   5.023   7.142   3.405 -0.2234  0.0858  0.2884
   53MOL   C13926243   4.982   7.019   3.350  0.2445 -0.7479  0.7655
   53MOL   H14026244   5.333   6.565   3.103 -1.8618  0.8563 -1.5409
   53MOL   H14126245   5.319   6.396   3.078 -0.4809 -0.4677  0.2826
   53MOL   H14226246   5.257   6.241   3.260 -0.4396  0.1633 -0.3829
   53MOL   H14326247   5.106   6.284   3.176  2.0123 -0.6407 -1.5627
   53MOL   H14426248   5.121   6.283   3.354 -1.4610 -0.4170 -0.2822
   53MOL   H14526249   4.950   6.787   3.228  0.2947 -1.8426 -1.2699
   53MOL   H14626250   4.945   6.728   3.396  0.1130  1.0298  0.3611
   53MOL   H14726251   5.244   6.824   3.456  1.3804  0.4311 -1.5821
   53MOL   H14826252   5.326   7.034   3.526 -0.8829  0.6137  0.8236
   53MOL   H14926253   5.189   7.251   3.481  0.8759 -0.3841  0.1774
   53MOL   H15026254   4.966   7.234   3.402 -0.7587 -0.2541 -0.1437
   53MOL   H15126255   4.882   7.006   3.311 -0.0404 -2.8259  2.0889
   53MOL   C15226256   5.337   6.479   3.335  0.6235 -0.0377  0.2846
   53MOL   C15326257   5.379   6.437   3.479 -1.1339  1.1173  0.2124
   53MOL   C15426258   5.401   6.282   3.476  0.1417 -0.5966 -0.1484
   53MOL   C15526259   5.273   6.468   3.590  0.6223  0.1014 -0.1560
   53MOL   O15626260   5.193   6.562   3.574  0.6106 -0.0079  0.1929
   53MOL   O15726261   5.290   6.398   3.707 -0.1570 -0.1769 -0.4197
   53MOL   C15826262   5.185   6.382   3.802  0.2855 -0.0867 -0.6159
   53MOL   C15926263   5.077   6.285   3.754  1.0791 -1.0968  1.0367
   53MOL   C16026264   4.983   6.331   3.666  0.0706  0.1468 -0.2257
   53MOL   C16126265   4.875   6.244   3.630 -0.9118  0.1561  0.0745
   53MOL   C16226266   4.868   6.111   3.685  0.8016  0.2082  0.5201
   53MOL   C16326267   4.966   6.067   3.777 -0.8546  0.0786  0.3949
   53MOL   C16426268   5.072   6.157   3.809  0.2021 -0.1494 -0.2336
   53MOL   H16526269   5.322   6.586   3.346 -2.5446 -0.3588 -0.4871
   53MOL   H16626270   5.424   6.461   3.271 -0.4955 -1.9538 -0.7295
   53MOL   H16726271   5.313   6.217   3.486 -0.2180 -0.4099 -2.0120
   53MOL   H16826272   5.459   6.253   3.563 -1.8182  1.2171  1.8516
   53MOL   H16926273   5.450   6.250   3.384  1.1450 -3.1262  1.2021
   53MOL   H17026274   5.230   6.341   3.893  0.0115 -2.1834 -1.3993
   53MOL   H17126275   5.139   6.478   3.820 -1.4646 -0.7687 -1.3934
   53MOL   H17226276   4.999   6.429   3.623  0.6598  0.3123  0.3653
   53MOL   H17326277   4.800   6.287   3.565 -3.5542 -1.7835  1.7227
   53MOL   H17426278   4.785   6.050   3.653  0.3465  1.9558 -1.8294
   53MOL   H17526279   4.958   5.965   3.809 -1.2568 -0.3134 -0.8947
   53MOL   H17626280   5.138   6.119   3.885 -0.7273 -1.8596 -0.2468
   53MOL   C17726281   5.525   6.480   3.503 -0.3198  0.3384  0.2502
   53MOL   C17826282   5.585   6.623   3.504 -0.0077  0.2344  0.5289
   53MOL   C17926283   5.502   6.694   3.617 -1.0487 -0.5041  0.1903
   53MOL   C18026284   5.561   6.706   3.372  0.4995 -0.4528 -0.2144
   53MOL   O18126285   5.532   6.825   3.377  0.4732  0.3889 -0.4089
   53MOL   O18226286   5.589   6.641   3.249 -0.3365 -0.0084 -0.4667
   53MOL   C18326287   5.578   6.713   3.126 -0.5650  0.4347 -0.3436
   53MOL   C18426288   5.632   6.638   3.005  0.0966  0.0167  0.5329
   53MOL   C18526289   5.694   6.705   2.894  0.4994 -0.0278  0.6732
   53MOL   C18626290   5.711   6.638   2.771  0.0749  0.5486 -0.4863
   53MOL   C18726291   5.675   6.503   2.755  0.2758 -0.2008  0.1971
   53MOL   C18826292   5.630   6.433   2.869  0.3005 -0.0229  0.3772
   53MOL   C18926293   5.605   6.501   2.993  1.2181 -0.5648 -0.0338
   53MOL   H19026294   5.582   6.433   3.423  0.0067  0.1146  0.6152
   53MOL   H19126295   5.555   6.440   3.599  0.3986 -0.6931 -0.3910
   53MOL   H19226296   5.473   6.638   3.706 -2.1960 -1.5383 -0.7992
   53MOL   H19326297   5.417   6.753   3.583 -1.4549 -0.7275  0.8266
   53MOL   H19426298   5.566   6.774   3.652 -1.6013  0.3143 -0.6593
   53MOL   H19526299   5.471   6.711   3.101 -0.7270  2.0493  0.1470
   53MOL   H19626300   5.608   6.818   3.133  1.1583  0.1308 -2.6596
   53MOL   H19726301   5.697   6.813   2.901 -2.8114  0.1390  0.6218
   53MOL   H19826302   5.734   6.695   2.682 -0.1041  0.3146 -0.6816
   53MOL   H19926303   5.678   6.455   2.658 -2.1874  0.4754 -0.2463
   53MOL   H20026304   5.613   6.327   2.855  2.0879 -0.5568  2.0024
   53MOL   H20126305   5.578   6.452   3.085  1.7941  1.6601  1.3429
   53MOL   C20226306   5.732   6.612   3.551  0.0795 -0.5776  0.1107
   53MOL   C20326307   5.865   6.587   3.462  0.3113 -0.1614 -0.2731
   53MOL   C20426308   5.841   6.463   3.388  0.2450  0.2506  0.2213
   53MOL   C20526309   5.983   6.554   3.559 -0.3262 -0.4886  0.2363
   53MOL   O20626310   5.970   6.580   3.678 -0.3804 -0.3015 -0.0901
   53MOL   O20726311   6.094   6.506   3.501  0.3996 -0.4208  0.3348
   53MOL   C20826312   6.183   6.440   3.588 -0.7416  0.4956 -0.4229
   53MOL   C20926313   6.250   6.320   3.519  0.2580  0.4085  0.3330
   53MOL   C21026314   6.208   6.272   3.393  0.1161 -0.1416 -0.2232
   53MOL   C21126315   6.273   6.166   3.325  0.9286  0.1865 -0.4427
   53MOL   C21226316   6.395   6.108   3.380  0.4424 -0.0825  0.0009
   53MOL   C21326317   6.424   6.144   3.512 -0.3627  0.0741 -0.8068
   53MOL   C21426318   6.358   6.250   3.580  0.2763 -0.1322 -0.1285
   53MOL   H21526319   5.730   6.549   3.640 -0.6295  0.3228  0.7431
   53MOL   H21626320   5.754   6.711   3.592  0.3210 -1.5192  2.3130
   53MOL   H21726321   5.758   6.456   3.318  1.0258 -0.2810 -0.6635
   53MOL   H21826322   5.815   6.376   3.449  1.2224 -0.7944 -0.8252
   53MOL   H21926323   5.924   6.439   3.321 -0.7921  0.4271 -1.1520
   53MOL   H22026324   6.266   6.500   3.623 -0.5934 -0.5810  1.1259
   53MOL   H22126325   6.137   6.404   3.680  2.1495  1.6939  1.5435
   53MOL   H22226326   6.120   6.307   3.340 -1.6386  0.7969  3.1782
   53MOL   H22326327   6.235   6.139   3.227  1.3538  0.4388 -0.6793
   53MOL   H22426328   6.449   6.034   3.323  0.1166  0.5260 -1.1115
   53MOL   H22526329   6.497   6.088   3.568 -0.0839 -0.3232 -1.5670
   53MOL   H22626330   6.394   6.279   3.678  0.7272 -0.0933 -0.3077
   53MOL   C22726331   5.898   6.716   3.371 -0.0206 -0.2441  0.8470
   53MOL   C22826332   6.035   6.751   3.295 -0.4731  0.3930  0.8361
   53MOL   C22926333   6.081   6.626   3.213 -0.3041  0.3269 -0.5551
   53MOL   C23026334   6.150   6.792   3.392 -0.2929  0.3733  0.0230
   53MOL   O23126335   6.111   6.822   3.506 -0.2874  0.0537  0.1038
   53MOL   O23226336   6.278   6.804   3.340  0.6403 -0.6012 -0.1673
   53MOL   C23326337   6.392   6.839   3.419 -0.3273  0.0150  0.1154
   53MOL   C23426338   6.464   6.718   3.468  0.1876  0.3190 -0.0586
   53MOL   C23526339   6.525   6.711   3.593  0.2728  0.1895 -0.5803
   53MOL   C23626340   6.594   6.594   3.632 -0.0967  0.3776 -0.0465
   53MOL   C23726341   6.604   6.485   3.540  0.2835  0.3128  0.1676
   53MOL   C23826342   6.531   6.494   3.420  0.3167 -0.2688  0.4740
   53MOL   C23926343   6.466   6.611   3.380  0.1052 -0.8335  0.4504
   53MOL   H24026344   5.885   6.807   3.430 -2.1580  1.0870 -1.5932
   53MOL   H24126345   5.819   6.730   3.297 -0.1666  1.5011  1.3011
   53MOL   H24226346   6.163   6.655   3.148  1.0424 -0.4673  0.7518
   53MOL   H24326347   5.997   6.586   3.156  0.5189  0.3941 -1.8454
   53MOL   H24426348   6.127   6.541   3.264  0.1982  0.6180 -0.5246
   53MOL   H24526349   6.460   6.889   3.351 -1.0198  1.1229  0.2195
   53MOL   H24626350   6.369   6.904   3.503 -1.2081  0.8310 -0.7343
   53MOL   H24726351   6.513   6.790   3.666 -0.2837 -1.2816  0.9365
   53MOL   H24826352   6.627   6.575   3.733  0.8360  0.0342 -0.4059
   53MOL   H24926353   6.631   6.386   3.575  1.6878  1.1640  1.5799
   53MOL   H25026354   6.534   6.403   3.362  1.3685 -0.1690  0.3613
   53MOL   H25126355   6.408   6.610   3.289 -1.3243 -2.0077  1.3469
   53MOL   C25226356   6.014   6.857   3.195 -0.3325 -0.4435  0.1297
   53MOL   C25326357   5.949   7.000   3.214  1.2685 -0.2515  0.6537
   53MOL   C25426358   5.795   6.990   3.202 -0.1448  0.1812 -0.3965
   53MOL   C25526359   5.989   7.083   3.092  0.2247 -0.1965  0.4789
   53MOL   O25626360   5.907   7.110   3.003 -0.1622  0.1644 -0.0820
   53MOL   O25726361   6.121   7.111   3.085  0.1401 -0.0360  0.8750
   53MOL   C25826362   6.176   7.171   2.966 -0.2118  0.4110  0.3951
   53MOL   C25926363   6.309   7.110   2.926 -0.7332 -0.6589 -0.1060
   53MOL   C26026364   6.375   7.141   2.802  0.1177 -0.7322 -0.1937
   53MOL   C26126365   6.481   7.058   2.760  0.1091  0.1696  0.2950
   53MOL   C26226366   6.547   6.973   2.851 -0.0633 -0.0636 -0.5393
   53MOL   C26326367   6.497   6.953   2.981  0.0785  0.0991  0.6602
   53MOL   C26426368   6.377   7.017   3.016 -0.1924  0.8229  0.1807
   53MOL   H26526369   5.961   6.818   3.109 -0.5427  0.2138 -0.0393
   53MOL   H26626370   6.111   6.866   3.145  0.2407 -0.4575  1.2160
   53MOL   H26726371   5.739   7.083   3.199 -0.0206  0.2785  0.1477
   53MOL   H26826372   5.760   6.955   3.300  0.2704 -0.6451 -0.5365
   53MOL   H26926373   5.760   6.923   3.124 -0.8174  0.3271 -0.2221
   53MOL   H27026374   6.107   7.152   2.884 -0.0096  0.4137  0.2244
   53MOL   H27126375   6.190   7.279   2.973  2.6508  0.0069  1.1094
   53MOL   H27226376   6.333   7.206   2.727 -0.6308 -1.8962 -0.8133
   53MOL   H27326377   6.521   7.078   2.662 -2.5907  0.6365 -0.7565
   53MOL   H27426378   6.635   6.921   2.816 -0.0444 -0.8855  0.7110
   53MOL   H27526379   6.560   6.905   3.054  1.9382 -0.2326 -1.1180
   53MOL   H27626380   6.345   6.996   3.117 -1.8050  0.2283 -0.4322
   53MOL   C27726381   5.993   7.080   3.341  0.1707 -0.1250  0.4837
   53MOL   C27826382   5.967   7.240   3.361  0.2183 -0.1953  0.1620
   53MOL   C27926383   5.832   7.294   3.308 -0.1038 -0.0416  0.1313
   53MOL   C28026384   6.091   7.321   3.303 -0.8518 -0.0236  0.1070
   53MOL   O28126385   6.082   7.417   3.225  0.2332  0.0647  0.2326
   53MOL   O28226386   6.202   7.261   3.344 -0.3533  0.0428  0.3703
   53MOL   C28326387   6.326   7.306   3.309  0.1907  0.2422 -0.3425
   53MOL   C28426388   6.445   7.229   3.368  0.0750 -0.3034  0.0666
   53MOL   C28526389   6.452   7.201   3.506  0.1377 -0.2673 -0.1358
   53MOL   C28626390   6.566   7.145   3.565 -0.7959 -0.3602  0.2032
   53MOL   C28726391   6.680   7.124   3.483  0.0145  0.1678 -0.3228
   53MOL   C28826392   6.675   7.148   3.343 -0.2657 -0.2251  0.0033
   53MOL   C28926393   6.556   7.205   3.289  0.0369 -0.5197  0.3501
   53MOL   H29026394   6.100   7.066   3.350  0.3527 -0.7890 -2.3214
   53MOL   H29126395   5.951   7.020   3.422  1.4190 -1.5038  0.1121
   53MOL   H29226396   5.755   7.237   3.359 -0.5506  1.5550  1.2405
   53MOL   H29326397   5.809   7.290   3.201  2.4318  0.2789 -0.4597
   53MOL   H29426398   5.827   7.397   3.341 -0.4200 -0.6217  1.9495
   53MOL   H29526399   6.349   7.285   3.205 -4.2469 -0.0541 -1.3478
   53MOL   H29626400   6.346   7.413   3.321  0.2631  0.4124 -1.9720
   53MOL   H29726401   6.366   7.233   3.563 -0.5165  0.0645 -1.2806
   53MOL   H29826402   6.577   7.134   3.672  0.5591 -1.3334 -0.0158
   53MOL   H29926403   6.773   7.087   3.523 -0.1576  0.8539  0.7418
   53MOL   H30026404   6.769   7.132   3.293  0.2738  0.1453  0.8948
   53MOL   H30126405   6.555   7.228   3.184 -0.3388 -0.2070  0.4193
   53MOL   C30226406   5.964   7.257   3.515 -0.1957 -0.4556  0.8888
   53MOL   C30326407   5.923   7.381   3.601  0.2902 -0.4431  0.5955
   53MOL   C30426408   5.770   7.374   3.611  0.8823 -0.0282 -0.2355
   53MOL   C30526409   5.980   7.511   3.534 -0.1504 -0.6752 -0.7458
   53MOL   O30626410   5.908   7.606   3.497 -0.6463  0.1870 -0.1222
   53MOL   O30726411   6.111   7.517   3.538  0.3800  0.5791  0.4658
   53MOL   C30826412   6.183   7.626   3.484  0.2475  0.3271  0.1581
   53MOL   C30926413   6.339   7.616   3.486  0.2436  0.1157  0.1566
   53MOL   C31026414   6.394   7.542   3.585  0.6026 -0.1201  0.0669
   53MOL   C31126415   6.532   7.523   3.580 -0.6163 -0.1337 -0.3291
   53MOL   C31226416   6.611   7.585   3.481 -0.5542 -0.1955 -0.2564
   53MOL   C31326417   6.552   7.657   3.381  0.3100  0.3357 -0.5235
   53MOL   C31426418   6.413   7.677   3.385 -0.3911 -0.5010  0.4682
   53MOL   H31526419   6.067   7.238   3.544  0.2824  2.0563  0.9200
   53MOL   H31626420   5.913   7.168   3.551 -0.1970 -0.7209  0.2482
   53MOL   H31726421   5.730   7.447   3.682  2.7165  2.3367 -1.5702
   53MOL   H31826422   5.740   7.271   3.628  0.3909 -0.2469 -2.2861
   53MOL   H31926423   5.721   7.400   3.517 -0.2627  0.2838  0.4336
   53MOL   H32026424   6.150   7.645   3.382  0.6217  0.7700  0.1165
   53MOL   H32126425   6.155   7.714   3.541 -3.2770 -1.1999  0.9140
   53MOL   H32226426   6.345   7.496   3.670  1.1325 -0.3707  0.2349
   53MOL   H32326427   6.580   7.462   3.654 -1.1951  1.3740  1.3112
   53MOL   H32426428   6.719   7.581   3.484 -0.5810 -0.2399  1.2618
   53MOL   H32526429   6.611   7.700   3.302  2.0153 -1.1761 -0.1023
   53MOL   H32626430   6.361   7.735   3.310 -3.4203  0.0933  2.9020
   53MOL   C32726431   5.986   7.374   3.746  0.3429 -0.8015 -0.0976
   53MOL   C32826432   5.946   7.461   3.875  0.0338  0.1199  0.0604
   53MOL   C32926433   5.838   7.388   3.951  0.5578  0.0566  0.0890
   53MOL   C33026434   5.903   7.608   3.834  0.0800  0.2691 -0.4304
   53MOL   O33126435   5.984   7.683   3.785  0.3312 -0.1723 -0.0151
   53MOL   O33226436   5.772   7.639   3.848  0.4532  0.2667 -0.2733
   53MOL   C33326437   5.714   7.728   3.749  0.9792 -0.2842  0.1014
   53MOL   C33426438   5.717   7.882   3.781  0.1318 -0.0458  0.1266
   53MOL   C33526439   5.653   7.922   3.898  0.1984 -0.5373 -0.5285
   53MOL   C33626440   5.641   0.048   3.932  0.5922 -1.3884 -0.1096
   53MOL   C33726441   5.705   0.136   3.844  0.0422  0.1777  0.0054
   53MOL   C33826442   5.767   0.101   3.720  0.3741  0.0501  1.2620
   53MOL   C33926443   5.769   7.973   3.686  0.2830  0.8523 -0.5670
   53MOL   H34026444   6.093   7.381   3.730  0.3113 -0.1649 -0.0503
   53MOL   H34126445   5.977   7.271   3.782  0.1372 -0.9119 -0.4653
   53MOL   H34226446   5.742   7.370   3.903  0.8611  2.2717 -1.4452
   53MOL   H34326447   5.823   7.427   4.052  2.1846  1.0502 -0.0312
   53MOL   H34426448   5.868   7.284   3.961  1.2729  0.3608  1.2308
   53MOL   H34526449   5.754   7.713   3.648 -1.4177 -3.0276 -0.4983
   53MOL   H34626450   5.610   7.700   3.737  0.0411  2.8110  0.5926
   53MOL   H34726451   5.607   7.852   3.966  1.0402 -1.6178 -1.0461
   53MOL   H34826452   5.590   0.083   4.020  2.4115  0.9216  0.0755
   53MOL   H34926453   5.708   0.242   3.859 -0.0870  0.3278 -0.9965
   53MOL   H35026454   5.814   0.177   3.659 -0.5193  0.2996  0.8736
   53MOL   H35126455   5.805   7.934   3.592  1.9973  0.4270  0.2472
   53MOL   C35226456   6.070   7.490   3.967 -0.4526  0.4339  0.1773
   53MOL   C35326457   6.150   7.389   4.051  0.3713 -0.2445  0.6539
   53MOL   C35426458   6.058   7.340   4.171 -0.6764  0.1024  0.2193
   53MOL   C35526459   6.285   7.452   4.107  0.2766  0.3127 -0.7213
   53MOL   O35626460   6.310   7.457   4.228 -0.2201 -0.1470 -0.3081
   53MOL   O35726461   6.368   7.496   4.006  0.0859 -0.0582 -0.0904
   53MOL   C35826462   6.498   7.548   4.038 -0.0326 -0.2199  0.0893
   53MOL   C35926463   6.549   7.654   3.938 -0.2855 -0.1098  0.5700
   53MOL   C36026464   6.680   7.704   3.951 -0.0632  0.5567 -0.1818
   53MOL   C36126465   6.725   7.807   3.865 -0.0621 -0.1992 -0.2789
   53MOL   C36226466   6.635   7.858   3.767  0.1082 -0.0850 -0.6598
   53MOL   C36326467   6.502   7.823   3.769  0.0392  1.0198 -0.2891
   53MOL   C36426468   6.463   7.711   3.845  0.4833 -0.1749  0.2105
   53MOL   H36526469   6.051   7.570   4.038 -1.7917 -1.7620  2.3905
   53MOL   H36626470   6.138   7.532   3.893 -0.2365  0.2725  0.2823
   53MOL   H36726471   5.997   7.418   4.217  0.5980  1.1579  0.1478
   53MOL   H36826472   6.120   7.282   4.240 -0.2333 -1.0507 -1.1197
   53MOL   H36926473   5.988   7.264   4.136 -0.8762 -0.3537  1.5947
   53MOL   H37026474   6.491   7.580   4.142 -2.0449 -1.6119  0.4195
   53MOL   H37126475   6.577   7.473   4.032  2.0439  2.0061 -1.4356
   53MOL   H37226476   6.752   7.675   4.026 -1.3998  0.8330  1.2094
   53MOL   H37326477   6.827   7.843   3.868  0.6557 -2.2747  1.1229
   53MOL   H37426478   6.673   7.931   3.697 -1.3994 -0.5676 -2.0010
   53MOL   H37526479   6.431   7.863   3.698  2.5332 -0.7889 -3.9892
   53MOL   H37626480   6.358   7.685   3.845  0.1553  1.1075  0.6802
   53MOL   C37726481   6.190   7.267   3.965 -0.2729 -0.7677 -0.4498
   53MOL   C37826482   6.298   7.149   4.003 -0.5695  0.2128 -0.0038
   53MOL   C37926483   6.438   7.198   3.962  0.7304  0.5059  0.0531
   53MOL   C38026484   6.264   7.034   3.902  0.0640  0.0216 -0.0200
   53MOL   O38126485   6.328   7.012   3.797  0.3041  0.2345 -0.1960
   53MOL   O38226486   6.152   6.978   3.935  0.0144 -0.6453 -0.2615
   53MOL   C38326487   6.099   6.875   3.855  0.0840 -0.7254 -0.1327
   53MOL   C38426488   5.947   6.892   3.850 -0.5193 -0.1172 -0.2193
   53MOL   C38526489   5.887   6.960   3.743 -0.6967 -0.8144 -0.1202
   53MOL   C38626490   5.745   6.987   3.733  0.4997 -0.0573 -0.2321
   53MOL   C38726491   5.668   6.945   3.840 -0.2141  0.5624 -0.0931
   53MOL   C38826492   5.723   6.881   3.954  0.1205 -0.0326  0.0923
   53MOL   C38926493   5.866   6.856   3.961  1.6916 -0.0346 -0.1732
   53MOL   H39026494   6.233   7.312   3.875 -0.3328  2.1860  0.9357
   53MOL   H39126495   6.102   7.209   3.937 -1.5204 -0.0292  1.8277
   53MOL   H39226496   6.518   7.125   3.957 -0.1291 -0.5373  1.2849
   53MOL   H39326497   6.463   7.269   4.042  0.2416  2.5703 -1.5771
   53MOL   H39426498   6.432   7.251   3.867 -1.6706  1.1712  0.5261
   53MOL   H39526499   6.140   6.882   3.754 -1.5168 -0.1989 -0.7642
   53MOL   H39626500   6.126   6.774   3.883  0.5341 -0.9395 -1.2824
   53MOL   H39726501   5.947   6.991   3.658 -0.0605 -0.3039  0.5048
   53MOL   H39826502   5.693   7.031   3.649 -0.4478  1.1276  0.9537
   53MOL   H39926503   5.560   6.956   3.840 -0.1703  0.9998  0.2097
   53MOL   H40026504   5.665   6.853   4.041  0.0178  0.2409  0.1114
   53MOL   H40126505   5.905   6.815   4.053  0.0055 -0.0386  0.5661
   53MOL   C40226506   6.312   7.102   4.153 -0.2154 -0.9424  0.9200
   53MOL   C40326507   6.398   6.980   4.208 -0.3856  0.6588 -0.3510
   53MOL   C40426508   6.362   6.849   4.131  0.0374 -0.4500  0.0515
   53MOL   C40526509   6.356   6.970   4.355 -0.6197 -0.8003  0.1921
   53MOL   O40626510   6.326   6.866   4.408 -0.2595 -0.0367 -0.1834
   53MOL   O40726511   6.370   7.091   4.418  0.1738 -0.4560  0.6019
   53MOL   C40826512   6.331   7.100   4.553 -0.4108 -0.0170  0.1615
   53MOL   C40926513   6.240   7.224   4.569  0.6464  0.5520 -0.7113
   53MOL   C41026514   6.277   7.357   4.573 -0.6840  0.4202 -0.0528
   53MOL   C41126515   6.181   7.456   4.591  0.0032 -0.2945  0.0804
   53MOL   C41226516   6.043   7.423   4.614  0.6389 -1.5126 -0.2394
   53MOL   C41326517   6.007   7.289   4.603 -0.3965 -1.2342 -0.1207
   53MOL   C41426518   6.103   7.192   4.581  0.0981 -0.1166  0.4880
   53MOL   H41526519   6.206   7.092   4.178  0.1451 -0.6467  2.6458
   53MOL   H41626520   6.329   7.190   4.215 -2.0649 -0.5012  0.8277
   53MOL   H41726521   6.413   6.850   4.034 -1.3151  0.0006 -0.6782
   53MOL   H41826522   6.255   6.846   4.108  0.1573  0.6772 -0.6938
   53MOL   H41926523   6.372   6.754   4.184  2.8343  0.7587  1.7674
   53MOL   H42026524   6.277   7.011   4.587 -0.4512  0.1623  0.5741
   53MOL   H42126525   6.414   7.112   4.623 -0.1167 -0.0248 -0.1875
   53MOL   H42226526   6.380   7.387   4.562 -0.2860 -0.5768  0.7998
   53MOL   H42326527   6.204   7.560   4.571 -0.7403 -0.3071 -0.8426
   53MOL   H42426528   5.965   7.498   4.616  1.4427 -0.6166 -1.5696
   53MOL   H42526529   5.903   7.258   4.598 -0.3725 -0.9838 -2.6431
   53MOL   H42626530   6.067   7.091   4.589 -1.7890  0.4275 -0.8402
   53MOL   C42726531   6.555   7.007   4.187 -0.3941 -0.0884 -0.3385
   53MOL   C42826532   6.666   6.932   4.275  0.4144 -0.4193  0.4357
   53MOL   C42926533   6.636   6.777   4.262  0.3977  0.0946  0.2349
   53MOL   C43026534   6.662   6.987   4.420  0.0208 -0.2456  0.2252
   53MOL   O43126535   6.643   6.918   4.522 -0.2975  0.1427  0.2354
   53MOL   O43226536   6.681   7.119   4.424  0.2395 -0.6079  0.8404
   53MOL   C43326537   6.695   7.179   4.550 -0.3572 -0.1599 -0.0642
   53MOL   C43426538   6.723   7.332   4.530  0.2799  0.4475  0.5634
   53MOL   C43526539   6.639   7.405   4.441  0.6719 -0.2359  0.1280
   53MOL   C43626540   6.666   7.541   4.423 -0.4629  0.1779 -0.1356
   53MOL   C43726541   6.773   7.604   4.489 -0.2538 -0.9212 -0.3729
   53MOL   C43826542   6.859   7.525   4.569 -0.1892  0.3464 -0.4796
   53MOL   C43926543   6.835   7.390   4.594  0.5008 -0.5293 -0.0822
   53MOL   H44026544   6.578   7.113   4.191 -2.2264  0.3519 -1.0376
   53MOL   H44126545   6.590   6.986   4.086  1.6574  0.4699  0.2313
   53MOL   H44226546   6.559   6.731   4.323  0.3871 -1.8445 -1.2141
   53MOL   H44326547   6.722   6.714   4.282  0.0638 -0.5598 -0.3729
   53MOL   H44426548   6.605   6.748   4.162 -1.1244 -1.2463  1.0818
   53MOL   H44526549   6.608   7.178   4.615 -1.4856  0.2878 -1.5482
   53MOL   H44626550   6.785   7.143   4.601 -0.2436 -2.1899 -1.6642
   53MOL   H44726551   6.556   7.358   4.390 -0.3623  1.6791 -0.0292
   53MOL   H44826552   6.614   7.602   4.351 -2.5214 -1.5743 -0.1781
   53MOL   H44926553   6.809   7.698   4.450 -0.0832 -0.7619  0.1621
   53MOL   H45026554   6.951   7.557   4.616 -0.8599  1.6695 -0.0466
   53MOL   H45126555   6.898   7.327   4.654  0.9600 -1.4484 -1.5207
   53MOL   C45226556   6.802   6.961   4.198  0.0756 -0.2520 -0.4942
   53MOL   C45326557   6.955   6.941   4.246  0.1690 -0.2692  0.2288
   53MOL   C45426558   6.977   6.808   4.322 -0.5530 -0.2175  0.2780
   53MOL   C45526559   7.000   7.065   4.325  0.3660 -0.5963 -0.0992
   53MOL   O45626560   7.015   7.061   4.449 -0.4591  0.3130  0.1265
   53MOL   O45726561   7.021   7.172   4.251 -0.5494  1.0760 -0.6387
   53MOL   C45826562   7.043   7.299   4.321 -0.4319 -0.1767  0.1818
   53MOL   C45926563   7.036   7.419   4.222  0.0532 -0.4093 -0.4940
   53MOL   C46026564   6.989   7.398   4.090 -0.4077  0.2194  0.4569
   53MOL   C46126565   6.978   7.507   4.002 -0.0510 -0.2380  0.7745
   53MOL   C46226566   7.013   7.636   4.044 -0.5622  0.3318 -0.3902
   53MOL   C46326567   7.058   7.658   4.180  0.7537  0.7583  0.4319
   53MOL   C46426568   7.064   7.550   4.265  0.0413 -0.2186  0.2000
   53MOL   H46526569   6.806   7.065   4.166 -2.4937  0.0673  0.1330
   53MOL   H46626570   6.790   6.906   4.105  3.1132  0.2867 -1.2899
   53MOL   H46726571   6.945   6.734   4.249 -1.9937  0.8758 -0.2235
   53MOL   H46826572   6.913   6.801   4.411 -2.1491 -0.0142 -0.8267
   53MOL   H46926573   7.078   6.777   4.350 -0.7958 -0.8182  0.5148
   53MOL   H47026574   6.971   7.301   4.403  0.5270  0.5149  1.0195
   53MOL   H47126575   7.145   7.298   4.360 -0.5280  0.0002  0.4345
   53MOL   H47226576   6.960   7.302   4.049 -1.6130  1.4547 -1.5954
   53MOL   H47326577   6.959   7.496   3.897 -2.5725 -1.1924  1.3008
   53MOL   H47426578   7.008   7.722   3.978 -0.8665  0.4251 -0.2453
   53MOL   H47526579   7.096   7.755   4.211  0.7537  0.0031  2.8878
   53MOL   H47626580   7.104   7.564   4.364 -0.0489 -1.2919  0.3961
   53MOL   C47726581   7.031   6.935   4.111  0.0061 -0.0298  0.4060
   53MOL   C47826582   7.183   6.899   4.124 -0.4228  0.8060  0.2245
   53MOL   C47926583   7.261   6.975   4.009  0.1634  0.6176  0.0910
   53MOL   C48026584   7.215   6.742   4.115 -0.2238 -0.9997 -0.0313
   53MOL   O48126585   7.126   6.658   4.090  0.2036 -0.0607  0.0004
   53MOL   O48226586   7.333   6.720   4.165  0.4350 -1.0270  0.0919
   53MOL   C48326587   7.359   6.588   4.198 -0.0647  0.0377 -0.6099
   53MOL   C48426588   7.440   6.508   4.097 -0.5728 -0.4083 -0.2134
   53MOL   C48526589   7.497   6.562   3.981 -0.3798  0.0951  0.2287
   53MOL   C48626590   7.584   6.485   3.905 -0.6638 -0.3596  0.6955
   53MOL   C48726591   7.614   6.353   3.941 -0.0570  0.7580  0.1314
   53MOL   C48826592   7.551   6.293   4.046  0.2655  0.3923  0.0504
   53MOL   C48926593   7.466   6.378   4.125  0.1132  0.1885  0.4322
   53MOL   H49026594   7.002   7.023   4.055 -1.2434 -1.2186 -0.8655
   53MOL   H49126595   6.981   6.853   4.060  1.7184 -3.2527  3.6100
   53MOL   H49226596   7.228   7.079   4.010  1.3418  0.9947  0.1630
   53MOL   H49326597   7.242   6.929   3.912  0.9814  0.6482 -0.0843
   53MOL   H49426598   7.369   6.977   4.022  0.5379 -1.5797 -2.2216
   53MOL   H49526599   7.411   6.581   4.293  0.7202 -0.3318 -1.0598
   53MOL   H49626600   7.268   6.532   4.219 -0.3485  0.3055 -1.1141
   53MOL   H49726601   7.477   6.664   3.950  0.8116  1.0224  2.3757
   53MOL   H49826602   7.642   6.532   3.827  1.1705 -0.3565  2.0400
   53MOL   H49926603   7.676   6.302   3.869  0.8879 -0.2903  1.6539
   53MOL   H50026604   7.552   6.188   4.070 -0.4984  0.0593 -1.3633
   53MOL   H50126605   7.414   6.333   4.208  0.2908  1.0175  0.9894
   53MOL   H50226606   7.205   6.935   4.225 -0.2662 -1.0783  0.8713
   54MOL     C126607   6.297   7.697   7.441 -0.2234 -0.0550 -0.3340
   54MOL     C226608   6.171   7.754   7.366  1.3755  0.3958 -0.6447
   54MOL     C326609   6.190   7.908   7.341  0.7028  0.2123  0.0954
   54MOL     C426610   6.045   7.731   7.463 -0.3037 -0.0193 -0.3895
   54MOL     O526611   6.056   7.681   7.576 -0.9151  0.2029  0.4991
   54MOL     O626612   5.929   7.766   7.411  0.1702 -0.1555 -0.0637
   54MOL     C726613   5.816   7.761   7.493  0.0710  0.9123  0.0230
   54MOL     C826614   5.699   7.827   7.427  0.5502 -0.5548  0.1205
   54MOL     C926615   5.707   7.962   7.380  0.8125  0.2408 -0.2661
   54MOL    C1026616   5.591   0.012   7.315  0.4861 -0.0912 -0.2294
   54MOL    C1126617   5.474   7.949   7.289 -0.1680 -0.3228  0.8149
   54MOL    C1226618   5.475   7.814   7.328 -0.8381 -0.0549 -0.2928
   54MOL    C1326619   5.585   7.754   7.396 -0.2948  0.5730 -0.3710
   54MOL    H1426620   6.324   7.766   7.522  0.0914 -0.6176  0.0393
   54MOL    H1526621   6.291   7.598   7.485 -3.2636  0.4528  0.4964
   54MOL    H1626622   6.192   7.963   7.435  2.4114 -0.0619  0.2443
   54MOL    H1726623   6.123   7.951   7.266 -0.0253 -0.4723  0.3443
   54MOL    H1826624   6.284   7.928   7.290  0.8002  1.1422  0.6267
   54MOL    H1926625   5.785   7.659   7.515  0.1240  0.9363  0.2059
   54MOL    H2026626   5.829   7.806   7.591 -0.7542 -0.9221  1.0013
   54MOL    H2126627   5.796   0.013   7.400  0.0830  1.5344 -0.7690
   54MOL    H2226628   5.588   0.116   7.286  0.4656  0.6234  2.2252
   54MOL    H2326629   5.389   7.989   7.236  0.3508  2.3181  1.9127
   54MOL    H2426630   5.387   7.752   7.313 -2.2809  1.6797  0.7519
   54MOL    H2526631   5.580   7.651   7.429 -0.5536  0.4211 -0.8848
   54MOL    H2626632   6.384   7.694   7.375 -1.5968 -1.1359 -2.1350
   54MOL    C2726633   6.153   7.691   7.229  0.0951  0.0151  0.0028
   54MOL    C2826634   6.133   7.537   7.203  0.5232  0.5613  0.2492
   54MOL    C2926635   6.028   7.476   7.302  0.0671  0.4040  0.9809
   54MOL    C3026636   6.270   7.464   7.228 -0.6404  0.1443  0.3180
   54MOL    O3126637   6.290   7.381   7.320  0.2988  0.4167  0.6660
   54MOL    O3226638   6.378   7.508   7.155  0.7303  0.2974 -0.0981
   54MOL    C3326639   6.512   7.473   7.181  0.4396 -0.3435 -0.8848
   54MOL    C3426640   6.601   7.600   7.194 -0.6431 -0.1183 -0.3378
   54MOL    C3526641   6.561   7.724   7.132 -0.1734 -0.5045 -0.4068
   54MOL    C3626642   6.652   7.835   7.143 -0.3007  0.3477 -0.3472
   54MOL    C3726643   6.775   7.820   7.208  0.5551  0.3834  0.2909
   54MOL    C3826644   6.813   7.695   7.271 -0.8636  0.3823 -0.3203
   54MOL    C3926645   6.730   7.585   7.255 -0.1789 -0.0978  0.3392
   54MOL    H4026646   6.224   7.725   7.153 -1.5847  1.0640 -1.1495
   54MOL    H4126647   6.061   7.743   7.202  0.7508 -0.3587 -3.1740
   54MOL    H4226648   6.053   7.485   7.407  1.0394 -2.2829  1.0115
   54MOL    H4326649   6.024   7.368   7.287 -0.0158  0.2193  2.2818
   54MOL    H4426650   5.930   7.516   7.276  0.3801 -0.0829 -1.0416
   54MOL    H4526651   6.524   7.418   7.274  0.9805  0.8822 -0.2139
   54MOL    H4626652   6.546   7.400   7.109  1.2149  0.9350 -1.8384
   54MOL    H4726653   6.469   7.745   7.079 -0.5581  1.0191  0.8109
   54MOL    H4826654   6.618   7.924   7.091 -0.8254  0.3744  0.0391
   54MOL    H4926655   6.835   7.909   7.203  1.4868 -0.1134  2.1460
   54MOL    H5026656   6.904   7.677   7.327  0.2001  2.4883 -1.3409
   54MOL    H5126657   6.758   7.492   7.303  0.6020 -0.7747 -1.4031
   54MOL    C5226658   6.075   7.490   7.063 -0.3460  0.0425  0.2223
   54MOL    C5326659   6.106   7.555   6.917  0.3886 -0.5429 -0.0228
   54MOL    C5426660   6.257   7.556   6.886 -0.3740  0.1462  0.8314
   54MOL    C5526661   6.047   7.703   6.922  0.6156 -0.2676  0.0532
   54MOL    O5626662   6.107   7.806   6.886  0.0727  0.3510  0.1321
   54MOL    O5726663   5.922   7.710   6.970 -0.2831  0.0890  0.0284
   54MOL    C5826664   5.869   7.843   7.003  0.4510  0.0284  0.1693
   54MOL    C5926665   5.746   7.866   6.922 -0.8845  0.1265 -0.1575
   54MOL    C6026666   5.620   7.818   6.975 -0.7538 -0.6841 -0.1359
   54MOL    C6126667   5.500   7.838   6.896  0.6799 -0.2651  0.3671
   54MOL    C6226668   5.504   7.908   6.772  0.5954 -0.3069  0.2475
   54MOL    C6326669   5.625   7.968   6.729  1.3309  0.3002  0.4030
   54MOL    C6426670   5.745   7.942   6.803  0.1759  0.1173 -0.3444
   54MOL    H6526671   5.967   7.496   7.075 -0.3453  1.3978 -0.2869
   54MOL    H6626672   6.095   7.383   7.060  1.2042  0.2572  1.8972
   54MOL    H6726673   6.302   7.465   6.925  1.0180 -0.7311 -2.5887
   54MOL    H6826674   6.296   7.645   6.934  0.8544  0.2512 -0.3273
   54MOL    H6926675   6.297   7.563   6.785  3.0891 -2.0246  1.9558
   54MOL    H7026676   5.837   7.851   7.107 -1.9725 -1.6503 -0.4060
   54MOL    H7126677   5.944   7.920   6.988 -0.3903  0.6227 -1.0608
   54MOL    H7226678   5.604   7.758   7.063  2.0381 -1.4822 -0.1393
   54MOL    H7326679   5.407   7.800   6.935  1.4307  0.2664  2.7242
   54MOL    H7426680   5.414   7.916   6.714  0.4249 -0.8482  0.4314
   54MOL    H7526681   5.634   0.014   6.636 -1.2671 -0.2568 -0.2021
   54MOL    H7626682   5.835   7.990   6.768  0.9737 -1.5814 -0.7029
   54MOL    C7726683   6.032   7.461   6.811 -0.2271 -0.3022  0.4489
   54MOL    C7826684   6.006   7.488   6.653  0.3538 -0.1181 -0.0436
   54MOL    C7926685   6.110   7.585   6.602 -0.0169 -0.3455  0.7369
   54MOL    C8026686   5.865   7.549   6.629  0.0796 -0.4720  0.4169
   54MOL    O8126687   5.794   7.586   6.723 -0.1771  0.5855 -0.6848
   54MOL    O8226688   5.835   7.573   6.501  0.5834  0.4402  0.1216
   54MOL    C8326689   5.724   7.654   6.475  0.2749  0.8193 -0.2059
   54MOL    C8426690   5.603   7.565   6.457 -0.7667 -0.4648 -0.9936
   54MOL    C8526691   5.494   7.587   6.545  0.1522 -0.4769 -0.2660
   54MOL    C8626692   5.380   7.504   6.540  0.3748  0.4536 -0.1604
   54MOL    C8726693   5.366   7.413   6.436 -0.4615  0.0333  0.1163
   54MOL    C8826694   5.474   7.386   6.349  1.4714 -0.4561  0.5977
   54MOL    C8926695   5.591   7.465   6.360  1.4529  0.0668 -0.3337
   54MOL    H9026696   5.938   7.421   6.850 -2.3976  2.8689 -1.2681
   54MOL    H9126697   6.099   7.376   6.818  0.3067  0.1255  0.5552
   54MOL    H9226698   6.210   7.541   6.608 -0.6832 -2.0610 -0.4407
   54MOL    H9326699   6.102   7.679   6.657  0.9840  0.4912 -0.5121
   54MOL    H9426700   6.090   7.613   6.499 -0.4033 -0.7038  0.7161
   54MOL    H9526701   5.706   7.732   6.549  2.8942  0.0723  1.3091
   54MOL    H9626702   5.752   7.705   6.383  1.5339 -2.2923 -1.6355
   54MOL    H9726703   5.497   7.664   6.621 -0.4816 -0.6455 -0.0657
   54MOL    H9826704   5.299   7.520   6.611  0.9100 -0.3748  0.6564
   54MOL    H9926705   5.276   7.354   6.424 -0.7179  0.6156 -0.8728
   54MOL   H10026706   5.465   7.309   6.275 -2.8373 -0.2582  0.7907
   54MOL   H10126707   5.675   7.459   6.293 -0.1722  0.1253 -2.4454
   54MOL   C10226708   6.023   7.352   6.564 -0.2960  0.4166  0.8450
   54MOL   C10326709   5.952   7.209   6.591  0.7376  0.1256  0.0228
   54MOL   C10426710   5.982   7.114   6.463  0.1497  0.4777  0.6251
   54MOL   C10526711   5.797   7.229   6.601  0.4303  0.1094  0.4026
   54MOL   O10626712   5.717   7.221   6.505  0.0480  0.3069 -0.2489
   54MOL   O10726713   5.762   7.273   6.727  0.4774 -0.1648 -0.8526
   54MOL   C10826714   5.623   7.311   6.753  0.0688  0.3825  0.2562
   54MOL   C10926715   5.584   7.338   6.895 -0.1196  0.3456  0.1654
   54MOL   C11026716   5.666   7.294   7.004 -0.2505 -0.3359 -0.5723
   54MOL   C11126717   5.643   7.337   7.134 -0.6131  0.1056  0.0449
   54MOL   C11226718   5.525   7.409   7.159  0.3060  0.5289 -0.3416
   54MOL   C11326719   5.444   7.459   7.056 -0.4797  0.0483 -1.1674
   54MOL   C11426720   5.472   7.417   6.928  0.6609  0.4171  0.6479
   54MOL   H11526721   6.128   7.332   6.545 -0.5383  0.7520 -0.8961
   54MOL   H11626722   5.988   7.384   6.466  0.2618 -0.1848  0.4498
   54MOL   H11726723   5.930   7.018   6.467 -0.0210  0.3547 -3.2077
   54MOL   H11826724   6.090   7.110   6.451  0.0896  0.2385  0.1547
   54MOL   H11926725   5.952   7.157   6.368 -1.6572 -1.9736  0.0382
   54MOL   H12026726   5.613   7.406   6.699 -0.1020  1.0951  1.5319
   54MOL   H12126727   5.562   7.231   6.711 -1.0429  1.3779 -0.0453
   54MOL   H12226728   5.756   7.235   6.995  0.5397  0.8591 -0.5397
   54MOL   H12326729   5.714   7.312   7.212 -0.7055 -0.2562  0.0164
   54MOL   H12426730   5.500   7.450   7.256  2.1824  0.3206  0.2458
   54MOL   H12526731   5.355   7.518   7.075  0.3198  0.1970  2.5418
   54MOL   H12626732   5.414   7.451   6.844 -0.1846 -0.8960  0.6775
   54MOL   C12726733   6.020   7.147   6.721 -0.8358 -0.2160  0.9466
   54MOL   C12826734   6.009   6.996   6.767  0.2305 -0.6698 -0.0809
   54MOL   C12926735   6.111   6.912   6.684 -0.1995  1.1800 -0.9676
   54MOL   C13026736   5.864   6.947   6.733 -0.4672 -0.2091 -0.7598
   54MOL   O13126737   5.843   6.875   6.634 -0.5033  0.1268 -0.4983
   54MOL   O13226738   5.771   6.977   6.832  0.5558  0.1881 -0.2644
   54MOL   C13326739   5.654   6.894   6.852 -0.5439  0.2524 -0.2893
   54MOL   C13426740   5.527   6.970   6.801 -0.0119  0.2844 -0.3895
   54MOL   C13526741   5.420   7.019   6.883  0.0972 -0.0269 -0.1480
   54MOL   C13626742   5.306   7.079   6.823 -0.8110 -0.0972 -0.2455
   54MOL   C13726743   5.291   7.085   6.682 -0.0054  0.4725  0.3381
   54MOL   C13826744   5.400   7.045   6.602  0.0419 -0.1098 -0.5817
   54MOL   C13926745   5.517   6.988   6.659  0.1507 -0.6345 -0.2403
   54MOL   H14026746   5.994   7.206   6.808  0.3721  0.7023  0.6904
   54MOL   H14126747   6.127   7.156   6.704 -0.3213 -5.6405  0.1663
   54MOL   H14226748   6.122   6.949   6.582 -0.8299  0.8699 -1.1569
   54MOL   H14326749   6.100   6.803   6.678 -1.4444  1.0524  2.4497
   54MOL   H14426750   6.204   6.942   6.731 -0.1767 -0.8760  0.3540
   54MOL   H14526751   5.649   6.814   6.779 -1.5594  1.4316 -1.5501
   54MOL   H14626752   5.644   6.859   6.955  1.9140 -2.9570 -1.0569
   54MOL   H14726753   5.417   7.002   6.989 -1.3985  0.3400 -0.1148
   54MOL   H14826754   5.226   7.106   6.890  0.4047  2.8644  0.0910
   54MOL   H14926755   5.206   7.124   6.627  1.6404  1.4935 -1.5376
   54MOL   H15026756   5.378   7.035   6.497  0.3095 -2.2331 -0.4514
   54MOL   H15126757   5.592   6.949   6.592 -0.3031 -1.6666 -0.1587
   54MOL   C15226758   6.027   6.987   6.923 -0.8226  0.0371 -0.0287
   54MOL   C15326759   6.159   7.011   7.002 -0.6006 -0.6091  0.0149
   54MOL   C15426760   6.258   7.123   6.953 -0.2531 -0.5082 -0.2454
   54MOL   C15526761   6.246   6.885   6.993  0.0082  0.7288  0.3066
   54MOL   O15626762   6.202   6.775   6.947  0.3106  0.3303  0.0226
   54MOL   O15726763   6.371   6.898   7.038 -0.7660 -0.0687  0.0249
   54MOL   C15826764   6.452   6.785   7.058  0.0674 -0.4532 -0.7903
   54MOL   C15926765   6.412   6.700   7.181 -0.1362  0.1267  0.1144
   54MOL   C16026766   6.399   6.762   7.306 -0.0457 -0.2175 -0.3692
   54MOL   C16126767   6.366   6.670   7.420  0.1384 -0.7104  0.4347
   54MOL   C16226768   6.339   6.535   7.403 -0.2123 -0.9998 -0.3753
   54MOL   C16326769   6.357   6.480   7.275  0.1657 -0.2348 -0.2085
   54MOL   C16426770   6.390   6.558   7.164 -0.1817  0.2549 -1.0440
   54MOL   H16526771   5.994   6.886   6.947 -0.8551  0.0289 -0.1096
   54MOL   H16626772   5.957   7.062   6.959  0.2368  1.4711 -0.8939
   54MOL   H16726773   6.333   7.145   7.029 -0.5799 -0.7132  0.1386
   54MOL   H16826774   6.213   7.221   6.942  1.5075  0.1604 -1.8317
   54MOL   H16926775   6.315   7.101   6.862  0.7930  2.9043 -0.4651
   54MOL   H17026776   6.444   6.726   6.967 -0.4453 -0.0763 -0.9883
   54MOL   H17126777   6.558   6.808   7.076  0.0011 -1.4184  0.9100
   54MOL   H17226778   6.413   6.869   7.308  0.3432 -0.2970  1.2804
   54MOL   H17326779   6.365   6.711   7.520 -0.1471  1.2006 -0.3317
   54MOL   H17426780   6.325   6.469   7.487 -1.9761 -1.7222 -1.2183
   54MOL   H17526781   6.339   6.375   7.254 -1.3609  0.0272 -0.2682
   54MOL   H17626782   6.396   6.503   7.071 -1.3881 -0.6476 -0.6034
   54MOL   C17726783   6.137   7.045   7.155  0.8073 -0.4336 -0.3752
   54MOL   C17826784   6.037   6.958   7.244  0.5982 -0.2454  0.1133
   54MOL   C17926785   6.056   6.805   7.224 -0.7193  0.6828 -0.6025
   54MOL   C18026786   5.890   7.008   7.213 -0.0865  0.5048  0.1098
   54MOL   O18126787   5.872   7.125   7.183 -0.2008  0.0007 -0.2300
   54MOL   O18226788   5.798   6.922   7.242  0.8040 -0.0449  0.6819
   54MOL   C18326789   5.661   6.966   7.245  0.4970  0.8124  0.0806
   54MOL   C18426790   5.572   6.848   7.278 -0.1918  0.4039 -0.4478
   54MOL   C18526791   5.624   6.718   7.274 -0.2457 -0.1027 -0.7321
   54MOL   C18626792   5.544   6.604   7.303  0.2077 -0.6726 -0.0409
   54MOL   C18726793   5.411   6.624   7.345  0.7635  0.1688  0.2471
   54MOL   C18826794   5.353   6.756   7.338  0.0195 -0.3484 -0.4942
   54MOL   C18926795   5.435   6.865   7.299  0.0198  0.6035  0.4089
   54MOL   H19026796   6.125   7.152   7.170  1.0217 -0.5119  0.3379
   54MOL   H19126797   6.232   7.027   7.204  1.1243  0.5491 -0.6282
   54MOL   H19226798   6.004   6.761   7.309 -1.0811  1.8349 -0.2146
   54MOL   H19326799   6.162   6.782   7.236 -1.1203 -0.9092  0.0109
   54MOL   H19426800   6.021   6.770   7.127  1.5814  2.0746 -1.9953
   54MOL   H19526801   5.644   7.051   7.312 -1.9203 -0.3950  1.0641
   54MOL   H19626802   5.622   6.998   7.149 -1.0205  0.2897  0.5106
   54MOL   H19726803   5.725   6.690   7.246  0.5995  0.9630  1.2067
   54MOL   H19826804   5.578   6.501   7.295 -0.9368 -0.8157 -3.6706
   54MOL   H19926805   5.345   6.541   7.369  2.4209 -1.4021 -0.4805
   54MOL   H20026806   5.250   6.777   7.362  0.5283 -0.3321  1.7968
   54MOL   H20126807   5.389   6.963   7.302  0.4027  0.7735  0.7894
   54MOL   C20226808   6.078   6.989   7.393  0.1964 -0.2885 -0.4009
   54MOL   C20326809   5.984   6.983   7.525 -1.2421 -0.5826  0.6056
   54MOL   C20426810   5.926   6.841   7.536 -0.6510  0.2019  0.1378
   54MOL   C20526811   5.865   7.084   7.530 -0.1291 -0.9702  0.4695
   54MOL   O20626812   5.862   7.192   7.476  0.2811  0.2094 -0.0311
   54MOL   O20726813   5.759   7.041   7.601 -0.2898  0.6006 -0.1469
   54MOL   C20826814   5.654   7.133   7.622  0.6006 -0.7043 -0.2718
   54MOL   C20926815   5.533   7.059   7.667 -0.0836  0.7004  0.3289
   54MOL   C21026816   5.447   7.125   7.759  0.1080  0.1537  0.0331
   54MOL   C21126817   5.332   7.053   7.811  0.1944  0.0655  0.4094
   54MOL   C21226818   5.304   6.920   7.774 -1.1305 -0.4342 -0.6440
   54MOL   C21326819   5.402   6.853   7.699  0.5357  0.6017 -0.0333
   54MOL   C21426820   5.515   6.917   7.642 -0.0840  0.0094 -0.1771
   54MOL   H21526821   6.122   7.088   7.403  0.5383 -0.5940  1.3303
   54MOL   H21626822   6.167   6.930   7.417  0.8684  1.5050  1.6408
   54MOL   H21726823   5.850   6.808   7.466 -0.7035  1.3420 -0.3406
   54MOL   H21826824   5.876   6.831   7.633  0.6100 -0.0568  0.7800
   54MOL   H21926825   6.010   6.774   7.522 -1.0390 -0.1985 -0.2835
   54MOL   H22026826   5.676   7.212   7.693  3.1332  0.0194 -1.7944
   54MOL   H22126827   5.629   7.193   7.534 -0.8281  0.3350  0.8387
   54MOL   H22226828   5.471   7.224   7.797  0.5178 -0.3249  1.0444
   54MOL   H22326829   5.272   7.108   7.882 -0.2295 -2.3505  1.9818
   54MOL   H22426830   5.225   6.862   7.819 -2.0209  0.2059 -1.3777
   54MOL   H22526831   5.374   6.752   7.671  1.8976  0.1152  0.3165
   54MOL   H22626832   5.579   6.867   7.570 -2.4570 -1.6439 -1.2129
   54MOL   C22726833   6.074   6.998   7.658 -0.1302 -0.2650 -0.1916
   54MOL   C22826834   6.179   7.110   7.687 -0.4223  0.1592  0.0538
   54MOL   C22926835   6.124   7.248   7.655 -0.1881 -0.0989 -0.3447
   54MOL   C23026836   6.312   7.092   7.611 -0.1082  0.4178  0.6412
   54MOL   O23126837   6.339   6.986   7.560  0.1962  0.3257  0.5281
   54MOL   O23226838   6.389   7.197   7.607 -0.8989  0.7873 -0.2648
   54MOL   C23326839   6.517   7.188   7.549 -0.3551 -0.2385  0.5117
   54MOL   C23426840   6.597   7.315   7.572  0.0639  0.4605 -0.2159
   54MOL   C23526841   6.739   7.307   7.594  0.1348  0.4049 -0.6351
   54MOL   C23626842   6.817   7.429   7.604 -0.1893 -0.1804 -0.8832
   54MOL   C23726843   6.751   7.554   7.601  0.3671  0.1022 -0.8499
   54MOL   C23826844   6.615   7.554   7.571  0.3122  1.0727 -0.3981
   54MOL   C23926845   6.542   7.438   7.565  0.5653  0.0350  0.6316
   54MOL   H24026846   6.129   6.904   7.661 -0.7399 -0.5938  0.6344
   54MOL   H24126847   6.003   7.000   7.740  0.7279  2.3261  0.5131
   54MOL   H24226848   6.044   7.265   7.727  1.4770 -0.6547  1.6735
   54MOL   H24326849   6.090   7.242   7.552 -1.2698 -1.4289  0.0864
   54MOL   H24426850   6.202   7.323   7.669  0.1646 -0.9317  2.5311
   54MOL   H24526851   6.576   7.110   7.598  1.4499  2.8696  3.4774
   54MOL   H24626852   6.512   7.155   7.445 -2.6720  0.6658  0.2983
   54MOL   H24726853   6.793   7.214   7.598  1.4992  1.2187  0.5842
   54MOL   H24826854   6.923   7.449   7.613 -0.7274  1.7614  1.5313
   54MOL   H24926855   6.787   7.655   7.613 -0.9575  0.3661  1.2509
   54MOL   H25026856   6.571   7.652   7.556  2.2073  2.0065 -0.0366
   54MOL   H25126857   6.442   7.444   7.524  0.4770 -2.5320  0.3644
   54MOL   C25226858   6.216   7.118   7.842 -0.0335  0.8056  0.1054
   54MOL   C25326859   6.263   6.994   7.936  1.0741 -0.0020  0.3224
   54MOL   C25426860   6.401   6.943   7.877  0.3141 -0.2337  0.3023
   54MOL   C25526861   6.149   6.881   7.943 -0.2387  0.8131  0.3357
   54MOL   O25626862   6.177   6.765   7.930  0.4659 -0.6317 -0.3071
   54MOL   O25726863   6.034   6.928   7.968 -0.2602  0.2223 -0.0511
   54MOL   C25826864   5.925   6.843   8.002 -0.0033  0.0235 -0.1902
   54MOL   C25926865   5.823   6.913   0.087 -0.6775 -0.1621  0.3099
   54MOL   C26026866   5.717   6.983   0.024 -0.1591 -0.2630 -1.0146
   54MOL   C26126867   5.618   7.049   0.094  0.4603  0.0352  0.1223
   54MOL   C26226868   5.622   7.050   0.236 -0.4536  0.5917  0.0321
   54MOL   C26326869   5.725   6.974   0.303 -0.3275  0.2942  0.5364
   54MOL   C26426870   5.828   6.912   0.231  0.3876 -0.1834  0.3141
   54MOL   H26526871   6.126   7.157   7.890 -0.4264 -0.1271  0.1445
   54MOL   H26626872   6.294   7.193   7.845 -0.0736  0.8633 -0.2478
   54MOL   H26726873   6.470   7.027   7.877  2.4031 -1.9007 -0.1575
   54MOL   H26826874   6.399   6.911   7.773 -1.2575 -1.2936  0.6379
   54MOL   H26926875   6.439   6.858   7.933  1.1406 -0.7573 -1.0463
   54MOL   H27026876   5.893   6.805   7.905  1.4033  0.6436 -0.9244
   54MOL   H27126877   5.960   6.756   0.051  0.1189 -0.1804 -0.5771
   54MOL   H27226878   5.707   6.987   7.924  1.0868 -1.7108 -1.2000
   54MOL   H27326879   5.537   7.095   0.039  1.0028  1.1364  0.2245
   54MOL   H27426880   5.555   7.110   0.295  2.0529  3.3971  0.1236
   54MOL   H27526881   5.736   6.986   0.409 -0.2283  0.4754  0.5054
   54MOL   H27626882   5.904   6.853   0.278  1.4924  1.6690  0.8950
   54MOL   C27726883   6.282   7.042   0.077 -0.2980  0.5039 -0.3880
   54MOL   C27826884   6.327   7.183   0.133  0.0610 -0.2031 -0.3193
   54MOL   C27926885   6.475   7.196   0.084  0.3657 -0.6790  0.4809
   54MOL   C28026886   6.334   7.177   0.287  0.5486 -0.2980  0.1624
   54MOL   O28126887   6.255   7.111   0.349  0.4914 -0.7141 -0.6104
   54MOL   O28226888   6.405   7.269   0.350 -0.4172 -0.7831  0.2052
   54MOL   C28326889   6.419   7.259   0.489  0.0021 -0.3505  0.0848
   54MOL   C28426890   6.496   7.374   0.546 -0.2863 -0.7859  0.2658
   54MOL   C28526891   6.590   7.356   0.647 -0.3206 -0.0365  0.0117
   54MOL   C28626892   6.643   7.459   0.723  0.1198  0.1663 -0.1786
   54MOL   C28726893   6.613   7.593   0.683  0.3042 -0.1379 -0.1683
   54MOL   C28826894   6.534   7.611   0.560 -0.6364 -0.2655 -0.0718
   54MOL   C28926895   6.472   7.505   0.500  0.4451 -0.3555  0.0680
   54MOL   H29026896   6.355   6.977   0.126 -1.6346 -0.6208  0.1366
   54MOL   H29126897   6.200   7.015   0.143  1.2981 -1.3728  0.9023
   54MOL   H29226898   6.538   7.255   0.150 -1.3858 -1.5383  2.9924
   54MOL   H29326899   6.474   7.216   7.984 -1.3527  1.6261  0.8868
   54MOL   H29426900   6.516   7.095   0.093 -0.7023 -1.0121  1.7064
   54MOL   H29526901   6.322   7.253   0.537 -1.1827  1.0281 -2.0630
   54MOL   H29626902   6.476   7.166   0.501  2.5673  1.1340 -0.1022
   54MOL   H29726903   6.599   7.254   0.682  1.3546 -0.6769 -2.1330
   54MOL   H29826904   6.713   7.434   0.801  0.9774 -0.6739 -1.1996
   54MOL   H29926905   6.648   7.683   0.732  0.2403 -0.3420  0.2585
   54MOL   H30026906   6.504   7.706   0.517 -1.6797 -0.3245  0.5008
   54MOL   H30126907   6.415   7.515   0.409 -0.0409 -1.0040  0.2980
   54MOL   C30226908   6.245   7.315   0.099 -1.2815 -0.1747 -0.1458
   54MOL   C30326909   6.099   7.351   0.143  0.0192 -0.7581 -0.2122
   54MOL   C30426910   6.013   7.230   0.170 -0.4653  0.0567  0.6573
   54MOL   C30526911   6.029   7.436   0.031 -0.2148  0.8223 -0.7902
   54MOL   O30626912   5.921   7.407   0.000  0.1087  0.4640 -0.0236
   54MOL   O30726913   6.093   7.537   7.988 -0.1262  0.0599 -0.5324
   54MOL   C30826914   6.039   7.598   7.869  0.2259 -0.6805  0.2309
   54MOL   C30926915   5.934   7.705   7.898  0.3899 -0.3609  0.5006
   54MOL   C31026916   5.968   7.813   7.992 -0.1874 -0.7775  0.0790
   54MOL   C31126917   5.862   7.910   0.003 -0.7527 -0.0725 -0.1913
   54MOL   C31226918   5.744   7.902   7.928  0.2911  0.1291  0.0376
   54MOL   C31326919   5.716   7.804   7.834 -0.2658  0.5016 -0.3522
   54MOL   C31426920   5.811   7.702   7.830  0.6368 -0.0808 -0.1178
   54MOL   H31526921   6.242   7.324   7.997  0.3965  0.0033 -0.1829
   54MOL   H31626922   6.318   7.391   0.127 -2.3249  1.6356 -2.1696
   54MOL   H31726923   5.905   7.242   0.170 -0.5157 -0.3231 -0.9580
   54MOL   H31826924   6.044   7.185   0.264 -1.6284 -0.9064  0.5901
   54MOL   H31926925   6.019   7.153   0.094  0.1567  1.2608 -0.5360
   54MOL   H32026926   6.123   7.640   7.813 -1.5053  0.4256 -1.5729
   54MOL   H32126927   6.000   7.522   7.801  1.0429 -0.9655  0.0645
   54MOL   H32226928   6.064   7.820   0.035  1.6258 -2.5842 -2.9739
   54MOL   H32326929   5.869   7.986   0.078 -2.4272  0.8804 -0.9818
   54MOL   H32426930   5.675   7.985   7.938  0.9237  0.7351 -0.4983
   54MOL   H32526931   5.628   7.796   7.772 -0.7961  0.4698  0.3963
   54MOL   H32626932   5.791   7.627   7.755 -0.7678 -1.7358  1.8624
   54MOL   C32726933   6.112   7.434   0.279 -0.4354 -0.3752  0.2245
   54MOL   C32826934   6.000   7.529   0.347  0.1866 -0.1713 -0.1480
   54MOL   C32926935   5.947   7.643   0.252  0.0960 -0.1784 -1.0814
   54MOL   C33026936   6.083   7.599   0.460 -0.8650  0.5124  0.0786
   54MOL   O33126937   6.111   7.717   0.461  0.2379  0.1820 -0.4533
   54MOL   O33226938   6.108   7.510   0.554  0.1347 -0.2666 -0.1314
   54MOL   C33326939   6.145   7.551   0.678  0.0170  0.2641 -0.0386
   54MOL   C33426940   6.187   7.437   0.771  0.2526  0.5081 -0.6684
   54MOL   C33526941   6.146   7.305   0.747 -0.0754  0.3193 -0.3058
   54MOL   C33626942   6.176   7.200   0.841 -1.2650  0.3250  0.8552
   54MOL   C33726943   6.259   7.232   0.952  0.5729  0.2453 -0.2902
   54MOL   C33826944   6.302   7.362   0.975  0.1360 -0.1441 -0.6249
   54MOL   C33926945   6.274   7.461   0.882  0.0045  0.3411 -0.4190
   54MOL   H34026946   6.196   7.498   0.251 -1.5469  1.1701  0.3662
   54MOL   H34126947   6.148   7.372   0.361  1.3697 -0.8974 -0.9063
   54MOL   H34226948   5.891   7.601   0.168 -3.5355 -1.1033  1.6407
   54MOL   H34326949   6.035   7.689   0.207  0.5777 -1.2796 -1.2756
   54MOL   H34426950   5.888   7.714   0.310  0.4291  0.5776 -1.6702
   54MOL   H34526951   6.223   7.626   0.691  0.6520 -0.2309 -0.9102
   54MOL   H34626952   6.056   7.600   0.717  0.5037  0.5013  0.8023
   54MOL   H34726953   6.087   7.281   0.660 -0.2809 -0.3175  0.0028
   54MOL   H34826954   6.136   7.103   0.815 -1.7178  0.1425  2.2211
   54MOL   H34926955   6.273   7.149   1.019 -1.7918 -1.8743 -2.3272
   54MOL   H35026956   6.362   7.371   1.064  0.5137  0.2855 -0.9185
   54MOL   H35126957   6.321   7.557   0.883 -1.2331  0.9480  1.4603
   54MOL   C35226958   5.879   7.445   0.412  0.5841 -0.2386  0.6880
   54MOL   C35326959   5.746   7.519   0.471 -0.4980 -0.0994 -0.4343
   54MOL   C35426960   5.647   7.540   0.352 -0.5655 -0.1177 -0.1916
   54MOL   C35526961   5.786   7.645   0.545 -0.1690  0.0937 -0.3147
   54MOL   O35626962   5.840   7.638   0.658  0.0783  0.2313  0.3505
   54MOL   O35726963   5.752   7.758   0.487 -0.3653  0.0774 -0.1209
   54MOL   C35826964   5.792   7.875   0.533  0.2192 -0.4355  0.6549
   54MOL   C35926965   5.781   7.980   0.434  0.1757 -0.0671 -0.2181
   54MOL   C36026966   5.681   7.989   0.336 -0.8110  0.5566  0.4950
   54MOL   C36126967   5.679   0.090   0.248 -0.2464  1.1111 -0.0539
   54MOL   C36226968   5.778   0.196   0.261 -0.6452 -0.1185  0.5928
   54MOL   C36326969   5.879   0.172   0.350  0.2906 -0.1362 -0.4325
   54MOL   C36426970   5.883   0.063   0.440  0.0978 -0.2990 -0.2785
   54MOL   H36526971   5.914   7.375   0.488 -0.7786 -2.1375 -0.4026
   54MOL   H36626972   5.850   7.375   0.334 -1.1382  0.1498  0.9424
   54MOL   H36726973   5.567   7.604   0.390 -0.0506 -0.1190  0.9289
   54MOL   H36826974   5.596   7.449   0.319  0.3545 -0.1974 -1.3918
   54MOL   H36926975   5.696   7.586   0.267 -0.6272 -1.6031 -1.0489
   54MOL   H37026976   5.728   7.888   0.620 -1.5013 -1.1385 -0.4755
   54MOL   H37126977   5.895   7.887   0.568  0.1006  1.5003  0.3887
   54MOL   H37226978   5.612   7.906   0.329  0.0720 -0.4188  2.7703
   54MOL   H37326979   5.605   0.092   0.170 -0.8078  0.9617  0.4686
   54MOL   H37426980   5.780   0.281   0.195 -3.1379  0.1608  0.8161
   54MOL   H37526981   5.956   0.248   0.357 -1.2804  1.4830 -0.3780
   54MOL   H37626982   5.956   0.061   0.519 -0.1326 -0.4901 -0.0682
   54MOL   C37726983   5.681   7.416   0.573 -0.5865  0.3323  0.0680
   54MOL   C37826984   5.547   7.435   0.661 -0.5093  0.6026  0.5621
   54MOL   C37926985   5.525   7.305   0.745 -0.2320  0.7605 -0.2550
   54MOL   C38026986   5.425   7.443   0.561  0.0487  0.3874 -0.0466
   54MOL   O38126987   5.365   7.545   0.546  0.5029  0.3947 -0.1775
   54MOL   O38226988   5.394   7.329   0.495 -0.0994 -1.1439  0.4207
   54MOL   C38326989   5.279   7.334   0.412 -0.3975  0.1242 -0.3078
   54MOL   C38426990   5.251   7.191   0.357 -1.1160 -0.2124 -0.2022
   54MOL   C38526991   5.161   7.180   0.250  0.0645  0.2437  0.7332
   54MOL   C38626992   5.137   7.055   0.183 -0.0441 -0.2745  0.2139
   54MOL   C38726993   5.209   6.937   0.223 -0.2654  0.4946 -0.1931
   54MOL   C38826994   5.288   6.949   0.334  0.0230  0.3790 -0.3095
   54MOL   C38926995   5.317   7.074   0.399 -0.4774  0.4244 -0.5458
   54MOL   H39026996   5.759   7.389   0.644 -1.7428 -0.6549  0.9968
   54MOL   H39126997   5.662   7.318   0.528 -2.8188  1.1767 -0.9367
   54MOL   H39226998   5.504   7.219   0.682 -0.6425  0.3259  0.4733
   54MOL   H39326999   5.445   7.317   0.818  0.2686  0.4913  0.3439
   54MOL   H39427000   5.605   7.287   0.817 -0.8076 -0.0368  0.1910
   54MOL   H39527001   5.196   7.385   0.460  0.6981  0.9431  0.7649
   54MOL   H39627002   5.314   7.390   0.325 -1.3441 -0.9403 -1.3873
   54MOL   H39727003   5.117   7.272   0.214  2.2035  0.8925 -0.3267
   54MOL   H39827004   5.066   7.053   0.102 -1.2670  0.1634  1.2482
   54MOL   H39927005   5.194   6.854   0.155  0.1318  0.0337  0.2761
   54MOL   H40027006   5.357   6.869   0.356 -0.5894 -0.5859 -1.8016
   54MOL   H40127007   5.399   7.086   0.468  0.7532 -2.8215 -1.3747
   54MOL   C40227008   5.555   7.565   0.754  0.0241 -0.2413  0.1997
   54MOL   C40327009   5.456   7.604   0.869  0.0503 -0.1346  0.3666
   54MOL   C40427010   5.312   7.572   0.824  0.3343  0.2867  0.0814
   54MOL   C40527011   5.462   7.762   0.886  0.4772  0.0515 -0.3255
   54MOL   O40627012   5.573   7.816   0.902  0.0637  0.1920  0.4225
   54MOL   O40727013   5.341   7.819   0.904 -0.5534  0.4604  0.4440
   54MOL   C40827014   5.339   7.951   0.934 -0.0959 -0.2896  0.4452
   54MOL   C40927015   5.207   0.008   0.894 -0.0705  0.1609 -0.2425
   54MOL   C41027016   5.210   0.096   0.780 -0.0110  0.0155  0.2430
   54MOL   C41127017   5.094   0.158   0.736 -0.8064  0.1356  0.5206
   54MOL   C41227018   4.979   0.150   0.815 -0.0299 -0.3539 -0.1829
   54MOL   C41327019   4.969   0.065   0.933  0.4798  0.0182  0.4073
   54MOL   C41427020   5.088   8.001   0.964 -0.1509 -0.7030 -0.2439
   54MOL   H41527021   5.573   7.655   0.695  1.7484 -0.9711 -0.4100
   54MOL   H41627022   5.654   7.557   0.798  0.0128  2.2848  0.7652
   54MOL   H41727023   5.275   7.619   0.733  1.0152 -0.3994 -0.5648
   54MOL   H41827024   5.245   7.598   0.906 -1.1433 -1.8660 -0.4133
   54MOL   H41927025   5.282   7.468   0.807  0.0030  0.5974 -1.2303
   54MOL   H42027026   5.361   7.965   1.039  0.1894 -0.8486  0.4644
   54MOL   H42127027   5.419   8.005   0.883  1.9590 -2.6271  1.0735
   54MOL   H42227028   5.304   0.110   0.730  0.0432  0.8479  0.5742
   54MOL   H42327029   5.104   0.227   0.654 -0.2167  1.7531  1.9306
   54MOL   H42427030   4.897   0.213   0.782  0.9474  0.4293 -1.1423
   54MOL   H42527031   4.878   0.064   0.991 -0.3608 -0.9401 -0.9014
   54MOL   H42627032   5.082   7.944   1.056 -1.2122 -0.6470 -0.2660
   54MOL   C42727033   5.521   7.535   0.991 -0.3493  0.0749  0.2063
   54MOL   C42827034   5.441   7.507   1.126 -0.0193 -0.3945  0.0386
   54MOL   C42927035   5.391   7.643   1.182 -0.0244 -0.3429  0.4104
   54MOL   C43027036   5.540   7.457   1.237  0.8195  0.4641 -0.0182
   54MOL   O43127037   5.565   7.524   1.338  0.0260 -0.2825 -0.7938
   54MOL   O43227038   5.596   7.333   1.201 -0.0239  0.2813  0.2979
   54MOL   C43327039   5.691   7.280   1.292  0.0859 -0.7767 -0.3002
   54MOL   C43427040   5.751   7.153   1.236 -0.2093  0.0111 -1.7146
   54MOL   C43527041   5.672   7.068   1.158 -0.2615  0.2515 -0.0658
   54MOL   C43627042   5.716   6.949   1.100  0.7233  0.0984 -0.2724
   54MOL   C43727043   5.846   6.911   1.131  0.3601 -0.2012  0.0572
   54MOL   C43827044   5.928   6.982   1.222  0.3806 -0.9673 -0.1029
   54MOL   C43927045   5.879   7.106   1.276  0.7589  0.5562  0.0519
   54MOL   H44027046   5.611   7.593   1.014 -1.8163  3.1663 -1.4298
   54MOL   H44127047   5.547   7.437   0.954  0.8483  0.9433 -1.3092
   54MOL   H44227048   5.338   7.630   1.277  2.5367 -1.2200  1.7601
   54MOL   H44327049   5.316   7.689   1.117 -0.3164 -0.5715  0.5843
   54MOL   H44427050   5.471   7.715   1.203  0.6755 -1.2353  0.8339
   54MOL   H44527051   5.764   7.349   1.333 -3.1468  2.0556  0.9796
   54MOL   H44627052   5.639   7.252   1.384 -0.5537  1.9329  0.2109
   54MOL   H44727053   5.570   7.094   1.134 -0.5939 -0.0690  0.9914
   54MOL   H44827054   5.645   6.895   1.040 -0.2190  0.5291  0.4479
   54MOL   H44927055   5.881   6.818   1.089 -0.5411 -0.0941 -0.9555
   54MOL   H45027056   6.023   6.936   1.245  1.4024  0.8435 -0.6774
   54MOL   H45127057   5.939   7.156   1.351  1.5448  2.1466 -1.6105
   54MOL   C45227058   5.343   7.393   1.101  0.5048 -0.0480  0.9611
   54MOL   C45327059   5.230   7.346   1.193 -0.3531 -0.1823  0.0658
   54MOL   C45427060   5.158   7.239   1.114  0.2097  0.4798  0.3327
   54MOL   C45527061   5.122   7.454   1.214  0.2183 -0.9751 -0.8415
   54MOL   O45627062   5.080   7.493   1.325  0.5340  0.6560 -0.0904
   54MOL   O45727063   5.063   7.496   1.100 -0.0308  0.2674 -0.4937
   54MOL   C45827064   4.978   7.608   1.090  0.1966  0.2841  0.0954
   54MOL   C45927065   4.827   7.575   1.094  0.0426  0.3870 -0.4432
   54MOL   C46027066   4.740   7.644   1.183 -0.7286  0.7166 -0.1057
   54MOL   C46127067   4.602   7.608   1.185  0.9143 -0.2171  0.3246
   54MOL   C46227068   4.548   7.519   1.094 -0.2556 -0.2058 -0.0932
   54MOL   C46327069   4.635   7.460   0.998  0.7584 -0.1454 -0.5650
   54MOL   C46427070   4.770   7.488   0.997  1.4402  0.0592 -1.7509
   54MOL   H46527071   5.404   7.307   1.073  1.1473  0.5433  0.5219
   54MOL   H46627072   5.286   7.412   1.010  1.4880 -3.4515 -0.4228
   54MOL   H46727073   5.204   7.141   1.132  0.0995  0.0040 -1.7819
   54MOL   H46827074   5.143   7.245   1.006 -0.3588 -0.5541  0.3419
   54MOL   H46927075   5.056   7.236   1.152  0.6067 -1.8255  1.3565
   54MOL   H47027076   5.001   7.674   1.173  1.0516  1.5656 -1.1518
   54MOL   H47127077   5.002   7.656   0.995 -1.2709 -1.4217 -1.2018
   54MOL   H47227078   4.768   7.723   1.251  0.2736  0.2867 -0.0142
   54MOL   H47327079   4.537   7.673   1.242 -0.7231 -1.4582 -0.0997
   54MOL   H47427080   4.444   7.490   1.091 -0.6978  1.3775 -0.4614
   54MOL   H47527081   4.597   7.388   0.927  1.5974  1.0865 -2.2967
   54MOL   H47627082   4.829   7.429   0.928  1.4038 -0.4141 -1.3838
   54MOL   C47727083   5.280   7.287   1.332 -0.1104 -0.0945  0.2524
   54MOL   C47827084   5.181   7.198   1.415 -0.7646  0.0619  0.1450
   54MOL   C47927085   5.161   7.243   1.557 -0.1527 -0.6723  0.2495
   54MOL   C48027086   5.231   7.051   1.418 -0.4672  0.6141 -0.1739
   54MOL   O48127087   5.171   6.964   1.357 -0.1700  0.1930 -0.0643
   54MOL   O48227088   5.320   7.033   1.507  0.1809 -0.3626  0.0525
   54MOL   C48327089   5.384   6.906   1.508  0.3650  0.4140 -0.9533
   54MOL   C48427090   5.533   6.920   1.548 -0.7365 -0.4281 -0.1454
   54MOL   C48527091   5.575   7.008   1.649 -0.5419  0.6388  0.0465
   54MOL   C48627092   5.712   7.008   1.683  0.0559  0.9624 -0.5314
   54MOL   C48727093   5.800   6.917   1.631  0.0002  0.4518  0.2826
   54MOL   C48827094   5.759   6.827   1.527  0.5712 -0.5832 -0.6940
   54MOL   C48927095   5.624   6.834   1.485  0.1206 -0.2058 -0.4585
   54MOL   H49027096   5.301   7.371   1.398 -2.0914  0.8696 -0.2947
   54MOL   H49127097   5.373   7.235   1.309  1.0911  2.0460  0.1327
   54MOL   H49227098   5.115   7.168   1.622 -0.9911 -0.9053 -0.6072
   54MOL   H49327099   5.089   7.323   1.569 -1.5250 -1.8069 -0.2450
   54MOL   H49427100   5.251   7.288   1.599 -1.5668  1.6572  0.8478
   54MOL   H49527101   5.332   6.838   1.575  1.1925  0.3311 -0.3844
   54MOL   H49627102   5.372   6.844   1.418  1.3172 -4.2743  1.9740
   54MOL   H49727103   5.516   7.087   1.692  0.2273  0.0362  2.2875
   54MOL   H49827104   5.738   7.080   1.760  0.6769  0.7962 -0.5835
   54MOL   H49927105   5.905   6.909   1.656 -0.4263 -1.8581  1.4832
   54MOL   H50027106   5.830   6.767   1.472  0.1759  1.1727 -3.1769
   54MOL   H50127107   5.602   6.759   1.411 -0.8131  1.1510 -1.6110
   54MOL   H50227108   5.087   7.180   1.362 -0.0111  1.2208 -1.6231
   55MOL     C127109   7.547   6.649   2.350 -0.1226  0.5532  0.0741
   55MOL     C227110   7.513   6.582   2.210 -0.0290  0.3622 -0.0585
   55MOL     C327111   7.439   6.699   2.141 -0.2914  0.3861  0.1055
   55MOL     C427112   7.404   6.467   2.214 -0.2378 -0.6788 -0.5389
   55MOL     O527113   7.381   6.389   2.120 -0.0639  0.2489 -0.5495
   55MOL     O627114   7.335   6.460   2.330  0.0425  0.0242 -0.6642
   55MOL     C727115   7.215   6.383   2.336 -0.2671  0.0495  0.2687
   55MOL     C827116   7.154   6.392   2.477 -0.1594  0.2548 -0.7135
   55MOL     C927117   7.020   6.418   2.482  0.2883 -0.3293  0.6453
   55MOL    C1027118   6.952   6.418   2.606  1.0258  0.0510 -0.6875
   55MOL    C1127119   7.027   6.383   2.723  0.1288  0.0492 -0.1646
   55MOL    C1227120   7.165   6.362   2.712  0.7758  0.4067  0.8752
   55MOL    C1327121   7.233   6.374   2.591  0.6272  0.4904 -0.2504
   55MOL    H1427122   7.456   6.674   2.405 -0.6829  0.6862 -0.8974
   55MOL    H1527123   7.600   6.588   2.423 -0.6659  0.1091  0.1046
   55MOL    H1627124   7.370   6.744   2.213 -1.1525 -0.3428 -0.2431
   55MOL    H1727125   7.374   6.653   2.066  1.1873 -1.1271 -0.2754
   55MOL    H1827126   7.512   6.770   2.104  1.2949 -0.9759  0.5836
   55MOL    H1927127   7.155   6.425   2.256  1.5591  0.1075 -1.1221
   55MOL    H2027128   7.241   6.277   2.325 -0.4657 -0.3203  3.1067
   55MOL    H2127129   6.973   6.443   2.388 -0.9544 -1.6175  0.9151
   55MOL    H2227130   6.845   6.433   2.604  0.9602 -0.4496 -1.0398
   55MOL    H2327131   6.972   6.373   2.815 -2.8334  0.2032 -1.8285
   55MOL    H2427132   7.218   6.337   2.803  0.1604 -2.8171  0.4223
   55MOL    H2527133   7.340   6.365   2.582  0.6023  0.9085 -1.0059
   55MOL    H2627134   7.593   6.747   2.341  0.5446  0.2397  0.0615
   55MOL    C2727135   7.632   6.540   2.117  0.2620 -0.0600 -0.7738
   55MOL    C2827136   7.759   6.467   2.165  0.0696  1.0502 -0.5695
   55MOL    C2927137   7.713   6.342   2.248  0.0469  0.0686  0.0740
   55MOL    C3027138   7.845   6.550   2.262 -0.1214 -0.1612 -0.8222
   55MOL    O3127139   7.918   6.489   2.335  0.6835 -0.4733 -0.4859
   55MOL    O3227140   7.850   6.675   2.234  0.1177 -0.2894 -0.0701
   55MOL    C3327141   7.928   6.762   2.323  0.5711 -0.3075 -0.3393
   55MOL    C3427142   7.925   6.909   2.289 -0.1139 -1.0911 -0.4336
   55MOL    C3527143   7.831   6.956   2.191  0.9533  0.9821 -1.0014
   55MOL    C3627144   7.839   7.090   2.149  0.7778  0.3270 -0.2814
   55MOL    C3727145   7.936   7.178   2.207  0.0285  0.7514  0.0697
   55MOL    C3827146   0.017   7.132   2.306  0.5086  0.2613  0.1426
   55MOL    C3927147   0.012   6.997   2.340 -0.1960 -0.1855 -0.2339
   55MOL    H4027148   7.670   6.632   2.073  2.3316 -1.1984 -1.4571
   55MOL    H4127149   7.608   6.484   2.026 -2.8728 -0.8680  0.4870
   55MOL    H4227150   7.635   6.293   2.190 -0.0799  0.9638 -0.5307
   55MOL    H4327151   7.670   6.353   2.347 -0.7197  5.1596 -0.6763
   55MOL    H4427152   7.792   6.268   2.258  0.3969  0.4880  0.4553
   55MOL    H4527153   7.885   6.740   2.421  0.8592 -1.4468 -0.4548
   55MOL    H4627154   0.021   6.720   2.313  1.5165  1.1906  2.4233
   55MOL    H4727155   7.755   6.896   2.144  1.0248  0.5076 -0.5213
   55MOL    H4827156   7.775   7.132   2.072  1.3832  1.8675  0.0499
   55MOL    H4927157   7.942   7.281   2.174  1.0795  0.9578  0.8760
   55MOL    H5027158   0.087   7.206   2.341  1.3147 -0.7485  0.6901
   55MOL    H5127159   0.086   6.958   2.407 -0.5177 -0.8654 -0.2691
   55MOL    C5227160   7.844   6.403   2.044 -0.5102 -0.3394 -0.5369
   55MOL    C5327161   7.977   6.460   1.975 -0.0835 -0.2517  0.6467
   55MOL    C5427162   0.098   6.430   2.070  0.6434 -0.3037  0.0852
   55MOL    C5527163   7.970   6.610   1.953  1.1014  0.1644  0.1146
   55MOL    O5627164   0.051   6.682   1.995  0.1700 -0.0188  0.4947
   55MOL    O5727165   7.864   6.647   1.879 -0.7188  0.0647  0.0174
   55MOL    C5827166   7.850   6.780   1.843  0.2521 -0.0798  0.0129
   55MOL    C5927167   7.702   6.812   1.829 -0.6980 -0.1847 -0.6024
   55MOL    C6027168   7.611   6.718   1.783  0.5727  0.2750  0.4035
   55MOL    C6127169   7.478   6.745   1.764  0.1848  0.0480  0.3035
   55MOL    C6227170   7.425   6.867   1.799 -0.1141  0.2890 -0.3181
   55MOL    C6327171   7.516   6.963   1.856  0.0205  0.9034  0.2739
   55MOL    C6427172   7.652   6.934   1.875  0.1413  0.4070  0.0808
   55MOL    H6527173   7.773   6.368   1.970  0.7563  0.5186 -2.1799
   55MOL    H6627174   7.887   6.306   2.071  4.2711  1.7030 -0.2024
   55MOL    H6727175   0.195   6.453   2.026  1.2490 -1.1867  0.9252
   55MOL    H6827176   0.097   6.326   2.104  0.7745  0.1055  1.3616
   55MOL    H6927177   0.108   6.490   2.160  1.6752  2.4082 -1.7666
   55MOL    H7027178   7.895   6.848   1.915  0.4749 -1.1940  0.9420
   55MOL    H7127179   7.901   6.806   1.750  0.3937  3.3208  0.9658
   55MOL    H7227180   7.651   6.621   1.758  0.5435 -0.1310  1.8579
   55MOL    H7327181   7.416   6.675   1.711  0.4326  0.5797 -0.6928
   55MOL    H7427182   7.321   6.889   1.783  0.2886  1.1838 -1.7801
   55MOL    H7527183   7.481   7.065   1.870  1.7507  1.8253 -1.8367
   55MOL    H7627184   7.716   7.011   1.916  1.1878 -1.1128  1.3577
   55MOL    C7727185   7.983   6.399   1.827  0.2561  0.4447  0.4749
   55MOL    C7827186   0.013   6.256   1.780  0.1803 -0.1338 -0.1213
   55MOL    C7927187   7.940   6.150   1.863 -0.3114 -0.6998  0.1726
   55MOL    C8027188   0.164   6.222   1.799  0.3625 -0.3891 -0.4699
   55MOL    O8127189   0.244   6.313   1.819  0.0886  0.0187 -0.2416
   55MOL    O8227190   0.206   6.097   1.772 -0.1898 -0.4811  0.0498
   55MOL    C8327191   0.343   6.059   1.793  0.6747  0.0315  0.4785
   55MOL    C8427192   0.378   5.931   1.713 -0.3143  0.1174 -0.3960
   55MOL    C8527193   0.426   5.939   1.577 -0.2168  0.2536 -0.3191
   55MOL    C8627194   0.450   5.819   1.510  0.5391  0.2721 -0.3843
   55MOL    C8727195   0.444   5.697   1.578 -0.3483 -0.1696 -0.3820
   55MOL    C8827196   0.383   5.687   1.706 -0.3085 -0.4369 -0.2424
   55MOL    C8927197   0.352   5.805   1.776  0.7359  0.5545  0.3334
   55MOL    H9027198   0.052   6.459   1.777 -1.2708 -0.2325 -2.7339
   55MOL    H9127199   7.883   6.415   1.789 -0.3752  0.2178  2.0046
   55MOL    H9227200   7.949   6.050   1.822  0.7893 -0.9438  0.9830
   55MOL    H9327201   7.835   6.179   1.868  0.2988  1.4352  1.3901
   55MOL    H9427202   7.972   6.144   1.967  1.1013  2.6111  0.0121
   55MOL    H9527203   0.417   6.135   1.769  1.7576 -1.5532 -1.2920
   55MOL    H9627204   0.349   6.045   1.901  0.6498  1.3952  0.6670
   55MOL    H9727205   0.439   6.035   1.528 -1.4444 -0.7344 -2.6846
   55MOL    H9827206   0.499   5.822   1.414 -0.1516  2.7116 -0.7021
   55MOL    H9927207   0.474   5.607   1.528 -0.5658 -0.2744 -0.3252
   55MOL   H10027208   0.381   5.597   1.766  1.1888 -0.6651 -0.5085
   55MOL   H10127209   0.314   5.800   1.878  0.1668  2.0811  0.2122
   55MOL   C10227210   7.984   6.244   1.623 -0.1487 -0.5858 -0.1764
   55MOL   C10327211   0.023   6.342   1.512  0.1066  0.0083  0.6687
   55MOL   C10427212   7.954   6.482   1.531  0.3585  0.7156 -0.7029
   55MOL   C10527213   7.981   6.285   1.378  0.5057 -0.7896 -0.2392
   55MOL   O10627214   7.898   6.340   1.304  0.3161 -0.2134 -0.2681
   55MOL   O10727215   0.020   6.163   1.351  0.6472  0.0278 -0.1525
   55MOL   C10827216   7.996   6.095   1.231  0.0273  0.0175 -0.8843
   55MOL   C10927217   0.029   5.945   1.232 -0.6085  0.1534 -0.4989
   55MOL   C11027218   0.132   5.894   1.320 -0.1687  0.6035 -0.6542
   55MOL   C11127219   0.177   5.760   1.305 -0.0332  0.1718 -0.0921
   55MOL   C11227220   0.112   5.672   1.209  0.9259  0.2796  0.4411
   55MOL   C11327221   0.008   5.723   1.128 -0.5620 -0.2136  0.2880
   55MOL   C11427222   7.974   5.857   1.144 -0.4725  0.4531  0.1541
   55MOL   H11527223   7.876   6.238   1.620 -0.1260 -0.5978 -1.2107
   55MOL   H11627224   0.011   6.144   1.596  1.3198 -0.0010 -0.5841
   55MOL   H11727225   7.943   6.535   1.437  3.3122 -1.3511 -2.2955
   55MOL   H11827226   0.005   6.539   1.605  0.1511 -0.8158  0.6611
   55MOL   H11927227   7.854   6.463   1.569  1.0108 -0.8670  0.2797
   55MOL   H12027228   7.888   6.082   1.224  0.3718 -3.3969 -0.4671
   55MOL   H12127229   0.038   6.146   1.148  0.3700  2.6511  0.8741
   55MOL   H12227230   0.186   5.966   1.379  1.4428 -1.8170  0.9181
   55MOL   H12327231   0.257   5.727   1.370 -0.6534  0.9400  1.0759
   55MOL   H12427232   0.159   5.576   1.194 -0.5323 -0.5181  0.9957
   55MOL   H12527233   7.959   5.660   1.060  2.8933 -2.6562 -0.4478
   55MOL   H12627234   7.899   5.897   1.076  0.4182  0.2558 -0.9636
   55MOL   C12727235   0.177   6.367   1.510 -0.3964 -0.8466  0.5380
   55MOL   C12827236   0.258   6.424   1.381  0.3436  0.4348  0.7476
   55MOL   C12927237   0.177   6.519   1.296  0.0784 -1.0597  0.3618
   55MOL   C13027238   0.303   6.302   1.295 -0.8575  0.6354  1.2907
   55MOL   O13127239   0.326   6.190   1.336 -0.3403 -0.3263 -0.4028
   55MOL   O13227240   0.332   6.337   1.168  0.4746  0.5382  0.5689
   55MOL   C13327241   0.398   6.249   1.078 -0.2348  0.1900  0.4853
   55MOL   C13427242   0.398   6.300   0.932 -0.0565  0.2477  0.2655
   55MOL   C13527243   0.421   6.216   0.827  0.1356  0.2026 -0.1196
   55MOL   C13627244   0.425   6.267   0.695 -0.4233  0.3651  0.6475
   55MOL   C13727245   0.399   6.395   0.667 -0.4533 -0.1745  0.5711
   55MOL   C13827246   0.371   6.481   0.768  0.2412 -0.4387 -0.1740
   55MOL   C13927247   0.367   6.437   0.897 -0.2282  0.6036 -0.2637
   55MOL   H14027248   0.231   6.278   1.542 -0.7284 -0.8302  1.1460
   55MOL   H14127249   0.190   6.446   1.584 -0.7556  0.6990 -0.9997
   55MOL   H14227250   0.231   6.574   1.220  0.1479 -0.1645  1.0450
   55MOL   H14327251   0.142   6.601   1.360  1.0359 -0.6815  0.3973
   55MOL   H14427252   0.095   6.477   1.239  0.1167  0.1593 -0.6095
   55MOL   H14527253   0.489   6.204   1.117  0.3299  0.3319 -0.6699
   55MOL   H14627254   0.338   6.158   1.075  1.6722 -1.0888  0.5519
   55MOL   H14727255   0.431   6.111   0.852 -0.3301  0.1007 -0.3588
   55MOL   H14827256   0.440   6.194   0.617 -0.2008  0.2261  0.8191
   55MOL   H14927257   0.404   6.425   0.563  1.2217 -3.3938 -0.3552
   55MOL   H15027258   0.353   6.587   0.753 -0.5575 -0.0521  3.0864
   55MOL   H15127259   0.344   6.510   0.974  0.4742  1.0454 -0.4703
   55MOL   C15227260   0.390   6.510   1.425 -0.2236  0.3630  1.0162
   55MOL   C15327261   0.497   6.465   1.538  0.1345 -0.3738  0.0462
   55MOL   C15427262   0.520   6.310   1.537  0.3028  0.3250  0.2828
   55MOL   C15527263   0.454   6.513   1.675 -0.1981  0.3334 -0.9250
   55MOL   O15627264   0.373   6.605   1.704 -0.4733  0.5637  0.5627
   55MOL   O15727265   0.523   6.452   1.772  0.1354  0.4451 -0.4794
   55MOL   C15827266   0.500   6.492   1.908  0.6008  0.3716  0.4429
   55MOL   C15927267   0.609   6.591   1.959  0.1349 -0.2536 -0.0496
   55MOL   C16027268   0.565   6.685   2.053  0.1275 -1.0033 -0.0465
   55MOL   C16127269   0.665   6.776   2.094 -0.2162 -0.0137  0.6606
   55MOL   C16227270   0.795   6.770   2.041 -0.6373 -0.3490  0.2996
   55MOL   C16327271   0.838   6.660   1.967  0.1931  0.3858 -0.3829
   55MOL   C16427272   0.743   6.566   1.927  0.5849  0.3110 -0.2340
   55MOL   H16527273   0.357   6.612   1.445 -0.2459  0.5489  0.0444
   55MOL   H16627274   0.446   6.507   1.332 -0.2961  0.8330  0.9581
   55MOL   H16727275   0.429   6.254   1.558 -0.2740  0.5876 -1.4267
   55MOL   H16827276   0.593   6.289   1.616 -0.4609  1.3986  1.2892
   55MOL   H16927277   0.535   6.269   1.437  0.9148 -0.5431  0.7196
   55MOL   H17027278   0.401   6.536   1.919  0.5694 -0.0164  1.7386
   55MOL   H17127279   0.513   6.407   1.974  1.8018 -0.5984 -0.9986
   55MOL   H17227280   0.466   6.707   2.090  0.6226  0.2129  0.5539
   55MOL   H17327281   0.637   6.858   2.159  1.4169  0.0490  1.2963
   55MOL   H17427282   0.863   6.849   2.068 -0.8374 -0.0707 -0.0255
   55MOL   H17527283   0.942   6.643   1.945  0.3258  0.5911  0.0831
   55MOL   H17627284   0.770   6.489   1.857  2.8296 -0.1930  1.1337
   55MOL   C17727285   0.648   6.525   1.508 -0.1389  0.4634 -0.0698
   55MOL   C17827286   0.660   6.682   1.467 -0.1807 -0.3176 -0.2255
   55MOL   C17927287   0.577   6.775   1.562  0.0050 -0.3754 -0.4905
   55MOL   C18027288   0.613   6.712   1.326 -0.2559 -0.1252 -0.3806
   55MOL   O18127289   0.534   6.803   1.299 -0.0681 -0.5174 -0.0652
   55MOL   O18227290   0.658   6.627   1.237  0.0052  0.2066 -0.3981
   55MOL   C18327291   0.607   6.633   1.104  0.4966  0.0511 -0.6280
   55MOL   C18427292   0.683   6.548   1.012  0.9415 -0.3929  0.2272
   55MOL   C18527293   0.727   6.600   0.889 -0.1115 -0.0571  0.3639
   55MOL   C18627294   0.775   6.512   0.789  0.2897  0.2382  0.4711
   55MOL   C18727295   0.789   6.370   0.816 -0.8668 -0.1096 -0.5242
   55MOL   C18827296   0.755   6.328   0.943 -0.2856  0.0612 -0.7528
   55MOL   C18927297   0.704   6.415   1.038  0.9009 -0.0762  0.1199
   55MOL   H19027298   0.693   6.467   1.428  0.9131 -1.2641  1.7014
   55MOL   H19127299   0.713   6.495   1.590  0.3521 -1.5411 -1.1588
   55MOL   H19227300   0.588   6.882   1.550  0.1701 -0.3714 -0.3064
   55MOL   H19327301   0.599   6.744   1.664 -1.1360 -0.5579 -0.2991
   55MOL   H19427302   0.470   6.769   1.541 -0.1523  1.9070 -0.4586
   55MOL   H19527303   0.505   6.597   1.115  0.3437  0.4662 -0.6491
   55MOL   H19627304   0.604   6.732   1.058  0.1099  0.7253  0.8160
   55MOL   H19727305   0.717   6.705   0.867  1.2327  0.0976  0.5013
   55MOL   H19827306   0.819   6.557   0.701  0.5724 -2.1444 -0.6358
   55MOL   H19927307   0.827   6.300   0.743 -0.3480  1.4980 -1.8331
   55MOL   H20027308   0.775   6.223   0.963 -1.1637  0.0845  0.3105
   55MOL   H20127309   0.689   6.367   1.134  1.7003 -1.8936 -0.6238
   55MOL   C20227310   0.817   6.701   1.480  0.1143 -0.2424 -0.2232
   55MOL   C20327311   0.903   6.836   1.478  0.5307 -1.2308  0.5079
   55MOL   C20427312   0.858   6.926   1.363  0.3483 -0.4394 -1.2098
   55MOL   C20527313   1.049   6.785   1.452 -0.2747 -0.8095 -0.1401
   55MOL   O20627314   1.093   6.676   1.501  0.4371 -0.3983  0.0227
   55MOL   O20727315   1.129   6.867   1.384  0.6503 -0.1463  0.1938
   55MOL   C20827316   1.258   6.840   1.370 -0.4340  0.3994  0.2279
   55MOL   C20927317   1.334   6.941   1.280 -0.5503  0.2176 -1.4367
   55MOL   C21027318   1.445   7.017   1.323  0.1971  0.1629 -0.1473
   55MOL   C21127319   1.505   7.118   1.245 -0.6168 -0.4914  0.3886
   55MOL   C21227320   1.465   7.135   1.110 -0.5228  0.1883  0.2460
   55MOL   C21327321   1.352   7.066   1.064 -0.4575  0.1051 -0.2870
   55MOL   C21427322   1.289   6.969   1.151  0.4512  0.0583 -0.1252
   55MOL   H21527323   0.857   6.636   1.403 -0.2994  0.2556 -0.8603
   55MOL   H21627324   0.836   6.656   1.578 -1.1533 -1.4736 -0.5283
   55MOL   H21727325   0.919   7.016   1.368  0.6437 -0.7406  1.1260
   55MOL   H21827326   0.756   6.960   1.380  1.0978  1.6353 -0.6928
   55MOL   H21927327   0.868   6.891   1.260  1.3463  0.5534 -1.4515
   55MOL   H22027328   1.318   6.834   1.461  0.7002 -0.0788 -0.5411
   55MOL   H22127329   1.258   6.746   1.315 -3.7411  0.8311 -0.6007
   55MOL   H22227330   1.485   6.993   1.421  0.3639  0.2598 -0.1918
   55MOL   H22327331   1.587   7.170   1.294 -0.1417 -0.3268 -0.5751
   55MOL   H22427332   1.513   7.204   1.042  0.4593  0.5396  1.2871
   55MOL   H22527333   1.317   7.086   0.964  2.7026 -0.8252 -1.6178
   55MOL   H22627334   1.197   6.925   1.116  1.3918 -0.6158 -1.8459
   55MOL   C22727335   0.902   6.897   1.621 -0.3038 -0.3138 -0.3058
   55MOL   C22827336   0.947   7.040   1.664  0.1768  0.1729 -0.4151
   55MOL   C22927337   0.913   7.043   1.811 -0.7042  0.1290  0.4397
   55MOL   C23027338   0.851   7.143   1.593  0.3209  0.1165  0.1141
   55MOL   O23127339   0.732   7.166   1.627  0.2690 -0.3235  0.1674
   55MOL   O23227340   0.912   7.204   1.488  1.0227  0.0128  0.2022
   55MOL   C23327341   0.840   7.300   1.405  0.3711  0.0148 -0.3411
   55MOL   C23427342   0.917   7.308   1.273 -0.2683 -0.9778 -0.2225
   55MOL   C23527343   0.858   7.312   1.148  0.4062 -0.3247 -1.0023
   55MOL   C23627344   0.933   7.303   1.033 -0.2486 -0.3839 -0.2882
   55MOL   C23727345   1.075   7.312   1.042 -0.4610  0.0112 -0.1610
   55MOL   C23827346   1.137   7.322   1.164  0.0642  0.5673 -0.6022
   55MOL   C23927347   1.056   7.317   1.280  0.4752 -0.5545 -0.3471
   55MOL   H24027348   0.944   6.836   1.701  0.2707  1.2883  0.6238
   55MOL   H24127349   0.796   6.891   1.648 -0.1446  1.9156  0.8786
   55MOL   H24227350   0.920   7.138   1.865  0.6486 -0.0776  0.6428
   55MOL   H24327351   0.980   6.975   1.864 -0.6969  1.5704  2.3511
   55MOL   H24427352   0.811   7.009   1.827  0.1080 -3.8629 -2.2829
   55MOL   H24527353   0.737   7.266   1.390  0.0791  0.6485  0.2262
   55MOL   H24627354   0.838   7.400   1.448  2.0831 -0.1884  0.2680
   55MOL   H24727355   0.752   7.332   1.147  0.1703 -1.0236  2.0529
   55MOL   H24827356   0.878   7.293   0.941 -2.0915  1.8212  0.5345
   55MOL   H24927357   1.129   7.298   0.949  1.3145 -1.8739  1.1238
   55MOL   H25027358   1.245   7.312   1.172 -0.1723 -1.4277  0.3878
   55MOL   H25127359   1.105   7.308   1.376  0.1880  0.6016 -0.0895
   55MOL   C25227360   1.100   7.059   1.632  0.1658  0.0823 -0.2817
   55MOL   C25327361   1.189   7.182   1.686 -0.1490 -0.0146 -0.1555
   55MOL   C25427362   1.304   7.200   1.581  0.5768 -0.5930 -0.2970
   55MOL   C25527363   1.256   7.145   1.824 -0.0033 -0.2431 -0.3812
   55MOL   O25627364   1.380   7.126   1.827  0.3022  0.2070 -0.3488
   55MOL   O25727365   1.180   7.145   1.931 -0.0447 -0.3289 -0.4414
   55MOL   C25827366   1.232   7.118   2.058 -0.2776  0.0444  0.1685
   55MOL   C25927367   1.126   7.081   2.159  0.5594 -0.9603 -0.3325
   55MOL   C26027368   1.159   7.006   2.269 -0.7922 -0.4868  0.6908
   55MOL   C26127369   1.060   6.982   2.366  0.2205  0.7286 -0.2363
   55MOL   C26227370   0.930   7.036   2.358  0.5780 -0.4647  0.4754
   55MOL   C26327371   0.899   7.111   2.243  0.4316  0.4395  0.0842
   55MOL   C26427372   0.997   7.129   2.143 -0.0054  0.1603 -0.1571
   55MOL   H26527373   1.114   7.068   1.525  0.1964  0.1604 -0.2710
   55MOL   H26627374   1.149   6.963   1.646 -1.3595 -0.7783 -0.6601
   55MOL   H26727375   1.361   7.111   1.558 -1.3681 -1.5186 -1.7497
   55MOL   H26827376   1.372   7.278   1.614 -1.0300  1.5361 -1.8498
   55MOL   H26927377   1.259   7.230   1.486  0.7755  0.1599 -0.1590
   55MOL   H27027378   1.286   7.024   2.044 -0.3295  0.3587 -2.3608
   55MOL   H27127379   1.301   7.192   2.099  0.5058 -0.1380 -0.7975
   55MOL   H27227380   1.260   6.969   2.281 -0.8412 -1.8099 -2.6114
   55MOL   H27327381   1.089   6.913   2.444 -1.6295 -0.7362 -0.8119
   55MOL   H27427382   0.860   7.005   2.434 -0.2317  0.1555 -0.0112
   55MOL   H27527383   0.795   7.138   2.229  0.3209  1.1337  2.0777
   55MOL   H27627384   0.962   7.176   2.052 -0.8351  0.3532  0.2573
   55MOL   C27727385   1.102   7.316   1.688  0.4366  0.0144  0.2481
   55MOL   C27827386   1.157   7.463   1.718  0.6230  0.8640  0.3480
   55MOL   C27927387   1.033   7.543   1.752 -0.4774  0.7030 -0.4675
   55MOL   C28027388   1.219   7.522   1.588 -0.6928  0.8430 -0.8013
   55MOL   O28127389   1.150   7.572   1.497  0.3652  0.2389 -0.3822
   55MOL   O28227390   1.349   7.512   1.579 -0.4499  0.1809  0.3426
   55MOL   C28327391   1.415   7.586   1.472 -0.6527  0.1563  0.1387
   55MOL   C28427392   1.555   7.540   1.440  0.1341 -0.2914 -0.7311
   55MOL   C28527393   1.652   7.602   1.516  0.2386 -0.2366  0.5552
   55MOL   C28627394   1.783   7.567   1.496 -1.1547  0.1195  0.6736
   55MOL   C28727395   1.821   7.482   1.392  0.2300 -0.2160  0.0220
   55MOL   C28827396   1.728   7.427   1.309  0.1260 -0.5406  0.1840
   55MOL   C28927397   1.596   7.459   1.333  0.3361  0.2677 -0.4830
   55MOL   H29027398   1.020   7.289   1.754  0.7757 -0.3326  0.5281
   55MOL   H29127399   1.055   7.329   1.590  0.1779  2.4093  0.6583
   55MOL   H29227400   1.042   7.652   1.749 -0.3133  0.6749 -1.0268
   55MOL   H29327401   0.981   7.514   1.844 -0.4348 -1.9110 -1.2421
   55MOL   H29427402   0.962   7.532   1.670 -0.0206  0.0388 -0.7783
   55MOL   H29527403   1.368   7.568   1.376  0.4139  1.9001 -0.7362
   55MOL   H29627404   1.408   7.689   1.506 -1.6898 -0.0362  0.5319
   55MOL   H29727405   1.619   7.670   1.593 -0.2001  0.9715 -0.6964
   55MOL   H29827406   1.868   7.609   1.547  0.7923  0.6929 -2.8598
   55MOL   H29927407   1.926   7.460   1.386  0.8678  1.9212  2.4273
   55MOL   H30027408   1.761   7.355   1.235 -1.0569 -1.8017  0.8627
   55MOL   H30127409   1.512   7.416   1.280 -1.1638  0.4299  1.7087
   55MOL   C30227410   1.257   7.464   1.835  0.1534  0.0831  0.5626
   55MOL   C30327411   1.303   7.595   1.908 -0.5763 -0.0772 -0.8338
   55MOL   C30427412   1.312   7.725   1.819 -0.0840  0.4987 -0.0791
   55MOL   C30527413   1.448   7.571   1.958 -0.3428 -0.5216  0.6964
   55MOL   O30627414   1.544   7.641   1.914  0.3182  0.0827 -0.3797
   55MOL   O30727415   1.458   7.462   2.044  0.2812 -0.0606  0.3361
   55MOL   C30827416   1.578   7.406   2.087 -0.2848 -0.6424 -0.2861
   55MOL   C30927417   1.628   7.312   1.985 -0.3189  0.0086 -0.0409
   55MOL   C31027418   1.631   7.176   2.025  0.2362  0.3760 -0.2150
   55MOL   C31127419   1.661   7.080   1.928 -0.1588  0.3561  0.2108
   55MOL   C31227420   1.706   7.120   1.798 -0.2608 -0.5129 -0.4558
   55MOL   C31327421   1.702   7.251   1.762 -0.1276 -0.0406  0.0694
   55MOL   C31427422   1.662   7.349   1.853  0.1243  0.1668  0.0415
   55MOL   H31527423   1.346   7.410   1.803 -0.7486 -0.8102 -0.4432
   55MOL   H31627424   1.219   7.394   1.910 -1.5598 -1.7226 -1.9174
   55MOL   H31727425   1.216   7.751   1.775  0.0204  3.0782  1.1328
   55MOL   H31827426   1.382   7.708   1.737 -0.9973  0.5812 -0.8901
   55MOL   H31927427   1.348   7.809   1.878  0.6515 -0.2183  0.4989
   55MOL   H32027428   1.650   7.482   2.116 -0.9979 -0.8816  2.2366
   55MOL   H32127429   1.546   7.358   2.180  1.2373  2.8572  2.1689
   55MOL   H32227430   1.605   7.144   2.125 -0.1423 -0.9661 -0.7240
   55MOL   H32327431   1.677   6.977   1.957 -1.2288  0.0886 -0.1230
   55MOL   H32427432   1.748   7.046   1.731  2.3838  0.1764  0.3851
   55MOL   H32527433   1.720   7.286   1.661 -1.4962  1.6422  0.3846
   55MOL   H32627434   1.658   7.453   1.825  2.4810 -0.2952 -2.2476
   55MOL   C32727435   1.204   7.608   2.030 -0.4505  0.1425 -0.6499
   55MOL   C32827436   1.171   7.737   2.115  0.6798  0.2758 -0.4747
   55MOL   C32927437   1.092   7.845   2.037  0.3887 -0.2756 -0.3861
   55MOL   C33027438   1.299   7.812   2.177  0.2527  0.6099 -0.4570
   55MOL   O33127439   1.312   7.930   2.166  0.4071  0.5636  0.7214
   55MOL   O33227440   1.376   7.722   2.239 -0.0851 -0.0359  0.0232
   55MOL   C33327441   1.491   7.759   2.303 -1.3904 -0.5262  0.4578
   55MOL   C33427442   1.543   7.656   2.406  0.2281  0.9179  0.0447
   55MOL   C33527443   1.473   7.613   2.523  0.0906 -0.1091  0.6820
   55MOL   C33627444   1.537   7.521   2.610 -0.0077 -0.4825 -0.1501
   55MOL   C33727445   1.658   7.463   2.584 -0.8321 -0.0831 -0.0999
   55MOL   C33827446   1.725   7.493   2.463  0.0796  0.2342  0.2947
   55MOL   C33927447   1.668   7.595   2.386  0.0046 -0.0105 -0.5190
   55MOL   H34027448   1.228   7.530   2.102 -0.5285 -0.1292 -0.9153
   55MOL   H34127449   1.103   7.584   1.996 -0.3470  0.7561 -1.4105
   55MOL   H34227450   1.013   7.819   1.968  1.1297 -2.6449 -0.3911
   55MOL   H34327451   1.167   7.892   1.974  1.3647 -0.9549  0.2434
   55MOL   H34427452   1.062   7.927   2.102 -1.2482 -1.4360  0.3690
   55MOL   H34527453   1.562   7.780   2.224 -3.1841  0.5182 -0.9055
   55MOL   H34627454   1.477   7.854   2.355 -0.2692  1.3202 -2.5318
   55MOL   H34727455   1.371   7.647   2.533  0.9329  2.6610  0.2794
   55MOL   H34827456   1.481   7.493   2.698 -1.3984  1.3691 -0.4197
   55MOL   H34927457   1.703   7.389   2.649  1.2464  0.0727 -1.3014
   55MOL   H35027458   1.820   7.448   2.436 -0.3619  0.0592 -0.9843
   55MOL   H35127459   1.733   7.630   2.307  1.9463  0.2217  1.1360
   55MOL   C35227460   1.082   7.702   2.242 -0.4182  1.0770  0.4121
   55MOL   C35327461   0.936   7.634   2.243 -0.1324  0.1747  0.6637
   55MOL   C35427462   0.946   7.477   2.222  0.5894  0.4251 -0.2255
   55MOL   C35527463   0.842   7.675   2.125  0.5139  0.0330  0.4197
   55MOL   O35627464   0.819   7.591   2.037  0.0001 -0.1630 -0.1029
   55MOL   O35727465   0.797   7.801   2.137  0.1347 -0.4100 -0.4170
   55MOL   C35827466   0.711   7.847   2.041  0.5136  0.2354  0.3145
   55MOL   C35927467   0.601   7.938   2.098  0.0085  0.2704  0.2664
   55MOL   C36027468   0.493   7.960   2.010  0.0394 -0.1850  0.4137
   55MOL   C36127469   0.388   0.031   2.058 -0.0510  0.6785  0.3937
   55MOL   C36227470   0.406   0.116   2.173 -0.1580  0.3593  0.2146
   55MOL   C36327471   0.529   0.109   2.243  0.0609  0.0047 -0.0437
   55MOL   C36427472   0.620   0.005   2.213 -0.0555  0.0854 -0.1690
   55MOL   H36527473   1.063   7.797   2.293  1.1846  0.6691  1.8198
   55MOL   H36627474   1.143   7.638   2.306  3.6243  3.9758 -0.3177
   55MOL   H36727475   0.847   7.432   2.216  0.9008  0.0162 -2.5248
   55MOL   H36827476   1.003   7.425   2.299  1.0563  1.8246  0.3936
   55MOL   H36927477   1.005   7.452   2.134 -0.5218 -1.9212 -0.3536
   55MOL   H37027478   0.755   7.917   1.969 -1.3335  2.0643  0.9015
   55MOL   H37127479   0.668   7.763   1.988  1.7452 -0.2051 -0.0056
   55MOL   H37227480   0.486   7.900   1.920 -0.7764 -0.7778  0.8697
   55MOL   H37327481   0.301   0.034   1.994 -0.1699 -1.6540  0.4125
   55MOL   H37427482   0.338   0.192   2.207 -0.2440  1.0514 -1.4577
   55MOL   H37527483   0.554   0.164   2.332  1.1550 -2.2485  1.1061
   55MOL   H37627484   0.702   8.004   2.283 -0.4927  0.9816  0.4571
   55MOL   C37727485   0.868   7.679   2.379 -0.7553  0.0377  0.2231
   55MOL   C37827486   0.927   7.666   2.525  0.1143 -0.3710 -0.2293
   55MOL   C37927487   1.051   7.755   2.549 -0.5450  0.7521  0.3241
   55MOL   C38027488   0.957   7.512   2.548  0.6883 -0.1470  0.1599
   55MOL   O38127489   1.071   7.469   2.569  0.7249  0.3713  0.1244
   55MOL   O38227490   0.842   7.442   2.551  0.0332 -0.2265 -0.1070
   55MOL   C38327491   0.842   7.304   2.541  0.4966 -0.1253 -0.1065
   55MOL   C38427492   0.737   7.241   2.637  0.8924  0.2088 -0.1516
   55MOL   C38527493   0.773   7.180   2.758 -1.0060  0.4534 -0.3247
   55MOL   C38627494   0.678   7.130   2.849  0.5136  0.2525 -0.0455
   55MOL   C38727495   0.544   7.141   2.831 -0.1394 -0.1131 -0.7944
   55MOL   C38827496   0.503   7.185   2.702  0.7508  0.3273 -0.2175
   55MOL   C38927497   0.596   7.240   2.611  0.2159 -0.5838 -0.2790
   55MOL   H39027498   0.770   7.631   2.372 -0.6788 -0.1117  0.1799
   55MOL   H39127499   0.862   7.788   2.380 -1.5082  0.0252 -1.2500
   55MOL   H39227500   1.138   7.716   2.496 -0.9275  0.7069 -0.2705
   55MOL   H39327501   1.082   7.741   2.653  1.3705  1.2656 -0.1517
   55MOL   H39427502   1.033   7.862   2.533 -0.1635  1.3879  3.6698
   55MOL   H39527503   0.806   7.278   2.441 -1.1946 -3.1218  1.2118
   55MOL   H39627504   0.942   7.264   2.553 -0.4686 -1.8884  2.4668
   55MOL   H39727505   0.875   7.166   2.790 -1.5548 -0.2359  1.1656
   55MOL   H39827506   0.709   7.097   2.948  2.5138 -0.7379 -0.9755
   55MOL   H39927507   0.482   7.095   2.907 -0.3382  0.5758 -0.5364
   55MOL   H40027508   0.398   7.194   2.678  0.2551  1.6341  2.2544
   55MOL   H40127509   0.560   7.288   2.521 -0.4373  0.0544  0.3183
   55MOL   C40227510   0.802   7.708   2.620  0.8496 -0.4566 -0.5039
   55MOL   C40327511   0.808   7.737   2.773  0.3376  0.5121  0.4569
   55MOL   C40427512   0.653   7.740   2.814  0.2179  0.0574 -0.1589
   55MOL   C40527513   0.875   7.865   2.820 -0.4137 -0.3676  0.2966
   55MOL   O40627514   0.813   7.964   2.822  0.2266  0.1163 -0.5223
   55MOL   O40727515   1.009   7.846   2.842 -0.0503 -0.1796  0.1236
   55MOL   C40827516   1.099   7.951   2.881  0.1216  0.2279  0.5514
   55MOL   C40927517   1.232   7.905   2.931 -1.0680 -0.9413 -0.5871
   55MOL   C41027518   1.287   7.957   3.053 -1.0479  0.0236 -0.3848
   55MOL   C41127519   1.413   7.895   3.092  0.0078 -0.2748 -0.0735
   55MOL   C41227520   1.483   7.805   3.013  0.7059  0.0081 -0.4595
   55MOL   C41327521   1.422   7.757   2.896  0.4275  0.0446 -0.5105
   55MOL   C41427522   1.300   7.809   2.849 -0.1032  0.0750 -0.1445
   55MOL   H41527523   0.715   7.646   2.599  2.2444 -2.3205 -0.9340
   55MOL   H41627524   0.785   7.803   2.569 -0.4484  0.4871  1.6474
   55MOL   H41727525   0.591   7.789   2.739  0.8647 -0.9316 -1.3487
   55MOL   H41827526   0.633   7.795   2.906 -1.3047 -0.3509 -0.2306
   55MOL   H41927527   0.608   7.641   2.808 -0.5949  0.5108 -1.8433
   55MOL   H42027528   1.102   8.001   2.785  0.4789 -0.1380  0.3682
   55MOL   H42127529   1.049   8.005   2.962  0.4271  1.0671  0.1869
   55MOL   H42227530   1.245   0.029   3.113 -0.0405  0.5962 -0.4244
   55MOL   H42327531   1.459   7.905   3.190  1.4592  3.1679 -1.0395
   55MOL   H42427532   1.577   7.761   3.044 -0.6386 -1.0352  2.3516
   55MOL   H42527533   1.470   7.674   2.846  0.5953 -0.0532 -0.1855
   55MOL   H42627534   1.256   7.770   2.758  1.7920 -0.3742 -0.9057
   55MOL   C42727535   0.865   7.615   2.855 -0.1031  0.0150  0.0368
   55MOL   C42827536   0.850   7.598   3.013 -0.0953 -0.1095 -0.3222
   55MOL   C42927537   0.864   7.733   3.092  0.1266 -0.2813 -0.5745
   55MOL   C43027538   0.970   7.518   3.062  0.6250  0.0595 -0.9539
   55MOL   O43127539   1.042   7.556   3.153  0.6609  0.5187  0.0030
   55MOL   O43227540   1.000   7.405   2.986 -0.0381 -0.3916  0.1553
   55MOL   C43327541   1.115   7.326   3.007  0.0069  0.4324 -0.0566
   55MOL   C43427542   1.121   7.203   2.916 -0.9031 -0.2178  0.1865
   55MOL   C43527543   1.162   7.222   2.787  0.2896 -0.0361  0.5921
   55MOL   C43627544   1.156   7.115   2.702 -0.2623  0.3436 -0.1081
   55MOL   C43727545   1.126   6.984   2.749  0.0356  0.3423 -0.6529
   55MOL   C43827546   1.087   6.968   2.885 -0.1228 -0.2025  0.0400
   55MOL   C43927547   1.099   7.079   2.970  0.1341 -0.0453  0.2574
   55MOL   H44027548   0.969   7.595   2.826 -0.2459 -1.7255  0.6693
   55MOL   H44127549   0.831   7.520   2.814  0.8046  0.7631 -2.6106
   55MOL   H44227550   0.963   7.779   3.081 -0.6626  1.2013 -1.6583
   55MOL   H44327551   0.863   7.706   3.198  1.9565 -0.1755 -0.5096
   55MOL   H44427552   0.782   7.803   3.078 -1.6036 -2.4299 -1.3188
   55MOL   H44527553   1.211   7.377   2.999 -0.4159  0.9488 -2.3943
   55MOL   H44627554   1.120   7.295   3.111  0.3361 -1.9029 -0.7422
   55MOL   H44727555   1.172   7.319   2.742 -0.1194 -0.5589 -0.6415
   55MOL   H44827556   1.165   7.127   2.595 -0.5746 -0.6309 -0.2550
   55MOL   H44927557   1.132   6.897   2.685  2.0211  0.3066 -0.4247
   55MOL   H45027558   1.057   6.871   2.923 -1.0907  0.5725  1.2782
   55MOL   H45127559   1.066   7.071   3.073  0.8685 -1.2026  0.4091
   55MOL   C45227560   0.719   7.518   3.053  0.3156 -0.6216 -0.1856
   55MOL   C45327561   0.678   7.466   3.195  0.4914  0.3266 -0.6598
   55MOL   C45427562   0.541   7.407   3.174 -0.1243 -0.0234 -0.6248
   55MOL   C45527563   0.654   7.586   3.291  0.3154 -0.4459 -0.4023
   55MOL   O45627564   0.721   7.589   3.393 -0.0919 -0.0792 -0.2080
   55MOL   O45727565   0.569   7.679   3.249  0.7226  0.2889 -0.2011
   55MOL   C45827566   0.561   7.799   3.313  0.2673  0.7813  0.7079
   55MOL   C45927567   0.429   7.835   3.365  0.0188  0.2490  0.1864
   55MOL   C46027568   0.400   7.971   3.373  0.0064 -0.2257 -0.7426
   55MOL   C46127569   0.278   0.004   3.425 -0.3152 -0.3819  0.7257
   55MOL   C46227570   0.190   7.920   3.482 -0.2909 -0.2851  0.0349
   55MOL   C46327571   0.209   7.784   3.466  0.8780 -0.9302  0.7299
   55MOL   C46427572   0.335   7.742   3.412  0.0883 -0.0209  0.5706
   55MOL   H46527573   0.721   7.432   2.987 -2.5740 -0.2435 -0.8005
   55MOL   H46627574   0.641   7.586   3.018 -0.0909 -0.9204  0.1354
   55MOL   H46727575   0.485   7.393   3.266 -0.5225 -0.3970 -0.9225
   55MOL   H46827576   0.548   7.313   3.118  1.1021 -1.4521  1.8263
   55MOL   H46927577   0.477   7.473   3.116  0.6648  0.2371 -1.2004
   55MOL   H47027578   0.618   7.799   3.406  0.2502 -1.1793  0.7402
   55MOL   H47127579   0.601   7.871   3.243 -0.1342 -1.1783 -1.5924
   55MOL   H47227580   0.470   0.036   3.334  0.7057 -0.2703  0.3948
   55MOL   H47327581   0.254   0.110   3.425  3.6080  0.6620 -3.6979
   55MOL   H47427582   0.105   7.952   3.540  0.0725 -0.7001  0.8096
   55MOL   H47527583   0.135   7.723   3.517 -0.2938  0.2604  0.4532
   55MOL   H47627584   0.358   7.637   3.409  1.0211  0.1152  2.2382
   55MOL   C47727585   0.769   7.360   3.252  0.0859  0.4672  0.2131
   55MOL   C47827586   0.712   7.276   3.371 -0.4341  0.4143  0.7772
   55MOL   C47927587   0.816   7.261   3.481  0.1885  0.1268  0.5567
   55MOL   C48027588   0.670   7.134   3.330 -0.0996 -0.8995 -0.6864
   55MOL   O48127589   0.708   7.083   3.224  0.3212  1.0605  0.5389
   55MOL   O48227590   0.588   7.077   3.425 -0.1606 -0.0249  0.1522
   55MOL   C48327591   0.539   6.948   3.398  0.3696 -0.4004  0.0511
   55MOL   C48427592   0.451   6.896   3.508 -0.0099 -0.2619 -0.7308
   55MOL   C48527593   0.449   6.972   3.627  0.4707 -0.4335 -0.2558
   55MOL   C48627594   0.379   6.932   3.738  0.0118 -0.3394  0.0573
   55MOL   C48727595   0.297   6.823   3.728  0.1230  0.1783 -0.4555
   55MOL   C48827596   0.293   6.749   3.608  0.0652  0.0424 -0.7418
   55MOL   C48927597   0.360   6.791   3.492  0.1014 -0.2240 -0.2443
   55MOL   H49027598   0.861   7.407   3.288  0.6010 -0.9926  0.8313
   55MOL   H49127599   0.809   7.286   3.183  1.9899  0.9091  0.8174
   55MOL   H49227600   0.863   7.355   3.513  0.7244  0.1019 -0.1500
   55MOL   H49327601   0.906   7.214   3.440  0.3459 -0.8032  1.9384
   55MOL   H49427602   0.776   7.202   3.563 -1.4780 -0.6392 -0.7987
   55MOL   H49527603   0.478   6.951   3.308 -1.0300  0.4592  1.0215
   55MOL   H49627604   0.628   6.884   3.395  0.7795  0.0163  2.3239
   55MOL   H49727605   0.508   7.062   3.636 -1.9036  1.2309 -0.8388
   55MOL   H49827606   0.397   6.991   3.827  0.8530  0.7035 -0.7796
   55MOL   H49927607   0.253   6.781   3.817 -2.2684  2.5471 -0.4497
   55MOL   H50027608   0.244   6.653   3.606 -0.3768  0.1732  1.8155
   55MOL   H50127609   0.359   6.728   3.404  1.5999  1.0062 -1.1718
   55MOL   H50227610   0.616   7.315   3.403 -1.1630 -0.5344 -0.2189
   56MOL     C127611   1.347   0.670   4.464  1.2029  0.0250  0.2365
   56MOL     C227612   1.254   0.676   4.592 -0.9531  1.2335 -0.5928
   56MOL     C327613   1.298   0.551   4.679 -0.1471  0.1720 -0.4419
   56MOL     C427614   1.104   0.669   4.546  0.1674 -0.0544 -0.1721
   56MOL     O527615   1.032   0.570   4.573 -0.6390 -0.1383 -0.4470
   56MOL     O627616   1.062   0.778   4.468  0.2616  0.3537 -0.3554
   56MOL     C727617   0.926   0.809   4.446 -0.0157  0.3851 -0.6116
   56MOL     C827618   0.883   0.841   4.303  1.0996 -0.7171  0.4095
   56MOL     C927619   0.784   0.941   4.293 -0.7546 -0.0228  0.4013
   56MOL    C1027620   0.749   0.989   4.165 -0.1443 -0.2978 -0.5474
   56MOL    C1127621   0.820   0.926   4.052  0.1103  0.2000 -0.1048
   56MOL    C1227622   0.921   0.831   4.061 -0.2579 -0.0783 -0.5052
   56MOL    C1327623   0.946   0.784   4.190  0.3052  0.0765  0.0227
   56MOL    H1427624   1.451   0.657   4.495  1.1926  0.6010  0.5100
   56MOL    H1527625   1.329   0.582   4.403 -0.3595  2.6221 -3.1604
   56MOL    H1627626   1.391   0.571   4.734  0.7129 -0.1907 -1.7324
   56MOL    H1727627   1.319   0.466   4.614  1.2567  0.1826 -0.0263
   56MOL    H1827628   1.219   0.522   4.748 -0.8338 -0.0748 -1.3325
   56MOL    H1927629   0.854   0.744   4.494 -0.4469  0.4223 -1.2014
   56MOL    H2027630   0.923   0.905   4.498  1.3645  0.3692 -0.4688
   56MOL    H2127631   0.740   0.977   4.384  0.2135  2.0418  0.0688
   56MOL    H2227632   0.671   1.062   4.150 -1.0820 -0.2846  3.9657
   56MOL    H2327633   0.788   0.958   3.954 -0.7841  3.6650  1.2355
   56MOL    H2427634   0.974   0.787   3.978  3.0870 -0.0837  1.5235
   56MOL    H2527635   1.026   0.715   4.211 -0.8716 -1.4478 -0.4318
   56MOL    H2627636   1.336   0.753   4.394 -0.6504  1.1840  1.8641
   56MOL    C2727637   1.279   0.815   4.674 -0.2095 -0.0935  0.2236
   56MOL    C2827638   1.242   0.842   4.825  0.0359  0.3795 -0.3435
   56MOL    C2927639   1.351   0.782   4.916  0.1920  0.6147  0.6534
   56MOL    C3027640   1.101   0.783   4.857 -0.5344  0.0611 -0.0157
   56MOL    O3127641   1.087   0.690   4.938 -0.0144 -0.0217 -0.3770
   56MOL    O3227642   0.998   0.841   4.787 -0.1619  0.0770  0.0097
   56MOL    C3327643   0.865   0.804   4.833  0.1455  0.3731 -0.5731
   56MOL    C3427644   0.763   0.882   4.757  0.2988 -0.4892 -0.4021
   56MOL    C3527645   0.673   0.809   4.679 -0.8954  0.6148 -0.2469
   56MOL    C3627646   0.581   0.874   4.598  0.2528  0.1570 -0.2174
   56MOL    C3727647   0.576   1.011   4.589 -0.0591  0.3487 -0.2876
   56MOL    C3827648   0.666   1.083   4.672  0.2432  0.1184 -0.2232
   56MOL    C3927649   0.756   1.021   4.765 -0.6637 -0.5055 -0.1436
   56MOL    H4027650   1.225   0.891   4.618 -2.7462 -2.6064 -0.8634
   56MOL    H4127651   1.384   0.839   4.659 -0.3010  0.4712  0.4483
   56MOL    H4227652   1.359   0.815   5.019  0.7805  0.3655  0.6901
   56MOL    H4327653   1.449   0.791   4.869 -0.2476 -0.3929 -0.4740
   56MOL    H4427654   1.326   0.676   4.921 -0.3512  0.7175  0.1971
   56MOL    H4527655   0.838   0.699   4.834  0.9704  0.1279  3.5656
   56MOL    H4627656   0.856   0.826   4.939  0.6652 -2.0197 -0.0156
   56MOL    H4727657   0.673   0.701   4.683 -0.7634  0.5661 -1.2875
   56MOL    H4827658   0.512   0.806   4.550 -0.3920  1.0336 -0.5473
   56MOL    H4927659   0.513   1.061   4.517 -0.4983 -1.6521 -1.3308
   56MOL    H5027660   0.671   1.191   4.662 -2.0378  0.1147 -1.8408
   56MOL    H5127661   0.807   1.081   4.839 -2.6765 -1.7488  2.3582
   56MOL    C5227662   1.242   1.002   4.841 -0.3314  0.0027  0.0894
   56MOL    C5327663   1.224   1.075   4.982  0.5301  0.0704  0.9083
   56MOL    C5427664   1.121   1.000   5.072  0.0136 -0.1195  0.5668
   56MOL    C5527665   1.159   1.215   4.937 -0.0743  0.8621  0.1251
   56MOL    O5627666   1.040   1.243   4.971  0.5992 -0.0976 -0.5399
   56MOL    O5727667   1.240   1.296   4.866 -0.4607 -0.2240  0.1445
   56MOL    C5827668   1.197   1.430   4.842  0.0344 -0.7368 -1.1890
   56MOL    C5927669   1.176   1.457   4.699 -1.3636  0.2152 -0.6135
   56MOL    C6027670   1.105   1.354   4.621  0.0383  0.2815 -0.2044
   56MOL    C6127671   1.086   1.373   4.486 -0.0731  0.2457  0.2478
   56MOL    C6227672   1.151   1.489   4.432 -0.5685 -0.0145 -0.0579
   56MOL    C6327673   1.216   1.587   4.509  0.6510  0.2822 -0.2982
   56MOL    C6427674   1.224   1.576   4.645  0.2020 -0.5904 -0.2813
   56MOL    H6527675   1.168   1.037   4.770 -0.3473  1.1406  0.6480
   56MOL    H6627676   1.338   1.040   4.807 -0.2674 -0.0314  0.2306
   56MOL    H6727677   1.107   1.055   5.165  0.1459  1.9371 -0.6004
   56MOL    H6827678   1.151   0.901   5.106  2.4094 -0.8881 -3.4870
   56MOL    H6927679   1.025   0.989   5.020  0.1165 -0.6720  0.4883
   56MOL    H7027680   1.094   1.447   4.875  0.0344  0.1145 -1.6192
   56MOL    H7127681   1.265   1.501   4.889  0.3758  0.1477 -3.0083
   56MOL    H7227682   1.068   1.260   4.659 -0.5087  0.0930 -1.1792
   56MOL    H7327683   1.035   1.299   4.425  1.3131 -0.1957 -0.4055
   56MOL    H7427684   1.147   1.507   4.326  2.2690 -0.9167 -0.3567
   56MOL    H7527685   1.251   1.673   4.454  0.2680 -0.2121 -1.3372
   56MOL    H7627686   1.285   1.650   4.694  1.3478  0.4003 -3.0913
   56MOL    C7727687   1.366   1.091   5.057  0.1732  0.7296  0.2535
   56MOL    C7827688   1.388   1.117   5.212 -0.4087  0.1341 -0.6568
   56MOL    C7927689   1.353   0.986   5.291 -0.4818 -0.0601  0.5171
   56MOL    C8027690   1.289   1.230   5.257  0.0762  0.1252  0.6089
   56MOL    O8127691   1.202   1.210   5.340 -0.0226 -0.2802  0.1352
   56MOL    O8227692   1.305   1.355   5.194 -0.4368 -0.1153  0.5397
   56MOL    C8327693   1.214   1.455   5.206  0.1756  0.2931  0.0337
   56MOL    C8427694   1.275   1.566   5.286  0.0324 -0.3978  0.2116
   56MOL    C8527695   1.294   1.550   5.427  0.0294 -0.1203  0.2975
   56MOL    C8627696   1.358   1.653   5.502  0.1802 -0.2249  0.0502
   56MOL    C8727697   1.407   1.774   5.437 -0.2167 -1.0056  0.5352
   56MOL    C8827698   1.390   1.788   5.296 -0.5110  0.5741 -0.1981
   56MOL    C8927699   1.328   1.683   5.229 -0.1137 -0.0837  0.3327
   56MOL    H9027700   1.420   1.167   4.999 -0.2086 -0.0440 -1.1459
   56MOL    H9127701   1.434   1.009   5.036  0.6326  0.7415  1.6390
   56MOL    H9227702   1.403   0.987   5.387 -0.9758 -0.7091  0.7817
   56MOL    H9327703   1.376   0.893   5.239 -2.1275  0.8759 -1.9773
   56MOL    H9427704   1.246   0.977   5.309 -0.7227 -0.2789 -0.9474
   56MOL    H9527705   1.177   1.483   5.107 -0.0908 -0.3323 -0.0452
   56MOL    H9627706   1.127   1.416   5.259  0.1172  1.4785  0.8224
   56MOL    H9727707   1.260   1.455   5.466 -3.9075  0.1776 -2.1468
   56MOL    H9827708   1.366   1.640   5.609 -1.1064  0.7323  0.2804
   56MOL    H9927709   1.460   1.843   5.500 -0.1070  1.0659 -1.7729
   56MOL   H10027710   1.426   1.880   5.253 -3.2969  2.2037  0.8636
   56MOL   H10127711   1.324   1.689   5.121 -1.3578 -0.2358  0.3617
   56MOL   C10227712   1.539   1.157   5.234 -0.9261 -1.0951 -1.3927
   56MOL   C10327713   1.619   1.219   5.363 -0.3502 -0.0200  0.4816
   56MOL   C10427714   1.543   1.179   5.494  0.7301  0.6695  0.4829
   56MOL   C10527715   1.603   1.372   5.352  0.0085  0.1383  0.1270
   56MOL   O10627716   1.563   1.442   5.451 -0.5487 -0.1004 -0.3408
   56MOL   O10727717   1.658   1.424   5.231  0.1311  0.0469 -0.0241
   56MOL   C10827718   1.671   1.558   5.207  0.3440 -0.2352 -0.2612
   56MOL   C10927719   1.632   1.613   5.070 -0.3443  0.0937 -0.9203
   56MOL   C11027720   1.564   1.529   4.978  0.0504 -0.8332 -0.3250
   56MOL   C11127721   1.531   1.587   4.854 -0.6995  0.7732 -0.1102
   56MOL   C11227722   1.555   1.723   4.824 -0.1217 -0.1108  0.3936
   56MOL   C11327723   1.628   1.798   4.915  1.1778 -0.4415 -0.1160
   56MOL   C11427724   1.662   1.748   5.036  0.0153  0.6422 -0.5297
   56MOL   H11527725   1.558   1.224   5.150 -0.3041 -0.2704 -0.6125
   56MOL   H11627726   1.596   1.076   5.189  1.6615  0.3857 -0.9391
   56MOL   H11727727   1.436   1.189   5.477  0.4142 -0.2785  1.7844
   56MOL   H11827728   1.563   1.231   5.588 -3.1411 -0.2934  1.9361
   56MOL   H11927729   1.552   1.072   5.515 -1.1734  0.4649  0.3727
   56MOL   H12027730   1.602   1.604   5.278  1.1258 -2.7974  2.2745
   56MOL   H12127731   1.772   1.596   5.215  0.2695 -0.2782  0.9859
   56MOL   H12227732   1.533   1.428   5.001  0.0636 -1.0538 -1.2474
   56MOL   H12327733   1.477   1.520   4.788  0.2032 -0.5672  0.4911
   56MOL   H12427734   1.518   1.767   4.732  2.0067  1.0973  0.1046
   56MOL   H12527735   1.656   1.902   4.902  0.9865 -0.1572  1.6830
   56MOL   H12627736   1.726   1.799   5.106 -0.0061 -1.3080  0.9786
   56MOL   C12727737   1.772   1.174   5.353  0.2795  0.4274  0.3205
   56MOL   C12827738   1.884   1.231   5.443 -0.7927  0.9661 -0.1572
   56MOL   C12927739   1.838   1.252   5.582  0.2354 -0.4685 -0.7874
   56MOL   C13027740   1.937   1.371   5.384 -0.2084 -0.0548  0.1909
   56MOL   O13127741   1.932   1.481   5.444 -0.1346  0.3056  0.1885
   56MOL   O13227742   1.998   1.359   5.270  0.1096  0.4184  0.4480
   56MOL   C13327743   2.052   1.471   5.212 -0.1390 -0.5654  0.1552
   56MOL   C13427744   2.097   1.449   5.066  0.1578 -0.0256  0.0316
   56MOL   C13527745   2.232   1.481   5.036 -0.2794 -0.0173  0.2698
   56MOL   C13627746   2.271   1.465   4.907  0.2606  0.3175  0.2048
   56MOL   C13727747   2.186   1.410   4.808 -0.4442 -0.1267 -0.5770
   56MOL   C13827748   2.055   1.382   4.838 -0.0881 -0.2162  0.4138
   56MOL   C13927749   2.009   1.405   4.969  0.0637 -0.6083  0.5782
   56MOL   H14027750   1.804   1.160   5.250 -0.3520 -3.3306  0.5796
   56MOL   H14127751   1.757   1.070   5.383  0.6610  0.5520  0.9544
   56MOL   H14227752   1.759   1.326   5.593  1.8651  1.0502  1.1010
   56MOL   H14327753   1.918   1.280   5.651  0.1046 -3.2236  0.5599
   56MOL   H14427754   1.797   1.160   5.626  0.0202  0.4980  1.0878
   56MOL   H14527755   1.977   1.548   5.191  1.2681  0.5167 -1.0343
   56MOL   H14627756   2.127   1.527   5.268  0.6697 -2.8286  1.3778
   56MOL   H14727757   2.295   1.521   5.114 -2.2970 -0.5492  2.1989
   56MOL   H14827758   2.373   1.491   4.887  0.5470  0.4171  1.7364
   56MOL   H14927759   2.216   1.401   4.704 -0.6025 -1.0936 -0.5420
   56MOL   H15027760   1.986   1.351   4.761  1.7211 -0.7511 -1.0338
   56MOL   H15127761   1.904   1.399   4.993 -0.2135  0.4723 -0.2850
   56MOL   C15227762   1.998   1.123   5.442  0.2082  0.1876  0.4064
   56MOL   C15327763   2.149   1.147   5.494  0.0219 -0.0334  0.9373
   56MOL   C15427764   2.160   1.233   5.615  0.7169 -0.0313  0.3387
   56MOL   C15527765   2.235   1.203   5.378  0.4795 -0.0399 -0.0990
   56MOL   O15627766   2.279   1.323   5.375 -0.0727 -0.3115  0.1284
   56MOL   O15727767   2.247   1.115   5.281 -0.1290  0.1318 -0.2739
   56MOL   C15827768   2.299   1.155   5.154  0.5052 -0.4471  0.5562
   56MOL   C15927769   2.449   1.142   5.139  0.2301  0.4682  0.1880
   56MOL   C16027770   2.499   1.020   5.101  0.0734 -0.6741 -0.4372
   56MOL   C16127771   2.641   1.006   5.083  0.0681 -0.3851 -0.4676
   56MOL   C16227772   2.730   1.109   5.119  0.7455  0.4604 -0.5438
   56MOL   C16327773   2.674   1.232   5.167 -0.7602  0.4471  0.3525
   56MOL   C16427774   2.534   1.250   5.174 -0.0390  0.5645 -0.0470
   56MOL   H16527775   2.013   1.092   5.338 -2.0020 -0.4048  0.2377
   56MOL   H16627776   1.966   1.030   5.489  1.3049  0.3219  1.4305
   56MOL   H16727777   2.259   1.248   5.658  0.1018  1.1711  1.3947
   56MOL   H16827778   2.096   1.196   5.695  1.0442  0.8478  1.0169
   56MOL   H16927779   2.135   1.339   5.610 -2.4313 -0.7279  0.1197
   56MOL   H17027780   2.244   1.102   5.077  0.1033  0.3854  0.2727
   56MOL   H17127781   2.266   1.257   5.135  1.3734 -0.5208 -1.4073
   56MOL   H17227782   2.429   0.947   5.067 -0.4842 -0.0971 -0.5411
   56MOL   H17327783   2.690   0.914   5.054 -3.3796 -2.4205 -0.0343
   56MOL   H17427784   2.837   1.092   5.128  0.5377 -0.0189  1.2536
   56MOL   H17527785   2.731   1.311   5.215 -0.4041 -0.2655  1.1292
   56MOL   H17627786   2.490   1.344   5.205  0.3510 -0.4021  3.6475
   56MOL   C17727787   2.204   1.003   5.518  0.8753  0.1471  0.4993
   56MOL   C17827788   2.201   0.928   5.658  0.0958 -0.3795  0.3057
   56MOL   C17927789   2.054   0.911   5.716  0.6938 -0.0067  0.2537
   56MOL   C18027790   2.289   1.000   5.762 -0.1295  0.1363 -0.1774
   56MOL   O18127791   2.242   1.048   5.865 -0.3549  1.0065 -0.0097
   56MOL   O18227792   2.423   1.013   5.729  0.4679 -0.0590 -0.1637
   56MOL   C18327793   2.518   1.089   5.807  0.3540 -0.6890 -0.0179
   56MOL   C18427794   2.527   1.226   5.755  0.0204  0.4852  0.4181
   56MOL   C18527795   2.578   1.246   5.623 -0.1190  0.1964  0.1204
   56MOL   C18627796   2.593   1.369   5.563  0.6751  0.0465  0.3517
   56MOL   C18727797   2.544   1.480   5.632  0.6439  0.2742  0.0166
   56MOL   C18827798   2.491   1.465   5.763  0.5186 -0.3898 -0.3646
   56MOL   C18927799   2.479   1.336   5.829 -0.1744 -0.3532 -0.0539
   56MOL   H19027800   2.312   1.012   5.504  1.0318 -1.5898  0.4106
   56MOL   H19127801   2.157   0.935   5.446  2.3803  0.5147 -0.8653
   56MOL   H19227802   2.034   0.893   5.821  0.5956 -2.4532 -0.1464
   56MOL   H19327803   1.995   0.837   5.661 -0.1163  0.9112 -0.1294
   56MOL   H19427804   2.005   1.005   5.691 -1.4628 -0.5046  2.4940
   56MOL   H19527805   2.489   1.094   5.912  0.3188  1.8546 -0.1245
   56MOL   H19627806   2.619   1.051   5.790  0.6690  0.3352 -0.4831
   56MOL   H19727807   2.613   1.159   5.569 -1.2087 -0.3658  0.3159
   56MOL   H19827808   2.623   1.376   5.460 -1.3129  0.3689 -0.2328
   56MOL   H19927809   2.547   1.582   5.595  1.4887 -0.2003 -1.2592
   56MOL   H20027810   2.453   1.556   5.807 -0.6311 -0.0161 -2.0862
   56MOL   H20127811   2.424   1.327   5.921 -1.4276  0.6482 -0.6905
   56MOL   C20227812   2.269   0.780   5.637 -0.4573  0.1990  0.6910
   56MOL   C20327813   2.226   0.647   5.715  0.1642 -0.1398  0.6513
   56MOL   C20427814   2.197   0.667   5.864 -0.1087  0.1775 -0.5356
   56MOL   C20527815   2.339   0.546   5.693  0.4424  0.3302 -0.1838
   56MOL   O20627816   2.432   0.567   5.619 -0.4736 -0.6429  0.2392
   56MOL   O20727817   2.323   0.428   5.762  1.0559  0.2991 -0.2401
   56MOL   C20827818   2.434   0.332   5.756 -0.0791  0.1545 -0.4164
   56MOL   C20927819   2.490   0.304   5.895  0.1228  0.2112 -0.2068
   56MOL   C21027820   2.624   0.331   5.928 -0.4584 -0.2257 -0.0624
   56MOL   C21127821   2.672   0.304   6.059  0.3094 -0.6650 -0.8907
   56MOL   C21227822   2.580   0.261   6.157 -0.3781  0.1180  0.0787
   56MOL   C21327823   2.445   0.230   6.123  0.1213  0.5101 -0.6003
   56MOL   C21427824   2.403   0.257   5.997  0.3895  1.0981  0.5181
   56MOL   H21527825   2.376   0.801   5.633 -0.8342  1.8835 -2.0624
   56MOL   H21627826   2.244   0.757   5.534  0.8740  1.8080 -0.0387
   56MOL   H21727827   2.190   0.571   5.916  2.3517 -0.2595 -0.9519
   56MOL   H21827828   2.105   0.722   5.882 -1.0878 -0.0971 -4.2451
   56MOL   H21927829   2.269   0.736   5.907 -0.1503  0.1528 -0.4273
   56MOL   H22027830   2.383   0.246   5.711  1.2842  0.4995 -2.6869
   56MOL   H22127831   2.516   0.360   5.690 -0.9836 -0.6047 -1.8823
   56MOL   H22227832   2.678   0.386   5.853 -2.7336  1.9091 -0.1942
   56MOL   H22327833   2.768   0.342   6.093  0.3443 -2.0039  0.5807
   56MOL   H22427834   2.616   0.253   6.258 -1.8636  0.9032  0.6842
   56MOL   H22527835   2.375   0.188   6.195  0.7823 -1.7770 -1.2651
   56MOL   H22627836   2.306   0.219   5.969  0.0530  0.3829  2.5540
   56MOL   C22727837   2.095   0.573   5.657 -0.3428 -0.0989  0.2828
   56MOL   C22827838   2.059   0.525   5.512 -0.7463  0.2185 -0.6201
   56MOL   C22927839   2.177   0.437   5.447  0.0517 -0.2047  0.6731
   56MOL   C23027840   2.039   0.649   5.428  0.1907 -0.3792  0.5460
   56MOL   O23127841   1.957   0.740   5.459  0.2132  0.6447 -0.4768
   56MOL   O23227842   2.090   0.649   5.302 -0.4967 -0.2593 -0.5081
   56MOL   C23327843   2.056   0.763   5.208  0.1884  0.0072  0.2386
   56MOL   C23427844   2.147   0.773   5.093  0.8941 -0.6860 -0.0025
   56MOL   C23527845   2.123   0.880   5.003  0.0934 -0.5237  0.1044
   56MOL   C23627846   2.201   0.897   4.888 -0.4708  0.4864  0.7974
   56MOL   C23727847   2.305   0.797   4.859  0.3075 -0.3911 -0.0317
   56MOL   C23827848   2.318   0.689   4.944 -0.6190  0.7296 -0.0275
   56MOL   C23927849   2.246   0.675   5.060 -0.1127  0.1383  0.0052
   56MOL   H24027850   2.011   0.632   5.696 -1.9047 -2.8902  1.3233
   56MOL   H24127851   2.075   0.484   5.717  0.3508  0.2142  0.9928
   56MOL   H24227852   2.262   0.492   5.407 -0.3539 -0.1774 -0.1596
   56MOL   H24327853   2.130   0.388   5.362 -1.0870  1.5377  0.2830
   56MOL   H24427854   2.206   0.352   5.510 -1.1417  0.7115  2.5119
   56MOL   H24527855   1.953   0.737   5.183  0.5356 -0.2402 -0.9799
   56MOL   H24627856   2.053   0.859   5.259  0.3978  0.6296 -0.9138
   56MOL   H24727857   2.046   0.955   5.003  2.7186  2.2916 -0.4213
   56MOL   H24827858   2.188   0.974   4.813 -1.5322  1.3962  1.8894
   56MOL   H24927859   2.361   0.807   4.768  0.8157 -1.1531  0.1871
   56MOL   H25027860   2.389   0.612   4.918 -2.1490  0.1074 -2.6053
   56MOL   H25127861   2.266   0.591   5.126 -2.0343 -0.4967 -0.1835
   56MOL   C25227862   1.925   0.432   5.519 -0.6821  0.1745  0.3246
   56MOL   C25327863   1.820   0.409   5.402 -0.4306  0.5515  0.1453
   56MOL   C25427864   1.897   0.371   5.277  0.1662  0.6432  0.3222
   56MOL   C25527865   1.738   0.534   5.382 -0.4897 -0.2158 -0.1273
   56MOL   O25627866   1.727   0.593   5.275  0.3360  0.1412 -0.4261
   56MOL   O25727867   1.678   0.574   5.487  0.6351 -0.3001 -0.1082
   56MOL   C25827868   1.591   0.686   5.482 -0.5787  0.1297  0.4660
   56MOL   C25927869   1.448   0.637   5.462 -0.0488  0.4350  0.0332
   56MOL   C26027870   1.373   0.586   5.571 -0.1236  0.4665 -0.3242
   56MOL   C26127871   1.237   0.549   5.547 -0.3332 -0.0200 -0.5318
   56MOL   C26227872   1.180   0.564   5.420  0.6056  0.3062 -0.3923
   56MOL   C26327873   1.261   0.603   5.309 -0.1345  0.4246 -0.7889
   56MOL   C26427874   1.393   0.645   5.332  0.3027  0.2419 -1.1973
   56MOL   H26527875   1.862   0.462   5.603  1.0930  2.6074  0.8567
   56MOL   H26627876   1.957   0.331   5.541 -1.7467 -0.2748 -0.1546
   56MOL   H26727877   1.826   0.349   5.197 -0.5734  0.7045  0.9539
   56MOL   H26827878   1.955   0.280   5.295  1.8403  1.6429  0.0654
   56MOL   H26927879   1.964   0.447   5.238  1.1554  0.3521  1.4104
   56MOL   H27027880   1.599   0.729   5.582 -0.0305  2.3412 -0.5078
   56MOL   H27127881   1.625   0.764   5.415  1.7768  1.3756  2.9980
   56MOL   H27227882   1.420   0.580   5.668  0.1272  1.9543 -0.3380
   56MOL   H27327883   1.174   0.520   5.630 -0.0749 -0.8184 -0.6100
   56MOL   H27427884   1.077   0.546   5.393  0.4498 -0.8351  0.8668
   56MOL   H27527885   1.229   0.612   5.207  0.4156  1.1787 -0.9020
   56MOL   H27627886   1.456   0.685   5.254 -0.5171 -0.4719 -2.2414
   56MOL   C27727887   1.722   0.287   5.448 -1.0665  0.1310  0.1903
   56MOL   C27827888   1.612   0.209   5.357 -0.3812 -0.8811  1.0620
   56MOL   C27927889   1.532   0.312   5.274  0.9635 -0.3920  0.5296
   56MOL   C28027890   1.511   0.142   5.448  0.2973 -0.3091 -0.2263
   56MOL   O28127891   1.534   0.126   5.566 -0.2738 -0.3689 -0.3897
   56MOL   O28227892   1.401   0.095   5.392 -0.8427  0.3739  0.0438
   56MOL   C28327893   1.307   0.020   5.468 -0.6421  0.1340 -0.2172
   56MOL   C28427894   1.164   0.061   5.439 -0.5768  0.5040  0.9834
   56MOL   C28527895   1.061   7.995   5.501 -0.2694 -0.2709 -0.5105
   56MOL   C28627896   0.924   0.012   5.476 -0.1459 -0.1658  0.2781
   56MOL   C28727897   0.897   0.125   5.400  0.0057  0.7156 -0.8047
   56MOL   C28827898   0.995   0.206   5.351 -0.0901  0.4236  0.0288
   56MOL   C28927899   1.129   0.178   5.363 -0.9699 -0.6707  0.2068
   56MOL   H29027900   1.674   0.334   5.534 -0.3677 -0.2161  0.7758
   56MOL   H29127901   1.777   0.215   5.509  2.2686  2.0928 -0.3628
   56MOL   H29227902   1.474   0.378   5.338  1.5835  1.0738 -0.4141
   56MOL   H29327903   1.459   0.261   5.210  2.6432 -0.1852 -1.6117
   56MOL   H29427904   1.596   0.375   5.214  0.0580 -0.2445 -0.3005
   56MOL   H29527905   1.324   7.920   5.453  1.6578  0.1251  2.1435
   56MOL   H29627906   1.315   0.036   5.575  0.6132  0.4488 -0.3524
   56MOL   H29727907   1.082   7.905   5.558 -2.6233 -0.3389  0.2785
   56MOL   H29827908   0.837   7.965   5.509 -0.7969  0.7392  0.0765
   56MOL   H29927909   0.791   0.146   5.391 -0.8687 -3.3324 -1.1505
   56MOL   H30027910   0.947   0.286   5.297  0.0728 -0.9173 -2.2129
   56MOL   H30127911   1.199   0.248   5.322 -1.4107 -0.1777  0.2907
   56MOL   C30227912   1.700   0.106   5.270  0.4704  0.6094 -0.2563
   56MOL   C30327913   1.648   7.980   5.199  0.1899  0.1242  0.1587
   56MOL   C30427914   1.528   0.005   5.109  0.4290  0.4727  0.1162
   56MOL   C30527915   1.606   7.868   5.295  0.7153  0.9954  0.2415
   56MOL   O30627916   1.649   7.867   5.408  0.1077 -0.3255 -0.4608
   56MOL   O30727917   1.534   7.772   5.239  0.1031  0.1911 -0.0856
   56MOL   C30827918   1.534   7.631   5.285 -0.3767  0.1579 -0.2222
   56MOL   C30927919   1.612   7.550   5.188  0.2098 -0.0486  0.4166
   56MOL   C31027920   1.569   7.524   5.056  0.1336  0.1083 -1.0505
   56MOL   C31127921   1.634   7.432   4.976 -0.2730 -0.5414  0.2205
   56MOL   C31227922   1.758   7.382   5.015 -0.5782 -0.1193  0.5122
   56MOL   C31327923   1.803   7.402   5.147  1.0857  0.0105 -0.1327
   56MOL   C31427924   1.730   7.490   5.233 -0.1578 -0.4090  0.2871
   56MOL   H31527925   1.792   0.073   5.320 -0.0075 -0.8885 -0.3356
   56MOL   H31627926   1.744   0.161   5.187  1.4153  0.1854 -0.0517
   56MOL   H31727927   1.433   0.024   5.159  1.6602  0.2392  2.5927
   56MOL   H31827928   1.503   7.937   5.034  1.9126 -0.0624  0.1498
   56MOL   H31927929   1.551   0.096   5.053 -0.9344  0.6891 -0.1163
   56MOL   H32027930   1.579   7.613   5.382 -1.2284 -1.0278 -0.0439
   56MOL   H32127931   1.437   7.583   5.293 -0.3635 -0.0942 -1.4941
   56MOL   H32227932   1.473   7.567   5.034  0.0681 -0.3309 -1.6350
   56MOL   H32327933   1.590   7.405   4.881 -0.6871 -3.4821  1.2143
   56MOL   H32427934   1.812   7.311   4.955 -2.3651 -0.3430 -0.8513
   56MOL   H32527935   1.891   7.346   5.177  1.0703 -0.6607 -1.3133
   56MOL   H32627936   1.776   7.486   5.331  0.1842  0.0924  0.1475
   56MOL   C32727937   1.778   7.918   5.118  0.8224  0.3920 -0.4715
   56MOL   C32827938   1.824   7.966   4.972 -0.1729 -0.2076  0.0668
   56MOL   C32927939   1.832   0.113   4.965 -0.0139 -0.5967  0.0047
   56MOL   C33027940   1.726   7.923   4.860  0.0637  0.2244 -0.5054
   56MOL   O33127941   1.643   7.836   4.881 -0.1166  0.3218  0.7021
   56MOL   O33227942   1.746   7.981   4.740 -0.3834  0.0318 -0.4856
   56MOL   C33327943   1.683   7.920   4.632 -0.3701  0.4899  0.1553
   56MOL   C33427944   1.756   7.795   4.578 -0.5082  0.2917  0.3677
   56MOL   C33527945   1.693   7.669   4.601  1.0446 -0.1863  0.7487
   56MOL   C33627946   1.766   7.556   4.568 -0.1081 -0.0249  0.1821
   56MOL   C33727947   1.889   7.560   4.502  0.1385  0.3427 -0.5724
   56MOL   C33827948   1.952   7.678   4.474 -0.4477 -0.1471  0.3836
   56MOL   C33927949   1.884   7.797   4.516  0.2470 -0.2767 -0.3770
   56MOL   H34027950   1.769   7.809   5.110  3.7685 -0.1110  2.0974
   56MOL   H34127951   1.866   7.951   5.174  0.3868  1.5936 -0.4901
   56MOL   H34227952   1.732   0.155   4.974  0.7338  1.2315  0.0158
   56MOL   H34327953   1.860   0.151   4.867  0.2261  0.0186  0.3063
   56MOL   H34427954   1.893   0.165   5.039 -3.1019  1.5781  1.1216
   56MOL   H34527955   1.575   7.913   4.646 -0.3044  2.1210  1.7220
   56MOL   H34627956   1.695   7.991   4.550  2.0726 -0.5705 -0.4556
   56MOL   H34727957   1.602   7.663   4.659 -0.4267 -3.9065 -1.7743
   56MOL   H34827958   1.724   7.460   4.592 -0.8196  0.1190 -0.4673
   56MOL   H34927959   1.930   7.462   4.483  0.4143  0.6576 -1.6084
   56MOL   H35027960   2.053   7.689   4.435  0.7554  0.9442  3.6027
   56MOL   H35127961   1.922   7.896   4.495  0.0408 -0.1946 -0.3600
   56MOL   C35227962   1.969   7.920   4.937 -0.8160 -0.6142 -0.8298
   56MOL   C35327963   2.029   7.773   4.944 -0.3894 -0.0706 -0.3992
   56MOL   C35427964   1.939   7.680   4.869 -0.2811 -1.0227 -0.1651
   56MOL   C35527965   2.040   7.711   5.089 -0.0590 -0.2539 -0.7647
   56MOL   O35627966   2.035   7.595   5.116 -0.2210 -0.2927 -0.0348
   56MOL   O35727967   2.062   7.802   5.180  0.2564 -0.1462 -0.0460
   56MOL   C35827968   2.046   7.769   5.319  0.0458  0.4260  0.2876
   56MOL   C35927969   2.086   7.878   5.418 -0.0246  0.6502 -0.2328
   56MOL   C36027970   2.042   7.873   5.549 -0.2770  0.4371  0.4990
   56MOL   C36127971   2.070   7.979   5.633  0.6540 -0.7515 -0.6305
   56MOL   C36227972   2.154   0.072   5.592 -0.3801  0.2156  0.1776
   56MOL   C36327973   2.213   0.070   5.467  0.3138  0.6164 -0.4178
   56MOL   C36427974   2.172   7.983   5.373  0.1910  0.1539 -0.7294
   56MOL   H36527975   2.031   7.986   4.999 -1.1091  1.5070 -2.7063
   56MOL   H36627976   2.001   7.954   4.839  0.9888  0.7165  0.1804
   56MOL   H36727977   1.971   7.577   4.861  0.2717 -0.8298 -0.4470
   56MOL   H36827978   1.916   7.724   4.771  0.9722  1.1191  0.4704
   56MOL   H36927979   1.845   7.662   4.921 -0.4468 -2.6065 -0.9966
   56MOL   H37027980   1.939   7.759   5.337  0.3474 -0.2717  1.7962
   56MOL   H37127981   2.079   7.670   5.348  1.4298  0.4870 -1.0391
   56MOL   H37227982   1.972   7.800   5.588 -0.0873  0.0246  0.0685
   56MOL   H37327983   2.037   7.968   5.735  2.7524  1.3075  0.3058
   56MOL   H37427984   2.184   0.158   5.651  0.2694 -0.5306  0.9540
   56MOL   H37527985   2.274   0.152   5.433 -0.5612  1.2382 -0.5089
   56MOL   H37627986   2.201   7.985   5.269  1.1081  2.2244 -0.4570
   56MOL   C37727987   2.170   7.762   4.860  0.4939 -0.0499 -0.2016
   56MOL   C37827988   2.310   7.806   4.908 -0.6223 -0.6709 -0.0916
   56MOL   C37927989   2.346   7.742   5.047 -0.0993  0.3036 -0.6014
   56MOL   C38027990   2.316   7.960   4.923  0.1738 -0.1931 -0.7303
   56MOL   O38127991   2.256   0.031   4.852 -0.0820  0.2594  0.7818
   56MOL   O38227992   2.393   8.005   5.033 -0.1634  0.3479  0.4339
   56MOL   C38327993   2.390   0.143   5.063  0.2031  0.2900  0.7494
   56MOL   C38427994   2.462   0.169   5.192  0.1965 -0.0251  0.6252
   56MOL   C38527995   2.559   0.075   5.259  0.4662  0.2087  0.6004
   56MOL   C38627996   2.621   0.113   5.377  0.0550  0.0569 -0.2636
   56MOL   C38727997   2.597   0.241   5.436 -0.6201  0.2404  0.0366
   56MOL   C38827998   2.518   0.330   5.368 -0.4251 -0.2018  0.0362
   56MOL   C38927999   2.446   0.296   5.246 -0.7716  0.6273 -0.6306
   56MOL   H39028000   2.164   7.806   4.760  1.4158  2.5669  0.8530
   56MOL   H39128001   2.173   7.653   4.850 -2.7875 -0.1999 -0.0484
   56MOL   H39228002   2.296   7.776   5.138  0.0846  3.1275 -1.5039
   56MOL   H39328003   2.453   7.729   5.062 -0.2747  0.9210  1.3296
   56MOL   H39428004   2.323   7.636   5.045  2.3031 -0.2784  0.4471
   56MOL   H39528005   2.433   0.200   4.981 -0.1965 -0.0819  0.2796
   56MOL   H39628006   2.285   0.169   5.069  0.0142 -0.7799  2.6123
   56MOL   H39728007   2.575   7.981   5.226 -0.6296  0.3033 -0.2620
   56MOL   H39828008   2.687   0.047   5.431  0.1571 -0.1010 -0.5756
   56MOL   H39928009   2.638   0.271   5.531  0.1558 -0.1688 -0.1690
   56MOL   H40028010   2.499   0.428   5.410 -2.3912  0.5257 -2.3742
   56MOL   H40128011   2.374   0.361   5.199 -0.8969  0.1112 -1.1545
   56MOL   C40228012   2.431   7.760   4.820  0.1742 -0.0531 -0.2395
   56MOL   C40328013   2.427   7.762   4.660 -0.2262  0.9503 -0.6832
   56MOL   C40428014   2.383   7.898   4.607 -1.0706  0.3673 -0.6795
   56MOL   C40528015   2.336   7.650   4.603 -0.1387  0.6391  0.8266
   56MOL   O40628016   2.257   7.661   4.508 -0.0035 -0.0067  0.4772
   56MOL   O40728017   2.340   7.539   4.683 -0.2239  0.3287 -0.3467
   56MOL   C40828018   2.266   7.430   4.632 -0.6261 -0.1233  0.0309
   56MOL   C40928019   2.250   7.312   4.729  0.8414  0.6018 -0.0554
   56MOL   C41028020   2.366   7.247   4.781 -0.2407  0.2006  0.0747
   56MOL   C41128021   2.355   7.125   4.844  0.5074  0.4693  0.0533
   56MOL   C41228022   2.230   7.071   4.871 -0.5821  0.3961  0.3387
   56MOL   C41328023   2.114   7.144   4.838 -0.6841  0.1040  0.4354
   56MOL   C41428024   2.125   7.265   4.763  0.9371 -0.2013  0.2708
   56MOL   H41528025   2.466   7.666   4.862  1.3748  1.0148  1.2347
   56MOL   H41628026   2.514   7.822   4.857 -0.2462  1.4134 -1.6621
   56MOL   H41728027   2.430   7.979   4.662 -0.8195 -1.7401  2.3302
   56MOL   H41828028   2.277   7.920   4.623 -1.4191 -1.7990  0.1698
   56MOL   H41928029   2.399   7.918   4.501 -1.8670  3.1321 -0.3116
   56MOL   H42028030   2.160   7.447   4.614 -1.2811 -2.2298  1.6916
   56MOL   H42128031   2.315   7.399   4.539  2.8792 -0.9387  2.0506
   56MOL   H42228032   2.464   7.285   4.756  0.0492  0.4285  1.5556
   56MOL   H42328033   2.437   7.071   4.888  0.6381 -0.2447 -1.0433
   56MOL   H42428034   2.218   6.977   4.922  1.2857  0.6184  1.2237
   56MOL   H42528035   2.016   7.110   4.866 -0.2173 -1.7250 -0.1171
   56MOL   H42628036   2.032   7.306   4.725  0.8010 -0.3040  0.4924
   56MOL   C42728037   2.579   7.728   4.621 -0.1109 -0.2705  0.0946
   56MOL   C42828038   2.643   7.692   4.486 -0.4555  0.4344  0.3262
   56MOL   C42928039   2.793   7.697   4.519 -0.2552  0.1746 -0.6324
   56MOL   C43028040   2.613   7.793   4.369 -0.9173  0.5238  0.3087
   56MOL   O43128041   2.694   7.874   4.332  0.1365 -0.3648 -0.0131
   56MOL   O43228042   2.485   7.791   4.324  0.6988 -0.4124 -0.5417
   56MOL   C43328043   2.434   7.884   4.225  0.3518 -0.3007  0.5469
   56MOL   C43428044   2.315   7.818   4.149 -0.1579 -0.1334 -1.1714
   56MOL   C43528045   2.342   7.741   4.035  0.2503 -0.0984 -0.3021
   56MOL   C43628046   2.234   7.694   3.965  0.1771 -0.0797  0.6104
   56MOL   C43728047   2.099   7.722   4.003 -0.2573 -0.2699  0.6242
   56MOL   C43828048   2.075   7.794   4.125 -0.1537 -0.1373  0.5163
   56MOL   C43928049   2.182   7.850   4.191 -0.1592 -0.2937  0.4951
   56MOL   H44028050   2.604   7.644   4.686 -2.4772 -2.7115 -2.0433
   56MOL   H44128051   2.637   7.808   4.667 -1.5731  0.2555  1.0569
   56MOL   H44228052   2.849   7.639   4.445 -0.8680  1.4424 -2.1244
   56MOL   H44328053   2.832   7.642   4.605  0.8608 -0.1278 -1.3203
   56MOL   H44428054   2.837   7.796   4.520 -0.9710  0.4974 -1.1769
   56MOL   H44528055   2.408   7.981   4.268 -1.1142  0.1578 -1.3340
   56MOL   H44628056   2.516   7.911   4.159  0.8516  0.6270  1.5316
   56MOL   H44728057   2.444   7.714   4.012  0.7071  1.8616 -0.6725
   56MOL   H44828058   2.256   7.639   3.874  0.5256  0.4463  0.3712
   56MOL   H44928059   2.007   7.688   3.957  0.1073 -1.1893  0.5586
   56MOL   H45028060   1.981   7.837   4.155  0.1818  0.7194  0.3546
   56MOL   H45128061   2.157   7.917   4.272  0.2396  0.5031 -0.0375
   56MOL   C45228062   2.601   7.543   4.450 -0.4148 -1.0192  0.0796
   56MOL   C45328063   2.684   7.446   4.351  0.6053  0.4190 -0.1645
   56MOL   C45428064   2.579   7.338   4.309  0.2298  0.1777  0.0609
   56MOL   C45528065   2.803   7.380   4.426 -0.0908 -0.1165 -0.2614
   56MOL   O45628066   2.922   7.411   4.398 -0.6865  0.6233  0.1402
   56MOL   O45728067   2.762   7.286   4.513 -0.6732  0.0884 -0.0627
   56MOL   C45828068   2.852   7.220   4.594 -0.2085  0.6577  0.1099
   56MOL   C45928069   2.910   7.092   4.533 -0.2048  0.5094  0.2597
   56MOL   C46028070   2.836   7.003   4.452 -0.0444  0.0325  0.5086
   56MOL   C46128071   2.885   6.872   4.427 -0.3384  0.5013 -0.2101
   56MOL   C46228072   3.011   6.833   4.474  0.5524 -0.0211  0.2929
   56MOL   C46328073   3.096   6.928   4.535 -0.2213  0.6725 -0.4996
   56MOL   C46428074   3.041   7.054   4.562  0.1200  0.0845 -0.1185
   56MOL   H46528075   2.502   7.552   4.407 -0.0593 -1.7132 -0.8977
   56MOL   H46628076   2.587   7.484   4.541 -0.1608 -0.6389  0.3681
   56MOL   H46728077   2.501   7.305   4.377  0.0728 -0.5195 -0.4543
   56MOL   H46828078   2.626   7.243   4.286  0.8224  0.2644  0.9084
   56MOL   H46928079   2.532   7.371   4.216  1.5999 -0.4401 -0.8640
   56MOL   H47028080   2.928   7.296   4.613 -0.1139  0.8967 -1.2020
   56MOL   H47128081   2.810   7.195   4.692  0.5095 -1.0885 -0.0010
   56MOL   H47228082   2.741   7.041   4.419  0.5450  0.2294 -0.9999
   56MOL   H47328083   2.832   6.802   4.363  0.5798  0.0639 -0.5059
   56MOL   H47428084   3.036   6.730   4.454 -1.2441 -0.5118  0.4827
   56MOL   H47528085   3.195   6.895   4.562 -0.7251 -1.5086 -1.1947
   56MOL   H47628086   3.102   7.119   4.623 -0.7277  1.3006 -0.5531
   56MOL   C47728087   2.727   7.521   4.220  0.0667 -1.5446 -0.1020
   56MOL   C47828088   2.810   7.438   4.116  0.3697 -0.2029  0.1524
   56MOL   C47928089   2.945   7.505   4.085  0.4778 -0.3352 -0.2312
   56MOL   C48028090   2.730   7.401   3.997  0.4088  0.0808 -0.1600
   56MOL   O48128091   2.634   7.465   3.956  0.2575  0.1411 -0.3913
   56MOL   O48228092   2.782   7.296   3.931  0.3038 -0.1932 -0.5712
   56MOL   C48328093   2.750   7.275   3.800 -0.2579  0.4792  0.1643
   56MOL   C48428094   2.807   7.149   3.742 -0.4220 -0.7063 -0.2959
   56MOL   C48528095   2.926   7.094   3.794 -0.3482  0.3635  0.2772
   56MOL   C48628096   2.990   6.987   3.728 -0.3003 -0.5120 -0.4235
   56MOL   C48728097   2.932   6.931   3.609  0.1723 -0.6943  0.0628
   56MOL   C48828098   2.814   6.987   3.561  0.3689  0.0367 -0.0020
   56MOL   C48928099   2.752   7.095   3.630  0.1179 -0.2885 -0.0167
   56MOL   H49028100   2.784   7.612   4.241  0.9406 -2.2394  0.5902
   56MOL   H49128101   2.644   7.574   4.174 -0.6779 -0.4780  2.3705
   56MOL   H49228102   3.017   7.456   4.020 -0.9239 -0.2151 -1.9084
   56MOL   H49328103   2.990   7.537   4.179  0.5595 -0.5803 -0.1870
   56MOL   H49428104   2.911   7.593   4.031 -0.4339 -1.3775 -1.3869
   56MOL   H49528105   2.643   7.260   3.790 -0.4537  2.1297 -0.2735
   56MOL   H49628106   2.784   7.358   3.738 -1.0516 -0.3216 -1.3882
   56MOL   H49728107   2.972   7.140   3.880 -2.0692  1.9576  0.3789
   56MOL   H49828108   3.081   6.947   3.769 -1.3761 -0.0227  2.6106
   56MOL   H49928109   2.977   6.848   3.555  1.4468 -0.7565  1.2035
   56MOL   H50028110   2.762   6.944   3.477  0.2096  1.7297 -0.7939
   56MOL   H50128111   2.660   7.136   3.591 -1.1950 -2.5343  0.6350
   56MOL   H50228112   2.829   7.343   4.166  0.5785  1.0168  2.4743
   57MOL     C128113   2.205   3.964   7.278  0.2727 -0.2639  0.0610
   57MOL     C228114   2.230   4.090   7.360 -0.1704  0.7341 -0.7210
   57MOL     C328115   2.312   4.179   7.267 -0.0923  0.1810  0.5219
   57MOL     C428116   2.321   4.048   7.480 -0.4281 -0.0491 -0.0107
   57MOL     O528117   2.322   3.933   7.524  0.8438 -0.1416  0.0928
   57MOL     O628118   2.381   4.157   7.539 -0.1677 -0.1920 -0.4095
   57MOL     C728119   2.452   4.147   7.661 -0.7587 -0.5021  0.2930
   57MOL     C828120   2.592   4.100   7.648 -0.0397 -0.2756  0.1096
   57MOL     C928121   2.695   4.190   7.625 -0.2522  0.3029  0.5425
   57MOL    C1028122   2.823   4.137   7.609 -1.0532  1.2316  0.7031
   57MOL    C1128123   2.844   3.998   7.616 -0.1232  1.1137 -0.3726
   57MOL    C1228124   2.739   3.911   7.649  0.4915 -0.0953  0.2520
   57MOL    C1328125   2.614   3.961   7.674 -0.1410 -0.5576 -0.6165
   57MOL    H1428126   2.145   3.893   7.335 -1.8515  1.1309 -0.3674
   57MOL    H1528127   2.156   3.968   7.181  2.3874 -1.0651 -1.0750
   57MOL    H1628128   2.391   4.114   7.228  0.4034 -0.0912  1.9735
   57MOL    H1728129   2.350   4.269   7.315  1.6453  0.2132 -0.8575
   57MOL    H1828130   2.254   4.218   7.183 -1.4157  0.3158  1.4746
   57MOL    H1928131   2.433   4.230   7.729 -2.2618 -1.3810  0.9542
   57MOL    H2028132   2.393   4.066   7.703 -1.2434  0.0309  0.6476
   57MOL    H2128133   2.672   4.294   7.611  0.1912  0.4434  0.8606
   57MOL    H2228134   2.909   4.202   7.609 -0.8224  0.9258  0.0313
   57MOL    H2328135   2.944   3.959   7.601 -0.3638  0.3925 -0.1358
   57MOL    H2428136   2.749   3.804   7.646 -2.7649 -0.4130 -2.1573
   57MOL    H2528137   2.529   3.908   7.716 -1.2163 -0.0221 -2.0881
   57MOL    H2628138   2.302   3.920   7.253  1.0631  2.6725 -2.2718
   57MOL    C2728139   2.099   4.148   7.417 -0.3938 -0.4742 -0.1514
   57MOL    C2828140   1.993   4.233   7.347 -0.3813  0.1771 -0.0869
   57MOL    C2928141   1.966   4.157   7.210 -0.0473 -0.2288 -1.2062
   57MOL    C3028142   2.058   4.374   7.318 -0.0122  0.2002 -0.3628
   57MOL    O3128143   2.055   4.421   7.198  0.1717 -0.0733  0.1287
   57MOL    O3228144   2.113   4.431   7.429  0.6232 -0.2133  0.1856
   57MOL    C3328145   2.174   4.564   7.413  0.1597  0.6327  0.7017
   57MOL    C3428146   2.293   4.577   7.499  0.7404  0.1712  0.1039
   57MOL    C3528147   2.421   4.566   7.445  0.3194 -0.9022  0.1745
   57MOL    C3628148   2.533   4.568   7.526  0.0015 -0.3455  0.5374
   57MOL    C3728149   2.530   4.569   7.668  0.3215 -1.0117  0.3130
   57MOL    C3828150   2.398   4.574   7.720 -0.4667  0.3231  0.1239
   57MOL    C3928151   2.275   4.576   7.642  0.0429  0.0930  0.0022
   57MOL    H4028152   2.127   4.212   7.501 -0.2504 -1.0519  0.2450
   57MOL    H4128153   2.051   4.060   7.461  0.4855 -1.2305 -0.6847
   57MOL    H4228154   1.937   4.052   7.220 -3.0419  0.8203  2.1976
   57MOL    H4328155   2.060   4.151   7.155 -0.3809  2.0308 -2.0478
   57MOL    H4428156   1.904   4.215   7.142  0.0671  0.3263 -0.8463
   57MOL    H4528157   2.220   4.572   7.314 -1.9133 -4.2566 -0.8222
   57MOL    H4628158   2.098   4.640   7.427 -2.8498 -2.1175 -0.0297
   57MOL    H4728159   2.433   4.541   7.341 -0.7377 -1.6984  0.2373
   57MOL    H4828160   2.628   4.545   7.481 -0.0466 -0.3974  0.4620
   57MOL    H4928161   2.616   4.566   7.734  0.0446 -1.7702  0.6458
   57MOL    H5028162   2.392   4.560   7.827  0.5549 -0.1891  0.1222
   57MOL    H5128163   2.180   4.572   7.693  0.2200  0.2461  0.3441
   57MOL    C5228164   1.859   4.229   7.439 -0.3182  0.2674  0.0845
   57MOL    C5328165   1.742   4.335   7.429  0.2949  0.0871 -0.0795
   57MOL    C5428166   1.718   4.362   7.279  0.4750 -0.8681  0.0774
   57MOL    C5528167   1.772   4.462   7.511  0.5593 -0.1153  0.1833
   57MOL    O5628168   1.788   4.569   7.455  0.0342 -0.3811  0.9288
   57MOL    O5728169   1.797   4.446   7.647 -0.0523  0.3277 -0.3099
   57MOL    C5828170   1.838   4.550   7.737  0.3347 -1.1521  0.5204
   57MOL    C5928171   1.778   4.534   7.868 -0.7899  0.4331 -0.1237
   57MOL    C6028172   1.858   4.573   7.978 -0.4178 -0.2788 -0.3287
   57MOL    C6128173   1.805   4.557   0.102 -0.1148  0.2032 -0.8882
   57MOL    C6228174   1.676   4.501   0.132 -0.6514 -0.4151 -0.1939
   57MOL    C6328175   1.605   4.451   0.022  0.1349  0.9543 -0.5396
   57MOL    C6428176   1.653   4.471   7.894 -0.4033 -0.6086  0.5319
   57MOL    H6528177   1.896   4.242   7.540  0.2944  1.8906 -0.3222
   57MOL    H6628178   1.827   4.125   7.439  1.4887 -0.3172 -0.2670
   57MOL    H6728179   1.699   4.270   7.223  0.3717 -0.3874 -0.6784
   57MOL    H6828180   1.805   4.404   7.230 -0.4412  3.2289  1.7876
   57MOL    H6928181   1.637   4.430   7.253  1.8758  0.9233  0.3585
   57MOL    H7028182   1.945   4.531   7.750  0.9819  1.7931 -0.2318
   57MOL    H7128183   1.827   4.650   7.695  1.5380 -1.4977 -0.6881
   57MOL    H7228184   1.946   4.629   7.952  0.2345 -1.4039 -0.5318
   57MOL    H7328185   1.852   4.599   0.190 -0.0571  0.5544 -1.0865
   57MOL    H7428186   1.626   4.506   0.228 -1.1021 -2.4038 -0.2907
   57MOL    H7528187   1.504   4.420   0.042 -0.0320 -0.3546 -3.2097
   57MOL    H7628188   1.590   4.437   7.813  2.7085 -2.3406 -1.2635
   57MOL    C7728189   1.627   4.263   7.498 -0.3488 -0.0276 -0.1928
   57MOL    C7828190   1.471   4.297   7.481 -0.8024  0.5741  0.4393
   57MOL    C7928191   1.418   4.224   7.353  0.2837  0.0830 -0.1224
   57MOL    C8028192   1.442   4.444   7.458  0.2996 -0.4845 -0.0823
   57MOL    O8128193   1.429   4.482   7.344 -0.1632  0.6119 -0.3757
   57MOL    O8228194   1.455   4.519   7.566 -0.2644  0.0840  0.2230
   57MOL    C8328195   1.441   4.659   7.556  0.0743 -0.1055  0.1619
   57MOL    C8428196   1.406   4.728   7.676 -0.0376  0.1369 -0.6562
   57MOL    C8528197   1.499   4.741   7.783 -0.1848  0.5789  0.1236
   57MOL    C8628198   1.465   4.805   7.899  0.8703 -0.2935 -0.1465
   57MOL    C8728199   1.340   4.868   7.907  0.1237 -0.1079  0.3928
   57MOL    C8828200   1.246   4.857   7.804 -0.2734 -0.4114 -0.5212
   57MOL    C8928201   1.287   4.794   7.683  0.8108 -0.5533  0.0474
   57MOL    H9028202   1.645   4.258   7.605 -1.5252 -2.8442 -0.0705
   57MOL    H9128203   1.623   4.159   7.465  0.2653  0.9087 -3.4629
   57MOL    H9228204   1.433   4.116   7.364 -1.6522 -0.3562 -1.4067
   57MOL    H9328205   1.473   4.248   7.262  0.7381  1.3648  0.4799
   57MOL    H9428206   1.311   4.244   7.347 -0.1248 -1.7873  0.4903
   57MOL    H9528207   1.540   4.701   7.535  1.3710 -3.7812 -1.6333
   57MOL    H9628208   1.380   4.688   7.471  0.2740  0.4002  0.1872
   57MOL    H9728209   1.601   4.713   7.763  0.1487  2.8313 -1.4324
   57MOL    H9828210   1.536   4.828   7.977  1.5855  0.0977 -0.8977
   57MOL    H9928211   1.312   4.922   7.996 -1.7128 -1.3014  0.5579
   57MOL   H10028212   1.155   4.914   7.821  1.3499  1.2616  3.1385
   57MOL   H10128213   1.233   4.804   7.590  0.5382 -1.5995  0.0845
   57MOL   C10228214   1.404   4.244   7.618 -0.2593  0.3564  0.3521
   57MOL   C10328215   1.252   4.229   7.650  0.2727 -0.2449  0.2241
   57MOL   C10428216   1.166   4.335   7.587  0.3234 -0.4501 -0.2027
   57MOL   C10528217   1.256   4.221   7.807 -0.4064 -0.3195  0.2322
   57MOL   O10628218   1.258   4.112   7.866 -0.1343  0.0548  0.3993
   57MOL   O10728219   1.258   4.339   7.869 -0.4038  0.3445  0.4436
   57MOL   C10828220   1.264   4.332   0.002 -0.7384 -0.5882  0.0369
   57MOL   C10928221   1.130   4.305   0.067 -0.1063  0.2532 -0.1688
   57MOL   C11028222   1.124   4.219   0.181 -0.7237  0.0073  0.0758
   57MOL   C11128223   0.996   4.176   0.221  0.5192 -0.4047  0.4531
   57MOL   C11228224   0.874   4.222   0.168 -0.4012 -0.0570  0.0813
   57MOL   C11328225   0.891   4.326   0.066  0.7640 -0.1549 -0.1906
   57MOL   C11428226   1.013   4.358   0.006  0.4731  0.0401  1.4217
   57MOL   H11528227   1.451   4.297   7.701  2.5094 -1.1599 -0.1742
   57MOL   H11628228   1.449   4.145   7.630 -1.3417  0.2419  4.0867
   57MOL   H11728229   1.076   4.332   7.649  1.7911  2.5590  2.2083
   57MOL   H11828230   1.151   4.310   7.482 -0.1671 -1.1407  0.0291
   57MOL   H11928231   1.204   4.437   7.599 -1.1218  0.4905 -3.1380
   57MOL   H12028232   1.332   4.256   0.040  0.5091  1.1892  1.4001
   57MOL   H12128233   1.298   4.427   0.043  2.0309 -1.3664 -0.4063
   57MOL   H12228234   1.211   4.178   0.230 -0.8857 -0.1630  0.2166
   57MOL   H12328235   0.988   4.111   0.307  1.5422  0.8690  1.5458
   57MOL   H12428236   0.777   4.202   0.213  0.5043 -1.1959  1.5835
   57MOL   H12528237   0.805   4.366   0.014  1.6284  0.4893 -1.1389
   57MOL   H12628238   1.020   4.425   7.928  0.1642 -0.6915  0.8105
   57MOL   C12728239   1.206   4.087   7.592  0.0242 -0.1952 -0.0941
   57MOL   C12828240   1.076   3.995   7.606 -0.0566  0.0477  0.5876
   57MOL   C12928241   0.949   4.080   7.630  0.1845 -0.3893 -0.4100
   57MOL   C13028242   1.073   3.893   7.729 -0.1114 -0.7557  0.4329
   57MOL   O13128243   0.976   3.865   7.797 -0.4084 -0.0403 -0.5451
   57MOL   O13228244   1.193   3.830   7.733 -0.2024  0.5798  0.6285
   57MOL   C13328245   1.243   3.757   7.845  0.0662 -0.4942 -0.1327
   57MOL   C13428246   1.208   3.614   7.849 -0.1827  0.5774  0.0543
   57MOL   C13528247   1.294   3.516   7.813  0.3166  0.8493 -0.7469
   57MOL   C13628248   1.265   3.382   7.823  0.5201  0.1365  0.3586
   57MOL   C13728249   1.140   3.346   7.874 -0.2977  0.5792  0.1041
   57MOL   C13828250   1.048   3.447   7.912 -0.4582  1.1078  0.0785
   57MOL   C13928251   1.076   3.577   7.887 -0.1087 -0.5105 -0.8332
   57MOL   H14028252   1.281   4.013   7.618 -1.3508 -1.9483 -1.0469
   57MOL   H14128253   1.235   4.098   7.487 -0.9907  2.7804 -0.1279
   57MOL   H14228254   0.861   4.015   7.622 -1.3336  1.7879 -2.1238
   57MOL   H14328255   0.933   4.163   7.562  0.6146 -0.1430 -0.2116
   57MOL   H14428256   0.959   4.135   7.723 -2.3623 -1.8954  0.8315
   57MOL   H14528257   1.351   3.769   7.848  0.1878 -1.1871 -1.3371
   57MOL   H14628258   1.212   3.804   7.938 -0.3424 -0.7870 -0.1177
   57MOL   H14728259   1.390   3.547   7.775  1.6602 -2.8258 -0.5151
   57MOL   H14828260   1.337   3.306   7.798 -1.0263 -0.9532 -0.9295
   57MOL   H14928261   1.127   3.241   7.894  1.2739  0.5655  1.1468
   57MOL   H15028262   0.954   3.411   7.953 -0.2186  0.8942  0.4417
   57MOL   H15128263   0.998   3.645   7.919  0.1152 -0.9653  0.6711
   57MOL   C15228264   1.056   3.895   7.483 -0.4907  0.0087  0.1331
   57MOL   C15328265   1.028   3.932   7.333  0.1844 -0.6675 -0.7820
   57MOL   C15428266   1.111   4.050   7.282 -0.3613  0.0594 -0.2798
   57MOL   C15528267   0.884   3.980   7.315  0.2703  0.0639 -0.5779
   57MOL   O15628268   0.813   3.957   7.410  0.1385  0.5280  0.8244
   57MOL   O15728269   0.845   4.045   7.204 -0.4419  0.1036  0.2691
   57MOL   C15828270   0.719   4.100   7.195  0.1423  0.5544  0.4608
   57MOL   C15928271   0.678   4.231   7.263  0.1555 -0.2120 -0.2310
   57MOL   C16028272   0.763   4.303   7.352 -0.1203 -0.8709  0.3194
   57MOL   C16128273   0.726   4.424   7.413  0.3618  0.0533  0.1496
   57MOL   C16228274   0.594   4.467   7.407  0.5735  0.3291  0.2353
   57MOL   C16328275   0.509   4.394   7.326  0.0369 -0.0893  0.2891
   57MOL   C16428276   0.552   4.289   7.244 -0.1955  0.3168 -0.6088
   57MOL   H16528277   0.997   3.807   7.509 -0.2916 -0.4145 -0.8358
   57MOL   H16628278   1.156   3.857   7.461 -0.1673  1.2548 -0.5883
   57MOL   H16728279   1.090   4.074   7.178  0.6776 -0.9214 -0.7357
   57MOL   H16828280   1.217   4.027   7.296 -0.8126 -1.0667  1.4519
   57MOL   H16928281   1.083   4.142   7.333  0.5284 -0.1660  0.6446
   57MOL   H17028282   0.681   4.094   7.093 -1.8467  1.8324  1.1046
   57MOL   H17128283   0.641   4.038   7.240  0.2468  0.2133  0.1748
   57MOL   H17228284   0.862   4.261   7.369  0.0512 -0.7655 -0.4302
   57MOL   H17328285   0.798   4.479   7.473  1.5359  0.4420 -1.5973
   57MOL   H17428286   0.559   4.557   7.455 -1.4481 -1.4613  2.2191
   57MOL   H17528287   0.411   4.432   7.299 -0.6366 -2.1686 -0.3679
   57MOL   H17628288   0.479   4.230   7.189 -0.0044 -0.6194  0.1191
   57MOL   C17728289   1.064   3.815   7.238 -0.1263 -0.0396  0.0029
   57MOL   C17828290   1.019   3.666   7.258 -0.3597  0.8508  0.0225
   57MOL   C17928291   0.866   3.668   7.281  0.6113 -0.0144  0.5440
   57MOL   C18028292   1.091   3.605   7.379  0.8797 -0.2765  0.4527
   57MOL   O18128293   1.025   3.566   7.475  0.1037  0.3967  0.0169
   57MOL   O18228294   1.224   3.607   7.366  0.6766  0.0798 -0.0025
   57MOL   C18328295   1.302   3.567   7.485  0.2960  0.0071  0.5913
   57MOL   C18428296   1.434   3.640   7.490  0.2975  0.2152  0.5451
   57MOL   C18528297   1.445   3.768   7.431  0.4857  0.0483  0.2357
   57MOL   C18628298   1.560   3.845   7.465 -0.0753 -0.4161  0.5161
   57MOL   C18728299   1.677   3.779   7.521  0.1105  0.5399 -0.0343
   57MOL   C18828300   1.660   3.647   7.571 -0.4110 -0.3406 -1.0429
   57MOL   C18928301   1.535   3.583   7.558 -0.0803 -0.2368  0.6340
   57MOL   H19028302   1.172   3.800   7.231  0.1847  1.8042  0.4379
   57MOL   H19128303   1.057   3.852   7.135  0.9390  0.3228  0.0568
   57MOL   H19228304   0.843   3.726   7.371  1.4728  1.0556  0.0872
   57MOL   H19328305   0.829   3.566   7.289 -1.7241  0.7171 -0.5811
   57MOL   H19428306   0.803   3.717   7.207 -1.9103  1.0149  3.2498
   57MOL   H19528307   1.244   3.586   7.575 -0.7215 -2.9430  0.6085
   57MOL   H19628308   1.319   3.459   7.483 -2.1500 -0.4089  0.4969
   57MOL   H19728309   1.358   3.808   7.381 -0.8864 -1.4193  1.3784
   57MOL   H19828310   1.570   3.950   7.441 -0.9386 -0.8787 -2.1272
   57MOL   H19928311   1.760   3.841   7.552 -0.8119  1.3213  0.8785
   57MOL   H20028312   1.744   3.602   7.622  0.2711  0.6276 -1.2863
   57MOL   H20128313   1.529   3.478   7.585 -3.2245  0.0134  1.1137
   57MOL   C20228314   1.060   3.592   7.120  0.0285  0.0566  0.1917
   57MOL   C20328315   1.002   3.460   7.061 -1.0418  0.3686  0.0926
   57MOL   C20428316   0.862   3.488   7.007  0.2817 -0.5066  0.0187
   57MOL   C20528317   0.989   3.341   7.157 -0.2421  0.0737 -0.6146
   57MOL   O20628318   0.885   3.276   7.180 -0.2376  0.2493  0.5498
   57MOL   O20728319   1.110   3.322   7.226  0.0603  0.6818 -0.2075
   57MOL   C20828320   1.123   3.211   7.317  0.2924  0.0167  0.9456
   57MOL   C20928321   1.255   3.206   7.386 -0.3336  0.5601  0.4586
   57MOL   C21028322   1.373   3.241   7.314  0.3163  0.3311  0.0003
   57MOL   C21128323   1.503   3.233   7.366  0.6058  0.5707  0.2778
   57MOL   C21228324   1.512   3.185   7.498  0.0148  0.1229  0.1654
   57MOL   C21328325   1.400   3.144   7.570  0.3123 -0.2357 -0.0085
   57MOL   C21428326   1.269   3.156   7.517 -0.0526 -0.3405  0.0915
   57MOL   H21528327   1.168   3.576   7.126 -0.0565 -1.3919 -1.8045
   57MOL   H21628328   1.047   3.669   7.045  4.2544  0.6327 -0.0928
   57MOL   H21728329   0.814   3.396   6.975  1.4132 -1.1490  0.1313
   57MOL   H21828330   0.870   3.560   6.926 -1.8077  0.2487  0.4516
   57MOL   H21928331   0.800   3.526   7.088  0.3472  2.7313 -1.3995
   57MOL   H22028332   1.040   3.206   7.387 -0.8389  0.8880 -0.3035
   57MOL   H22128333   1.105   3.114   7.271 -1.4665  0.1946  1.2142
   57MOL   H22228334   1.362   3.264   7.209  0.0486 -0.3933 -0.1329
   57MOL   H22328335   1.581   3.258   7.295  0.7948  0.6340  0.5103
   57MOL   H22428336   1.608   3.169   7.544  0.9332  1.0852 -1.3357
   57MOL   H22528337   1.410   3.111   7.672 -0.7590  0.5326  0.3583
   57MOL   H22628338   1.192   3.116   7.581  0.6628 -1.2440  0.4118
   57MOL   C22728339   1.111   3.424   6.954  0.0271 -0.2842  0.6187
   57MOL   C22828340   1.110   3.296   6.861 -0.2468 -0.3991  0.0558
   57MOL   C22928341   0.963   3.266   6.820 -0.4430 -0.7289 -0.3776
   57MOL   C23028342   1.165   3.171   6.931  0.3588 -0.1362 -0.2022
   57MOL   O23128343   1.235   3.168   7.032  0.6489 -0.4018 -0.4936
   57MOL   O23228344   1.118   3.059   6.875 -0.1548 -0.2598  0.5855
   57MOL   C23328345   1.161   2.931   6.911 -0.0217  0.7449 -0.2940
   57MOL   C23428346   1.107   2.885   7.045  0.2742  0.1234 -0.1066
   57MOL   C23528347   1.181   2.800   7.122 -0.0507  0.3256  0.1314
   57MOL   C23628348   1.144   2.766   7.250 -0.3631  0.1054 -0.4385
   57MOL   C23728349   1.025   2.815   7.311  0.1971 -0.6176 -0.1218
   57MOL   C23828350   0.949   2.904   7.238 -0.1909 -1.0045  0.1342
   57MOL   C23928351   0.987   2.940   7.103  0.1147 -0.2906 -0.3207
   57MOL   H24028352   1.213   3.415   6.992  1.2959  1.2127 -2.3074
   57MOL   H24128353   1.112   3.515   6.895 -0.0953 -0.2255  0.7077
   57MOL   H24228354   0.971   3.191   6.741 -1.0139  1.0499 -2.1283
   57MOL   H24328355   0.912   3.347   6.769  2.8545  0.0635 -2.5470
   57MOL   H24428356   0.902   3.217   6.896 -0.0940  0.1902  0.5100
   57MOL   H24528357   1.122   2.854   6.844  0.1332 -0.6054  1.1354
   57MOL   H24628358   1.269   2.922   6.913 -0.1977 -1.4739  2.9030
   57MOL   H24728359   1.274   2.761   7.085 -1.0808 -0.1166 -2.0958
   57MOL   H24828360   1.218   2.700   7.294  0.1735  2.1356  1.7679
   57MOL   H24928361   0.994   2.793   7.412  3.1944 -0.6072  0.8494
   57MOL   H25028362   0.856   2.946   7.275 -0.5518  0.4567 -2.3614
   57MOL   H25128363   0.930   3.012   7.046  1.8128  0.4067 -1.1724
   57MOL   C25228364   1.183   3.327   6.726 -0.1872  0.4998  0.1809
   57MOL   C25328365   1.341   3.327   6.700  0.0543 -0.2589 -0.5243
   57MOL   C25428366   1.367   3.383   6.555 -0.1820  0.2055 -0.4854
   57MOL   C25528367   1.391   3.184   6.710 -0.2094 -0.3744 -0.0935
   57MOL   O25628368   1.449   3.140   6.809  0.3971  0.8385 -0.1626
   57MOL   O25728369   1.369   3.105   6.600  0.1535  0.0110  0.6360
   57MOL   C25828370   1.435   2.984   6.584  0.5309  0.4058 -0.5348
   57MOL   C25928371   1.395   2.866   6.665 -0.5119 -0.3832 -0.1010
   57MOL   C26028372   1.476   2.817   6.768  0.3823  0.7346  0.6988
   57MOL   C26128373   1.448   2.695   6.836 -0.0812  0.2595  0.0176
   57MOL   C26228374   1.343   2.615   6.793 -0.9852 -0.3858  0.1917
   57MOL   C26328375   1.268   2.661   6.683 -0.1658 -1.0632  0.4965
   57MOL   C26428376   1.292   2.782   6.617 -0.1294 -0.1970 -0.1243
   57MOL   H26528377   1.142   3.422   6.693  0.6416  0.9486  0.4284
   57MOL   H26628378   1.142   3.257   6.653 -0.7824 -0.7559  1.6748
   57MOL   H26728379   1.366   3.491   6.539  1.3532  0.0660 -1.5822
   57MOL   H26828380   1.277   3.356   6.499 -1.2271 -0.3879  1.4292
   57MOL   H26928381   1.442   3.326   6.501 -1.0300  1.3089 -2.8575
   57MOL   H27028382   1.411   2.955   6.481 -1.7798 -1.2299  0.4083
   57MOL   H27128383   1.544   2.988   6.580  0.5189 -0.6811 -3.4968
   57MOL   H27228384   1.559   2.876   6.805  0.1481  1.1501  0.5723
   57MOL   H27328385   1.510   2.650   6.912 -0.6862 -2.8127 -1.2246
   57MOL   H27428386   1.317   2.522   6.841 -0.8766 -0.2054  0.6053
   57MOL   H27528387   1.191   2.600   6.639 -0.7856  1.5173 -2.1661
   57MOL   H27628388   1.234   2.810   6.531 -0.7084 -0.6981  0.0993
   57MOL   C27728389   1.419   3.415   6.802  0.0711  0.6463  0.1015
   57MOL   C27828390   1.566   3.481   6.781  0.6219 -0.3676  0.5153
   57MOL   C27928391   1.530   3.627   6.745  0.6565 -0.6255  0.2526
   57MOL   C28028392   1.647   3.426   6.667 -0.6846  0.2253  0.3981
   57MOL   O28128393   1.655   3.483   6.556  0.1811 -0.0653 -0.4823
   57MOL   O28228394   1.712   3.307   6.702 -0.2413 -0.0025 -0.3625
   57MOL   C28328395   1.780   3.228   6.609  0.0860 -0.1704 -0.1970
   57MOL   C28428396   1.867   3.120   6.674 -0.6223  0.0423  0.2513
   57MOL   C28528397   2.001   3.127   6.641 -0.7863  0.7721  0.5369
   57MOL   C28628398   2.093   3.044   6.706 -0.2209 -0.2815 -0.1679
   57MOL   C28728399   2.041   2.957   6.801  0.5248  0.1037 -0.3305
   57MOL   C28828400   1.904   2.935   6.824 -0.3514 -0.6933 -0.2488
   57MOL   C28928401   1.817   3.020   6.755 -0.3154  0.1612  0.2900
   57MOL   H29028402   1.410   3.370   6.901  1.9833  0.5527  0.2454
   57MOL   H29128403   1.358   3.505   6.817  0.9460  1.1367  0.7631
   57MOL   H29228404   1.474   3.690   6.814  2.1731  0.8354  0.1714
   57MOL   H29328405   1.469   3.635   6.655  0.4532  1.8503  0.5770
   57MOL   H29428406   1.618   3.686   6.719 -0.6371  0.6942 -1.2117
   57MOL   H29528407   1.704   3.189   6.541  3.2364 -2.7958 -2.3649
   57MOL   H29628408   1.842   3.287   6.541  0.1362  0.8570  0.7278
   57MOL   H29728409   2.036   3.200   6.570  0.5972  0.9016  1.3393
   57MOL   H29828410   2.194   3.032   6.671 -0.3149  1.0592 -0.9195
   57MOL   H29928411   2.115   2.900   6.855 -0.5783  0.9970  2.1965
   57MOL   H30028412   1.874   2.865   6.901 -0.9079  1.6810  1.7587
   57MOL   H30128413   1.712   3.022   6.778  0.3395  1.4248  3.4496
   57MOL   C30228414   1.654   3.478   6.916 -0.0795 -0.3102 -0.1793
   57MOL   C30328415   1.643   3.578   7.037 -0.1857 -0.0368  0.0896
   57MOL   C30428416   1.492   3.594   7.075 -1.3574 -0.2606  0.5383
   57MOL   C30528417   1.704   3.713   7.004  0.5202 -0.2502 -0.6503
   57MOL   O30628418   1.772   3.731   6.903  0.3876 -0.1107  0.1094
   57MOL   O30728419   1.691   3.805   7.102 -0.0565 -0.4928 -0.0058
   57MOL   C30828420   1.721   3.939   7.072 -0.3338 -0.3651  0.3426
   57MOL   C30928421   1.605   4.002   6.991 -0.8505 -0.2953 -0.9971
   57MOL   C31028422   1.468   3.968   7.019  0.2847  0.9228 -0.3652
   57MOL   C31128423   1.365   4.019   6.937 -0.4120 -0.3487  0.2096
   57MOL   C31228424   1.398   4.103   6.829 -0.2626 -0.0622  0.4752
   57MOL   C31328425   1.531   4.151   6.812  0.1909 -0.0749  0.1888
   57MOL   C31428426   1.634   4.098   6.892 -0.0167  0.0220 -1.2939
   57MOL   H31528427   1.759   3.485   6.890 -0.2389  2.6383 -0.2053
   57MOL   H31628428   1.641   3.377   6.957  2.9090 -0.6477  0.0306
   57MOL   H31728429   1.440   3.498   7.073 -0.4071 -0.7576 -1.6308
   57MOL   H31828430   1.432   3.667   7.020 -0.7234 -0.1838 -0.0522
   57MOL   H31928431   1.482   3.628   7.178 -1.4170 -1.8717  1.0725
   57MOL   H32028432   1.735   3.985   7.170  3.8508  0.6691 -0.6235
   57MOL   H32128433   1.815   3.946   7.017  0.1419  0.1777  1.2130
   57MOL   H32228434   1.438   3.918   7.110  0.2416  0.0658 -0.8410
   57MOL   H32328435   1.261   4.003   6.960 -0.1885 -2.0401  0.0759
   57MOL   H32428436   1.320   4.153   6.774  2.6124  3.9320 -0.1859
   57MOL   H32528437   1.548   4.225   6.735  1.2100 -1.2575 -0.7554
   57MOL   H32628438   1.737   4.130   6.883  0.5623 -0.5157  2.4546
   57MOL   C32728439   1.714   3.524   7.172 -0.0551  0.2220 -0.0300
   57MOL   C32828440   1.874   3.491   7.180  0.5970 -0.3072 -0.8474
   57MOL   C32928441   1.970   3.615   7.200 -0.1711 -0.6911 -0.7254
   57MOL   C33028442   1.924   3.401   7.073  0.1772  0.0424 -0.2574
   57MOL   O33128443   1.868   3.295   7.042  0.5280 -0.0723 -0.0875
   57MOL   O33228444   2.035   3.439   7.019  0.3933 -0.6821 -0.2578
   57MOL   C33328445   2.112   3.356   6.940 -0.7958 -1.1021 -0.3279
   57MOL   C33428446   2.259   3.400   6.911  0.9316 -0.6436 -0.0417
   57MOL   C33528447   2.358   3.312   6.867  0.3427  0.2062 -0.1971
   57MOL   C33628448   2.490   3.350   6.846  0.1534  0.1586 -0.4711
   57MOL   C33728449   2.530   3.483   6.859  0.8454  0.5123 -0.2408
   57MOL   C33828450   2.432   3.573   6.903 -0.0910  0.2173 -0.6096
   57MOL   C33928451   2.299   3.538   6.923 -0.1096 -0.1132  0.1555
   57MOL   H34028452   1.654   3.436   7.197  0.5313  0.1169  1.0324
   57MOL   H34128453   1.690   3.582   7.261  2.6158 -1.1669  1.6739
   57MOL   H34228454   2.073   3.588   7.224 -0.0977 -1.4439 -1.8569
   57MOL   H34328455   1.931   3.675   7.282  2.6057  1.1235 -0.6552
   57MOL   H34428456   1.956   3.681   7.115  0.6433  1.8645  1.0561
   57MOL   H34528457   2.102   3.258   6.986 -1.6845 -0.0326  1.8236
   57MOL   H34628458   2.073   3.348   6.839  1.6767  0.5098 -1.4540
   57MOL   H34728459   2.325   3.211   6.851 -3.4407  1.3307 -0.0508
   57MOL   H34828460   2.554   3.270   6.813 -1.0333 -0.9047 -0.2215
   57MOL   H34928461   2.633   3.514   6.849  0.9592 -0.1004 -1.0211
   57MOL   H35028462   2.470   3.672   6.923  0.7798 -0.1636 -0.3515
   57MOL   H35128463   2.218   3.607   6.946 -0.5792  0.0264 -1.8227
   57MOL   C35228464   1.889   3.404   7.312  0.4266  0.2042  1.0023
   57MOL   C35328465   2.013   3.328   7.375  0.2966 -0.1425  0.3809
   57MOL   C35428466   1.957   3.267   7.504  0.1331  0.5083 -0.1511
   57MOL   C35528467   2.121   3.433   7.426 -0.1130 -0.0247 -0.0769
   57MOL   O35628468   2.233   3.431   7.372  0.3241  0.2883  0.2790
   57MOL   O35728469   2.077   3.514   7.527 -0.2228 -0.0473  0.3896
   57MOL   C35828470   2.176   3.596   7.588 -0.0199 -0.7548 -0.4828
   57MOL   C35928471   2.115   3.636   7.718 -0.7948 -0.3152 -0.2053
   57MOL   C36028472   2.181   3.609   7.843 -0.2382 -0.8669 -0.0675
   57MOL   C36128473   2.119   3.655   7.966  0.6445 -0.1198  0.1373
   57MOL   C36228474   2.001   3.736   7.959  0.3063 -0.4909  0.2222
   57MOL   C36328475   1.938   3.756   7.836 -0.1896  0.4171  0.3905
   57MOL   C36428476   1.998   3.710   7.717 -0.3144 -0.7294 -0.1834
   57MOL   H36528477   1.812   3.328   7.316  2.6356 -2.4116 -2.8645
   57MOL   H36628478   1.858   3.473   7.390  2.2364  2.5230 -0.2399
   57MOL   H36728479   1.907   3.338   7.569  3.0474  1.1003  1.5178
   57MOL   H36828480   2.026   3.224   7.576 -0.1233  1.1510  0.4791
   57MOL   H36928481   1.883   3.190   7.479 -0.5101  0.7717  0.9195
   57MOL   H37028482   2.270   3.548   7.615 -0.0408 -0.4275  0.1844
   57MOL   H37128483   2.207   3.676   7.521  0.3060 -1.0832 -0.7259
   57MOL   H37228484   2.279   3.565   7.845 -0.7685 -2.0584 -0.0482
   57MOL   H37328485   2.169   3.646   0.054  0.4102  2.0527  0.4869
   57MOL   H37428486   1.958   3.774   0.043 -1.5469  1.7778 -1.5422
   57MOL   H37528487   1.848   3.816   7.838 -0.6602 -0.3118  1.3719
   57MOL   H37628488   1.959   3.732   7.619  2.1568 -0.4841 -1.1333
   57MOL   C37728489   2.076   3.211   7.279  0.6637  0.5456 -0.4968
   57MOL   C37828490   2.155   3.084   7.323  0.3464  0.5230 -0.0347
   57MOL   C37928491   2.204   3.013   7.188 -0.8174  0.0360 -0.0345
   57MOL   C38028492   2.056   2.986   7.399  0.0280 -0.7064  0.2274
   57MOL   O38128493   2.051   2.977   7.519 -0.1369 -0.4356  0.0714
   57MOL   O38228494   1.969   2.918   7.309 -0.9219 -0.5425 -0.0117
   57MOL   C38328495   1.875   2.832   7.360 -0.4457  0.3668 -0.5328
   57MOL   C38428496   1.742   2.868   7.303 -0.0172  0.3252  0.9356
   57MOL   C38528497   1.721   2.947   7.181 -0.7458  0.0875  0.8260
   57MOL   C38628498   1.591   2.970   7.129 -0.2908 -0.2992  0.3682
   57MOL   C38728499   1.479   2.918   7.199  0.0775  0.3456  0.4100
   57MOL   C38828500   1.499   2.844   7.322 -0.1541  0.8519  0.0092
   57MOL   C38928501   1.624   2.813   7.370  0.3196 -0.5009 -0.1639
   57MOL   H39028502   2.133   3.265   7.204 -1.0087 -0.2632 -2.3990
   57MOL   H39128503   1.990   3.171   7.226  1.2339 -1.5006  0.1018
   57MOL   H39228504   2.128   3.022   7.110  0.5079 -2.1520 -1.6614
   57MOL   H39328505   2.212   2.904   7.199 -2.7479 -0.2882 -1.4759
   57MOL   H39428506   2.298   3.056   7.155 -0.7207 -0.9393 -1.0946
   57MOL   H39528507   1.915   2.736   7.327  2.1585  1.0497  0.5178
   57MOL   H39628508   1.856   2.819   7.467  2.3177  1.0522  0.0778
   57MOL   H39728509   1.797   2.985   7.115  0.8652  1.5294  3.4196
   57MOL   H39828510   1.575   3.033   7.043  2.3803 -0.5458 -0.3696
   57MOL   H39928511   1.379   2.947   7.170  1.0937  1.7657 -1.7270
   57MOL   H40028512   1.411   2.803   7.370  0.8608 -1.2421  0.1392
   57MOL   H40128513   1.630   2.736   7.445  0.9883  0.2514  0.5604
   57MOL   C40228514   2.277   3.122   7.407 -0.9684 -0.4485  0.3592
   57MOL   C40328515   2.377   3.023   7.486 -0.0967 -0.5903  0.2955
   57MOL   C40428516   2.335   3.028   7.634 -0.2575 -0.3137  0.5283
   57MOL   C40528517   2.512   3.099   7.465 -0.2746 -0.2482 -0.0880
   57MOL   O40628518   2.551   3.185   7.548  0.4028  0.0519  0.0532
   57MOL   O40728519   2.581   3.065   7.357 -0.1419  0.5508  0.5120
   57MOL   C40828520   2.710   3.120   7.336  0.5779 -0.1036  0.3058
   57MOL   C40928521   2.765   3.047   7.212  0.0862  0.1169  0.2785
   57MOL   C41028522   2.802   2.907   7.217 -0.5939 -0.0820  0.4944
   57MOL   C41128523   2.866   2.849   7.103  0.1736 -0.0692  0.5839
   57MOL   C41228524   2.903   2.931   6.992  0.4227 -0.3596 -0.4314
   57MOL   C41328525   2.859   3.067   6.988  0.1451  0.2317 -0.5009
   57MOL   C41428526   2.795   3.125   7.094  0.8076  1.2179 -0.3207
   57MOL   H41528527   2.240   3.193   7.481  1.2840  0.1673  0.9126
   57MOL   H41628528   2.331   3.190   7.342  0.2003 -1.4168  0.2941
   57MOL   H41728529   2.320   3.127   7.677  1.1798 -0.7982  2.2120
   57MOL   H41828530   2.407   2.975   7.697  0.1257 -0.5974 -0.1430
   57MOL   H41928531   2.235   2.989   7.649 -0.7113 -0.0355 -1.6662
   57MOL   H42028532   2.696   3.226   7.312 -0.4270 -0.6628 -1.7117
   57MOL   H42128533   2.763   3.102   7.429 -1.1927 -0.0402  1.3670
   57MOL   H42228534   2.780   2.844   7.301  0.0241 -2.2420 -0.9296
   57MOL   H42328535   2.897   2.745   7.105  0.1099 -0.0650  2.2059
   57MOL   H42428536   2.965   2.880   6.920  3.5375  1.5589  0.8131
   57MOL   H42528537   2.883   3.133   6.905  1.5102  1.5358  0.8959
   57MOL   H42628538   2.782   3.230   7.076  0.5137  1.6100  2.0986
   57MOL   C42728539   2.392   2.874   7.435 -0.1691  0.8335 -0.0697
   57MOL   C42828540   2.461   2.752   7.506 -0.2276  0.1938  0.3508
   57MOL   C42928541   2.593   2.798   7.559 -0.4788 -0.6123  0.4075
   57MOL   C43028542   2.482   2.643   7.396 -0.1815 -0.0539  0.7366
   57MOL   O43128543   2.585   2.583   7.389  0.3299  0.0263  0.0227
   57MOL   O43228544   2.380   2.628   7.309 -0.0895 -0.1008  0.1325
   57MOL   C43328545   2.388   2.531   7.206 -0.3572  0.5787 -0.1386
   57MOL   C43428546   2.277   2.555   7.109  0.8557  0.1151 -0.1130
   57MOL   C43528547   2.294   2.531   6.969  0.5966  0.0561 -0.9624
   57MOL   C43628548   2.186   2.544   6.874  0.1084 -1.1860 -0.4844
   57MOL   C43728549   2.063   2.593   6.923 -0.3193 -0.9460 -0.2394
   57MOL   C43828550   2.040   2.611   7.062 -0.0029 -0.2933 -0.3294
   57MOL   C43928551   2.146   2.601   7.156  0.2124  0.3976  0.1723
   57MOL   H44028552   2.429   2.875   7.333 -1.5720  1.3843 -0.5933
   57MOL   H44128553   2.286   2.848   7.424 -0.5745  1.1285  2.7475
   57MOL   H44228554   2.647   2.868   7.496  1.8140 -1.1241  1.7491
   57MOL   H44328555   2.665   2.717   7.571 -2.7065 -2.5174  1.4153
   57MOL   H44428556   2.583   2.838   7.659 -1.2283  0.6428 -0.1583
   57MOL   H44528557   2.485   2.543   7.157 -0.1930  0.0043  0.0482
   57MOL   H44628558   2.374   2.428   7.239 -0.4635  0.8072  0.5405
   57MOL   H44728559   2.388   2.496   6.929 -0.1936 -2.5239 -0.6151
   57MOL   H44828560   2.210   2.512   6.774 -0.6603 -0.4928 -0.8950
   57MOL   H44928561   1.980   2.623   6.861  0.5364 -1.8466 -1.8509
   57MOL   H45028562   1.946   2.657   7.089  1.7610  2.8241  0.7363
   57MOL   H45128563   2.122   2.639   7.254 -0.5123  2.1584 -0.6716
   57MOL   C45228564   2.375   2.697   7.624 -0.0984 -0.4223  0.5060
   57MOL   C45328565   2.402   2.563   7.701 -0.0945  0.1779 -0.4141
   57MOL   C45428566   2.553   2.532   7.736 -0.4618 -0.1631  0.3648
   57MOL   C45528567   2.344   2.438   7.638 -0.8551 -0.2051 -0.1814
   57MOL   O45628568   2.276   2.447   7.536 -0.7922 -0.5674  0.0001
   57MOL   O45728569   2.366   2.325   7.703  0.4454 -0.0570  0.1372
   57MOL   C45828570   2.301   2.210   7.651  0.2170 -0.1694 -1.0010
   57MOL   C45928571   2.372   2.157   7.530 -0.5045  0.2572  0.0928
   57MOL   C46028572   2.296   2.090   7.435  0.4336 -1.1495  0.8156
   57MOL   C46128573   2.355   2.045   7.313  0.1101  0.8885 -0.7419
   57MOL   C46228574   2.493   2.065   7.292 -0.9536 -0.1961 -0.2159
   57MOL   C46328575   2.574   2.127   7.387 -0.4560 -0.1749  0.0647
   57MOL   C46428576   2.510   2.170   7.507  0.1465 -0.3193 -0.0655
   57MOL   H46528577   2.271   2.692   7.592 -0.3004 -0.7130  1.1852
   57MOL   H46628578   2.365   2.768   7.707  1.9138  1.6193 -0.9652
   57MOL   H46728579   2.599   2.613   7.793 -0.5951 -0.4275  0.8494
   57MOL   H46828580   2.604   2.535   7.640 -0.0986  2.4088  0.6048
   57MOL   H46928581   2.571   2.433   7.778  0.2772 -0.5514 -0.8255
   57MOL   H47028582   2.316   2.128   7.721  1.5331 -0.1317 -1.2221
   57MOL   H47128583   2.194   2.222   7.638  0.0541  1.3125  1.4271
   57MOL   H47228584   2.189   2.082   7.445 -0.1952 -0.0391 -3.9674
   57MOL   H47328585   2.301   2.001   7.230  1.8595 -2.0490 -0.3791
   57MOL   H47428586   2.533   2.027   7.199  2.5213 -0.9354  1.5262
   57MOL   H47528587   2.679   2.145   7.373 -0.5337  0.6252  0.5365
   57MOL   H47628588   2.567   2.219   7.584  1.3007  0.3786 -1.3428
   57MOL   C47728589   2.323   2.579   7.843  0.0312 -0.5706  0.7056
   57MOL   C47828590   2.169   2.623   7.840 -0.0715  0.7208  0.5257
   57MOL   C47928591   2.144   2.684   7.982  0.5059 -0.2097 -0.6203
   57MOL   C48028592   2.089   2.497   7.819  0.9444 -0.6647 -0.0800
   57MOL   O48128593   2.000   2.496   7.731 -0.1594 -0.4789  0.1786
   57MOL   O48228594   2.120   2.392   7.905 -0.4892 -0.1952  0.1245
   57MOL   C48328595   2.065   2.266   7.882 -0.9519 -0.7883 -0.4794
   57MOL   C48428596   1.990   2.222   0.003  0.1172 -0.1827 -0.6778
   57MOL   C48528597   2.057   2.210   0.130 -0.0659 -1.2213  0.4722
   57MOL   C48628598   1.999   2.148   0.235 -0.2795 -0.5863 -0.5904
   57MOL   C48728599   1.862   2.109   0.224 -0.1068  0.2077 -0.2028
   57MOL   C48828600   1.795   2.124   0.105 -0.5647 -0.2965  0.0176
   57MOL   C48928601   1.855   2.173   7.997 -0.7800 -0.9659 -0.4436
   57MOL   H49028602   2.386   2.640   7.907  0.2347 -1.2000  1.1076
   57MOL   H49128603   2.338   2.487   7.899 -0.5045 -1.4352 -0.5551
   57MOL   H49228604   2.163   2.624   0.063 -1.5413  2.3484  1.6654
   57MOL   H49328605   2.041   2.719   7.982 -0.0137 -1.6522  1.6548
   57MOL   H49428606   2.209   2.771   7.994 -0.0214 -0.0204  0.8723
   57MOL   H49528607   2.004   2.256   7.792  0.9118 -1.9386 -1.6510
   57MOL   H49628608   2.143   2.190   7.886 -1.8155 -1.5510  2.4248
   57MOL   H49728609   2.152   2.260   0.138 -1.0071  0.6052  0.6185
   57MOL   H49828610   2.055   2.139   0.326 -0.6992 -3.0983 -0.5330
   57MOL   H49928611   1.813   2.057   0.306  0.2683  1.2866  0.7298
   57MOL   H50028612   1.695   2.084   0.096 -0.8911  0.7823 -1.2345
   57MOL   H50128613   1.804   2.165   7.902  0.4870  2.7288 -1.5090
   57MOL   H50228614   2.140   2.698   7.766  0.6592 -1.2852 -1.8795
   58MOL     C128615   5.288   6.854   5.110 -0.4151 -0.1117 -0.2365
   58MOL     C228616   5.419   6.899   5.046 -0.0613 -0.2943  0.0345
   58MOL     C328617   5.529   6.818   5.110 -0.2881  0.9279 -0.1975
   58MOL     C428618   5.455   7.047   5.070  0.1171 -0.1223 -0.3777
   58MOL     O528619   5.377   7.124   5.133  0.7961 -0.4678 -0.2651
   58MOL     O628620   5.577   7.090   5.029 -0.0001  0.5103 -0.1354
   58MOL     C728621   5.608   7.223   5.032  0.1381 -0.5017 -0.2709
   58MOL     C828622   5.575   7.303   4.910 -1.3216  0.1666 -0.2277
   58MOL     C928623   5.458   7.379   4.905  0.5759  0.0188  0.0986
   58MOL    C1028624   5.430   7.455   4.794 -0.4532  0.1092 -0.0981
   58MOL    C1128625   5.523   7.456   4.691  0.2984  0.2633 -0.1548
   58MOL    C1228626   5.635   7.371   4.692 -0.6348  0.6880 -0.1695
   58MOL    C1328627   5.663   7.297   4.804 -0.4149  0.7610 -1.0878
   58MOL    H1428628   5.197   6.908   5.082 -0.9696  0.4325  2.4566
   58MOL    H1528629   5.269   6.747   5.120  0.5930 -0.0649  2.6157
   58MOL    H1628630   5.520   6.710   5.106 -0.8852  0.9125  1.3318
   58MOL    H1728631   5.532   6.849   5.215 -0.9218  0.1043  0.0620
   58MOL    H1828632   5.626   6.834   5.062  0.4119 -2.0732  0.0935
   58MOL    H1928633   5.570   7.276   5.119  5.5114 -0.4274  2.2452
   58MOL    H2028634   5.717   7.223   5.030  0.2317  3.4584  0.6878
   58MOL    H2128635   5.387   7.365   4.985  0.5759  0.4516  0.1755
   58MOL    H2228636   5.328   7.484   4.775 -0.8293 -1.4407 -0.5758
   58MOL    H2328637   5.505   7.505   4.596  1.2872 -0.1052 -0.5410
   58MOL    H2428638   5.700   7.372   4.606 -0.4185  0.8253 -0.0074
   58MOL    H2528639   5.750   7.236   4.789 -1.7196 -1.3219 -0.3750
   58MOL    H2628640   5.292   6.877   5.216  0.3241  0.0843 -0.3077
   58MOL    C2728641   5.424   6.882   4.889 -0.0388  0.1593 -0.6726
   58MOL    C2828642   5.323   6.934   4.780 -0.2134  0.2323  0.5652
   58MOL    C2928643   5.283   7.080   4.796  0.1951 -0.1113  0.0282
   58MOL    C3028644   5.197   6.847   4.785  0.6956  0.4025 -0.0943
   58MOL    O3128645   5.086   6.886   4.820 -0.0873  0.0928  0.1840
   58MOL    O3228646   5.221   6.722   4.745 -0.9768 -0.4131  0.0395
   58MOL    C3328647   5.117   6.624   4.745 -0.2852 -0.8192  0.5806
   58MOL    C3428648   5.092   6.566   4.888  0.0736  0.5297 -0.3652
   58MOL    C3528649   4.969   6.547   4.945  0.0362 -0.3777  0.3861
   58MOL    C3628650   4.959   6.503   5.080 -0.8109  0.0115  0.1866
   58MOL    C3728651   5.075   6.452   5.151 -0.0556 -0.6602  0.3018
   58MOL    C3828652   5.198   6.455   5.086  1.1495 -0.3889  0.4667
   58MOL    C3928653   5.207   6.522   4.961  0.2227 -0.1583 -0.1329
   58MOL    H4028654   5.441   6.776   4.869  0.1537 -0.2407  1.5264
   58MOL    H4128655   5.519   6.923   4.854 -0.1296  0.6176 -0.3719
   58MOL    H4228656   5.365   7.147   4.773 -0.3790 -0.3211 -2.7329
   58MOL    H4328657   5.243   7.108   4.894 -0.1613  2.5219 -0.8452
   58MOL    H4428658   5.206   7.112   4.726  3.5943  1.9946 -2.8486
   58MOL    H4528659   5.022   6.654   4.700  0.3461  1.2754  0.6040
   58MOL    H4628660   5.144   6.538   4.684  1.2698  0.0596  0.0107
   58MOL    H4728661   4.881   6.567   4.885  0.6855 -1.4282 -0.9186
   58MOL    H4828662   4.860   6.508   5.124 -1.0947 -1.3740 -0.2755
   58MOL    H4928663   5.081   6.417   5.253  1.6107  0.1151  0.4892
   58MOL    H5028664   5.283   6.420   5.142  1.2317  1.7303  1.6986
   58MOL    H5128665   5.303   6.544   4.918  1.4831 -1.2086  2.0392
   58MOL    C5228666   5.399   6.930   4.639  0.0681 -0.7912  0.3309
   58MOL    C5328667   5.333   6.966   4.497  0.1898 -0.0463  0.2605
   58MOL    C5428668   5.186   6.926   4.500 -1.2076 -0.1168 -0.0283
   58MOL    C5528669   5.406   6.883   4.388  0.3233 -0.4692  0.8060
   58MOL    O5628670   5.523   6.855   4.392  0.2108 -0.1836 -0.5243
   58MOL    O5728671   5.320   6.848   4.285  0.0553 -0.3117 -0.0078
   58MOL    C5828672   5.372   6.775   4.178 -1.1262  0.5439 -0.0329
   58MOL    C5928673   5.266   6.754   4.065 -0.0272  0.2218  0.3509
   58MOL    C6028674   5.277   6.831   3.949 -0.7014  0.0489  0.1656
   58MOL    C6128675   5.181   6.818   3.839  0.4305 -0.1625 -0.8943
   58MOL    C6228676   5.076   6.724   3.850 -0.5388 -0.2622  0.8071
   58MOL    C6328677   5.057   6.654   3.972  0.6572 -0.3197 -0.0670
   58MOL    C6428678   5.155   6.661   4.076  0.6880 -0.8090  0.4262
   58MOL    H6528679   5.421   6.823   4.632  0.6026 -0.6512 -0.1402
   58MOL    H6628680   5.490   6.990   4.643  0.2480 -1.1104  1.3383
   58MOL    H6728681   5.173   6.819   4.516 -0.2348  0.0287  1.9254
   58MOL    H6828682   5.138   6.927   4.403 -0.9315 -0.4041 -0.1681
   58MOL    H6928683   5.115   6.977   4.566  0.1828 -2.9775  3.8939
   58MOL    H7028684   5.464   6.812   4.133 -1.7842 -1.0466 -2.7875
   58MOL    H7128685   5.388   6.676   4.220 -3.1982  0.0833 -0.3072
   58MOL    H7228686   5.364   6.895   3.941 -1.0089  0.3793 -0.6592
   58MOL    H7328687   5.184   6.866   3.742 -0.1139  0.4386 -0.6191
   58MOL    H7428688   5.009   6.708   3.767 -0.0748  0.9112  0.1881
   58MOL    H7528689   4.973   6.588   3.991  2.0314 -1.8505  0.8423
   58MOL    H7628690   5.142   6.609   4.169  0.8891 -0.6240  0.5598
   58MOL    C7728691   5.347   7.127   4.464  0.3810  0.6245 -0.2159
   58MOL    C7828692   5.349   7.203   4.330 -0.0556  0.2316 -0.1731
   58MOL    C7928693   5.218   7.174   4.253  0.1704  0.5358  0.2822
   58MOL    C8028694   5.468   7.157   4.232 -0.3981 -0.4440  0.1364
   58MOL    O8128695   5.453   7.118   4.118  0.5187 -0.0142  0.8859
   58MOL    O8228696   5.582   7.172   4.287  0.3608 -0.3922 -0.2507
   58MOL    C8328697   5.700   7.126   4.218 -0.5944 -0.1407  0.3298
   58MOL    C8428698   5.804   7.059   4.310 -0.1967 -0.1324  0.7595
   58MOL    C8528699   5.776   7.016   4.439  0.2367  0.2996  0.0658
   58MOL    C8628700   5.855   6.919   4.503  0.0355  0.1771 -0.3785
   58MOL    C8728701   5.980   6.883   4.450  1.1603  0.3325  0.0351
   58MOL    C8828702   6.012   6.932   4.320 -0.1813 -0.2193  0.2042
   58MOL    C8928703   5.925   7.017   4.250 -0.1335 -0.2862  1.0122
   58MOL    H9028704   5.441   7.162   4.506  0.2231  0.9588 -0.1335
   58MOL    H9128705   5.282   7.184   4.531  0.8132  1.1564 -0.2441
   58MOL    H9228706   5.134   7.220   4.304  0.3184 -0.4972  1.5013
   58MOL    H9328707   5.200   7.067   4.244 -1.5147  0.6976  1.5060
   58MOL    H9428708   5.228   7.213   4.152 -0.0402  0.1481  0.1108
   58MOL    H9528709   5.677   7.050   4.144  0.8051 -0.1509 -0.1185
   58MOL    H9628710   5.731   7.208   4.154 -0.2840 -1.3612 -1.1231
   58MOL    H9728711   5.678   7.029   4.485  0.5291 -3.2303  1.8966
   58MOL    H9828712   5.828   6.881   4.601  4.1601  1.0300  1.2228
   58MOL    H9928713   6.048   6.811   4.494 -1.2962 -2.2869 -0.2901
   58MOL   H10028714   6.108   6.901   4.280  0.4163  0.5706  0.9876
   58MOL   H10128715   5.966   7.060   4.160  1.4183  1.0116  2.3045
   58MOL   C10228716   5.361   7.353   4.377  1.0638  0.6115 -1.0476
   58MOL   C10328717   5.390   7.467   4.265 -0.5846  0.0541 -0.5293
   58MOL   C10428718   5.317   7.452   4.136  0.0479  0.6403 -0.5879
   58MOL   C10528719   5.548   7.478   4.239 -0.2966 -0.0517  0.0506
   58MOL   O10628720   5.598   7.451   4.126  0.1244 -0.0878  0.5672
   58MOL   O10728721   5.622   7.516   4.350 -0.3493 -0.3720 -0.2998
   58MOL   C10828722   5.760   7.540   4.338  0.1776  0.3048 -0.0422
   58MOL   C10928723   5.792   7.672   4.401  0.5897 -0.4822  0.5625
   58MOL   C11028724   5.702   7.760   4.471  0.3515 -0.2023  0.5384
   58MOL   C11128725   5.752   7.880   4.523  0.2290  0.3555  0.1229
   58MOL   C11228726   5.889   7.910   4.510 -0.0036  0.8611 -0.6955
   58MOL   C11328727   5.971   7.828   4.444  0.5531  0.0121  0.1312
   58MOL   C11428728   5.928   7.709   4.391  0.2176  0.9627 -0.3774
   58MOL   H11528729   5.447   7.354   4.445 -1.0611  1.3861  1.7289
   58MOL   H11628730   5.273   7.375   4.438  0.2664 -2.3564 -1.0641
   58MOL   H11728731   5.209   7.449   4.147 -0.1941 -1.5441 -2.8161
   58MOL   H11828732   5.344   7.361   4.081  1.1220  0.2950  0.4753
   58MOL   H11928733   5.341   7.534   4.068  1.4981  0.0459 -0.8162
   58MOL   H12028734   5.804   7.456   4.391  0.7097 -0.3519 -1.5060
   58MOL   H12128735   5.787   7.537   4.232 -1.7234 -1.0319 -0.5112
   58MOL   H12228736   5.598   7.730   4.478 -0.1978  0.9050 -2.2175
   58MOL   H12328737   5.689   7.952   4.571 -0.8558  0.8831 -2.0166
   58MOL   H12428738   5.936   7.998   4.552  1.4701 -0.8549  1.3041
   58MOL   H12528739   6.072   7.867   4.449  0.9928 -1.2383  1.3358
   58MOL   H12628740   5.995   7.641   4.338  0.4821  1.8821 -1.2351
   58MOL   C12728741   5.336   7.595   4.344  0.1235  0.2083 -0.2200
   58MOL   C12828742   5.328   7.737   4.275 -0.0481  0.0368  0.2743
   58MOL   C12928743   5.459   7.774   4.207  0.3059  0.3340 -0.1885
   58MOL   C13028744   5.299   7.831   4.395 -0.9744  0.2054  0.1738
   58MOL   O13128745   5.224   7.803   4.486  0.8841 -0.3884 -0.0303
   58MOL   O13228746   5.365   7.940   4.387 -0.1513 -0.2489  0.5467
   58MOL   C13328747   5.369   0.022   4.501 -0.8048  0.2504  0.2986
   58MOL   C13428748   5.445   0.152   4.471 -0.3501  0.8941 -0.7197
   58MOL   C13528749   5.402   0.286   4.508  0.2155 -0.7467 -0.2074
   58MOL   C13628750   5.486   0.392   4.481  0.4630  0.5556  0.4392
   58MOL   C13728751   5.618   0.377   4.424 -0.5163 -0.2704  0.1777
   58MOL   C13828752   5.651   0.252   4.378  0.1789 -0.2962 -0.0969
   58MOL   C13928753   5.569   0.141   4.408 -0.0864  0.0028 -0.2321
   58MOL   H14028754   5.389   7.596   4.439 -0.5069  0.7965  0.1327
   58MOL   H14128755   5.233   7.569   4.371 -0.8400  3.5199 -0.5050
   58MOL   H14228756   5.459   7.874   4.166  2.7167  0.1142 -0.8153
   58MOL   H14328757   5.477   7.701   4.128 -0.4370 -1.5608  1.3365
   58MOL   H14428758   5.551   7.787   4.264  0.1600 -1.5840  0.5335
   58MOL   H14528759   5.268   0.032   4.540 -0.4442 -2.7239  2.1205
   58MOL   H14628760   5.427   7.977   4.578  0.7180  0.4349 -0.6974
   58MOL   H14728761   5.303   0.301   4.547  0.4122  0.5289 -0.1879
   58MOL   H14828762   5.450   0.490   4.509  0.0902  0.5702 -0.0718
   58MOL   H14928763   5.677   0.464   4.400  2.3446 -1.9555  0.9240
   58MOL   H15028764   5.749   0.249   4.331 -0.2596  1.3885 -1.1618
   58MOL   H15128765   5.605   0.046   4.369 -0.4717 -0.0655 -0.4379
   58MOL   C15228766   5.202   7.745   4.183  0.3548 -0.3254 -0.6170
   58MOL   C15328767   5.177   7.847   4.063 -0.4201 -0.9968  0.1259
   58MOL   C15428768   5.033   7.842   4.009  1.0794  0.2942  0.1079
   58MOL   C15528769   5.267   7.792   3.953  0.4319 -0.7152 -0.3023
   58MOL   O15628770   5.369   7.850   3.916  0.1578 -0.2018 -1.0785
   58MOL   O15728771   5.222   7.681   3.894  0.1045  0.2773  0.1577
   58MOL   C15828772   5.282   7.612   3.786 -0.1363  0.0548 -0.0494
   58MOL   C15928773   5.266   7.460   3.791 -0.1745  0.2531 -0.2170
   58MOL   C16028774   5.373   7.372   3.782 -0.5939  0.1737 -0.4042
   58MOL   C16128775   5.340   7.240   3.772  0.3597 -0.3002  0.2419
   58MOL   C16228776   5.211   7.188   3.793  0.7089 -0.3492  0.7455
   58MOL   C16328777   5.105   7.274   3.811  0.5087  0.1688  0.1580
   58MOL   C16428778   5.129   7.413   3.806 -0.3350  0.0105 -0.0867
   58MOL   H16528779   5.120   7.770   4.250 -0.6312 -0.4056 -1.7700
   58MOL   H16628780   5.160   7.650   4.149  0.8311 -0.5892 -0.4754
   58MOL   H16728781   4.962   7.861   4.089 -0.0554  0.6564 -0.9700
   58MOL   H16828782   4.993   7.743   3.987 -2.4629  1.5179  0.7151
   58MOL   H16928783   5.016   7.899   3.917 -1.1799  0.0169  0.3120
   58MOL   H17028784   5.237   7.659   3.699 -1.1008  0.0102  0.4182
   58MOL   H17128785   5.384   7.648   3.775 -0.0629 -0.2261 -0.2789
   58MOL   H17228786   5.475   7.403   3.769  0.2139 -2.4231 -0.4808
   58MOL   H17328787   5.422   7.169   3.766 -1.1483 -2.0878  0.5359
   58MOL   H17428788   5.195   7.082   3.800 -0.8920 -0.0310  2.1531
   58MOL   H17528789   5.001   7.249   3.828  0.5386 -0.3171 -0.3426
   58MOL   H17628790   5.050   7.481   3.835 -0.1537  0.2286 -0.1079
   58MOL   C17728791   5.213   7.997   4.103 -0.2034  0.0027  0.8650
   58MOL   C17828792   5.178   0.123   4.027 -0.2977  0.6119  0.4987
   58MOL   C17928793   5.252   0.240   4.108 -0.1318  0.0711 -0.4982
   58MOL   C18028794   5.024   0.147   4.039 -0.3253 -0.1882  0.4697
   58MOL   O18128795   4.942   0.144   3.951 -0.3774 -0.2999  0.5484
   58MOL   O18228796   4.999   0.171   4.165  0.3155  0.1242 -0.3412
   58MOL   C18328797   4.860   0.171   4.206  0.5128 -0.3917  0.1528
   58MOL   C18428798   4.842   0.076   4.325 -0.2889 -0.1258 -0.8110
   58MOL   C18528799   4.943   0.059   4.421  0.4055  0.0699  0.3709
   58MOL   C18628800   4.939   7.965   4.520 -0.2735 -0.3969  0.1549
   58MOL   C18728801   4.825   7.885   4.521  0.0782  0.5788  0.3896
   58MOL   C18828802   4.725   7.900   4.422 -0.0356 -0.5068  1.0742
   58MOL   C18928803   4.729   8.000   4.321  0.4343 -0.2523 -0.7371
   58MOL   H19028804   5.322   7.994   4.113 -0.2172 -0.4046  0.9277
   58MOL   H19128805   5.173   0.001   4.204  1.3762 -1.1310  1.6442
   58MOL   H19228806   5.222   0.339   4.072  1.0466  0.3887 -0.6427
   58MOL   H19328807   5.359   0.235   4.091 -0.1353 -0.3250 -0.3999
   58MOL   H19428808   5.227   0.248   4.214 -3.1398 -1.1597 -1.0741
   58MOL   H19528809   4.834   0.261   4.262 -1.2263 -0.1774 -0.9748
   58MOL   H19628810   4.784   0.160   4.129  0.4812 -2.5096  0.4660
   58MOL   H19728811   5.036   0.114   4.418  0.2173  0.4495  1.2578
   58MOL   H19828812   5.027   7.962   4.582  1.5267  0.6862 -2.2699
   58MOL   H19928813   4.819   7.801   4.588  2.3015 -0.0874 -0.1947
   58MOL   H20028814   4.643   7.829   4.416 -1.4225  1.2775 -1.8084
   58MOL   H20128815   4.657   0.015   4.244  0.1515  1.1374 -0.0969
   58MOL   C20228816   5.239   0.114   3.885  0.6533  0.4121 -1.0304
   58MOL   C20328817   5.215   0.217   3.761  0.4612  0.1182 -0.1932
   58MOL   C20428818   5.209   0.363   3.821 -0.0225  0.6953 -0.1323
   58MOL   C20528819   5.074   0.184   3.700  0.5145  0.1180 -0.1346
   58MOL   O20628820   4.986   0.269   3.683  0.6630  0.0120  0.0659
   58MOL   O20728821   5.060   0.054   3.670  0.1180  0.2032 -0.1544
   58MOL   C20828822   4.936   8.005   3.623 -0.2004  0.8702 -0.6827
   58MOL   C20928823   4.943   7.854   3.576  0.2119 -0.6933  1.1226
   58MOL   C21028824   5.026   7.815   3.469 -0.5066  0.0004  0.3653
   58MOL   C21128825   5.047   7.679   3.445 -0.0556  0.1659  0.0582
   58MOL   C21228826   4.993   7.580   3.524 -0.2356 -0.1896 -0.0381
   58MOL   C21328827   4.906   7.616   3.628  0.9342  0.4219 -0.3752
   58MOL   C21428828   4.873   7.756   3.649 -0.0044  0.7806  0.1123
   58MOL   H21528829   5.217   0.014   3.847  3.8234 -0.3530 -1.0083
   58MOL   H21628830   5.347   0.108   3.893  0.5181 -1.0779 -0.2199
   58MOL   H21728831   5.119   0.381   3.880  0.5388 -0.2232  1.0181
   58MOL   H21828832   5.206   0.439   3.743  1.5078 -0.7103 -1.6010
   58MOL   H21928833   5.302   0.383   3.873 -0.1271  0.5266  0.1218
   58MOL   H22028834   4.859   0.016   3.699  1.2608  1.5833  0.6762
   58MOL   H22128835   4.904   0.056   3.537 -4.2058  0.1404  0.2261
   58MOL   H22228836   5.079   7.881   3.403 -2.8276  0.0189 -1.5528
   58MOL   H22328837   5.105   7.654   3.357  2.1350 -1.2866  1.8552
   58MOL   H22428838   5.020   7.476   3.513  0.5134  0.2327 -2.4566
   58MOL   H22528839   4.854   7.543   3.689  0.0031  1.7838  0.5055
   58MOL   H22628840   4.812   7.783   3.734 -0.6731 -0.7518  0.1243
   58MOL   C22728841   5.332   0.193   3.658 -0.4740  0.5115  0.4738
   58MOL   C22828842   5.370   0.291   3.538  0.1033 -0.1420  0.0747
   58MOL   C22928843   5.468   0.390   3.598  0.2549 -0.1767 -0.8073
   58MOL   C23028844   5.259   0.359   3.466 -0.3163  0.1765 -0.3086
   58MOL   O23128845   5.253   0.482   3.452  0.3641  0.1459 -0.2139
   58MOL   O23228846   5.174   0.273   3.405 -0.4540 -0.7816 -0.0275
   58MOL   C23328847   5.078   0.318   3.308  0.2113  0.9727  0.5057
   58MOL   C23428848   5.075   0.235   3.177 -0.3745 -0.2977 -0.2143
   58MOL   C23528849   4.960   0.229   3.099  0.2330  0.8315  0.0900
   58MOL   C23628850   4.963   0.150   2.981 -0.6923 -0.1692 -0.5267
   58MOL   C23728851   5.085   0.082   2.945  0.9635 -0.1429  0.3166
   58MOL   C23828852   5.201   0.104   3.020 -0.0068  0.5264  0.1542
   58MOL   C23928853   5.199   0.174   3.136 -0.5920  0.0953  0.2900
   58MOL   H24028854   5.305   0.097   3.614 -0.5230  0.5524  0.4158
   58MOL   H24128855   5.424   0.146   3.692  0.7335  0.4276 -2.7698
   58MOL   H24228856   5.525   0.450   3.527 -2.4170  0.8705 -2.1412
   58MOL   H24328857   5.534   0.343   3.670 -2.6780  0.9209  2.7203
   58MOL   H24428858   5.416   0.463   3.659  0.5458 -1.3693  0.8982
   58MOL   H24528859   4.981   0.309   3.356 -0.0048 -1.1191 -0.2553
   58MOL   H24628860   5.098   0.424   3.294 -0.1408  0.4992 -4.4889
   58MOL   H24728861   4.870   0.282   3.127 -0.3002 -0.7856  1.5327
   58MOL   H24828862   4.878   0.144   2.915 -0.5837 -0.3913 -0.6430
   58MOL   H24928863   5.076   0.014   2.862  1.7235 -0.2389  0.3085
   58MOL   H25028864   5.291   0.057   2.984 -0.7346 -1.7289  1.1286
   58MOL   H25128865   5.287   0.197   3.195  0.7887 -0.4115 -1.5215
   58MOL   C25228866   5.448   0.191   3.438 -1.1890 -0.5455 -0.8652
   58MOL   C25328867   5.544   0.234   3.318 -0.0282  0.4333 -0.4307
   58MOL   C25428868   5.497   0.369   3.252 -1.0086 -0.4491  0.6570
   58MOL   C25528869   5.540   0.116   3.215  0.6228  0.4049 -0.9774
   58MOL   O25628870   5.526   0.133   3.092  0.1716  0.1025  0.1546
   58MOL   O25728871   5.550   8.003   3.268  0.2498 -0.3521 -0.4041
   58MOL   C25828872   5.546   7.893   3.177  0.0852 -0.4994  0.0001
   58MOL   C25928873   5.547   7.764   3.249 -0.1833 -0.3177 -0.2104
   58MOL   C26028874   5.602   7.643   3.194 -0.3308 -0.9006 -0.6602
   58MOL   C26128875   5.592   7.524   3.266  0.7692  0.5150 -0.3950
   58MOL   C26228876   5.531   7.520   3.390  0.2422 -0.3120  0.7358
   58MOL   C26328877   5.469   7.634   3.449 -0.9493 -0.1931 -0.0196
   58MOL   C26428878   5.486   7.755   3.380  0.5368  0.9226  0.1775
   58MOL   H26528879   5.369   0.128   3.396 -2.4509  0.3409  0.1213
   58MOL   H26628880   5.504   0.127   3.506 -0.1279 -0.3941 -1.5933
   58MOL   H26728881   5.401   0.369   3.201 -1.4868 -0.1476  1.5565
   58MOL   H26828882   5.561   0.403   3.170 -2.1557 -1.5074 -0.7108
   58MOL   H26928883   5.498   0.450   3.325 -0.1150  0.0026  0.1544
   58MOL   H27028884   5.448   7.900   3.130 -0.4268 -0.8255  1.0098
   58MOL   H27128885   5.617   7.890   3.094  3.1802  2.1765  2.4174
   58MOL   H27228886   5.643   7.642   3.094  1.1735 -0.1080 -0.0628
   58MOL   H27328887   5.634   7.436   3.218 -1.3491 -1.5277  1.3651
   58MOL   H27428888   5.528   7.427   3.445 -0.7822 -0.9329 -0.3378
   58MOL   H27528889   5.427   7.636   3.548  0.1209  2.6491  0.4203
   58MOL   H27628890   5.437   7.834   3.435 -1.0694  0.3556 -0.4040
   58MOL   C27728891   5.688   0.241   3.385 -0.6276  0.1002  0.1841
   58MOL   C27828892   5.817   0.264   3.305  0.3338  0.0126  0.0851
   58MOL   C27928893   5.804   0.370   3.192  0.3496  0.1026  0.1458
   58MOL   C28028894   5.862   0.131   3.247 -0.7058  0.4958 -0.7564
   58MOL   O28128895   5.870   0.104   3.125 -0.2917 -0.5605 -0.2715
   58MOL   O28228896   5.893   0.045   3.344  0.5325 -0.4011  0.3015
   58MOL   C28328897   5.921   7.917   3.326 -0.0939 -0.1401 -0.3991
   58MOL   C28428898   6.036   7.882   3.234  0.9721 -0.0630 -0.7315
   58MOL   C28528899   6.044   7.755   3.171 -0.0713  0.7352 -0.1032
   58MOL   C28628900   6.158   7.707   3.102  0.2837  0.3912 -0.4613
   58MOL   C28728901   6.256   7.803   3.066 -0.4591 -0.8822  0.4356
   58MOL   C28828902   6.244   7.935   3.115 -0.2061 -0.1135  0.3248
   58MOL   C28928903   6.145   7.970   3.208 -0.0164  0.1189  0.1131
   58MOL   H29028904   5.695   0.153   3.448  2.6256 -0.3965 -0.8027
   58MOL   H29128905   5.685   0.311   3.469  1.6483 -0.0702  0.4234
   58MOL   H29228906   5.776   0.469   3.229  1.8308  1.0926 -1.3279
   58MOL   H29328907   5.743   0.334   3.109  0.6740  2.1047 -0.9754
   58MOL   H29428908   5.899   0.388   3.142 -0.6930  1.3591 -1.4094
   58MOL   H29528909   5.939   7.870   3.422 -2.6099  3.9102  2.2077
   58MOL   H29628910   5.832   7.867   3.291 -1.4442  0.4867  2.0408
   58MOL   H29728911   5.967   7.690   3.208 -0.0723  1.6491  1.5754
   58MOL   H29828912   6.166   7.606   3.064 -0.1856 -0.3735  1.4112
   58MOL   H29928913   6.340   7.784   3.001  1.0985  1.0951  1.8041
   58MOL   H30028914   6.318   0.004   3.093  0.7192 -1.0158  0.2994
   58MOL   H30128915   6.141   0.058   3.261 -1.1761  0.4248 -0.4978
   58MOL   C30228916   5.927   0.320   3.406 -0.1192 -0.4287 -0.3005
   58MOL   C30328917   5.941   0.466   3.465  0.0702 -1.0902 -0.4861
   58MOL   C30428918   5.812   0.517   3.528  0.0267  0.2169  0.3055
   58MOL   C30528919   5.994   0.568   3.353 -0.3925 -0.4088  0.3573
   58MOL   O30628920   5.929   0.665   3.317  0.6949 -0.2969 -0.1544
   58MOL   O30728921   6.119   0.538   3.306  0.2676  0.2150 -0.6016
   58MOL   C30828922   6.186   0.642   3.231  0.0965 -0.2249  0.3980
   58MOL   C30928923   6.324   0.595   3.196  0.1744 -0.3119  0.2531
   58MOL   C31028924   6.370   0.463   3.220 -0.1439 -0.6800  0.7395
   58MOL   C31128925   6.498   0.428   3.172  0.0263 -0.4188 -0.3131
   58MOL   C31228926   6.585   0.522   3.116  0.4853 -0.1135 -0.8791
   58MOL   C31328927   6.538   0.655   3.098 -0.2506 -0.0775  0.0075
   58MOL   C31428928   6.410   0.694   3.143  0.7287  0.8405 -0.3811
   58MOL   H31528929   6.018   0.304   3.349  1.6477 -1.6462  2.7667
   58MOL   H31628930   5.936   0.243   3.483  3.1820  0.8438  0.6764
   58MOL   H31728931   5.819   0.624   3.550  1.1557  0.4124 -0.9289
   58MOL   H31828932   5.786   0.474   3.625 -0.3614 -3.5077 -1.3616
   58MOL   H31928933   5.733   0.510   3.454 -0.0035 -0.1305  0.3679
   58MOL   H32028934   6.140   0.675   3.138  0.3459 -1.9550 -0.3760
   58MOL   H32128935   6.195   0.734   3.288  0.3456 -0.0958  0.1477
   58MOL   H32228936   6.303   0.385   3.254 -0.7141 -0.9698 -1.0280
   58MOL   H32328937   6.532   0.325   3.173 -0.2003 -0.5140 -1.9418
   58MOL   H32428938   6.682   0.488   3.083  1.3939  1.7696 -0.1952
   58MOL   H32528939   6.603   0.736   3.067 -2.3399  1.4850 -0.4541
   58MOL   H32628940   6.376   0.796   3.134  1.5008  0.9796 -1.8416
   58MOL   C32728941   6.058   0.449   3.571  0.3551  0.4679  0.2157
   58MOL   C32828942   6.091   0.560   3.681 -0.0336  0.0537  0.3067
   58MOL   C32928943   6.228   0.522   3.722  0.1587  0.2876  0.5102
   58MOL   C33028944   5.988   0.541   3.795  0.0793  1.0239  0.4209
   58MOL   O33128945   5.904   0.625   3.821  0.0993 -0.1897 -0.0524
   58MOL   O33228946   6.020   0.427   3.869  0.3804  0.3046 -0.2593
   58MOL   C33328947   5.944   0.387   3.982 -0.5184  0.4569  1.2249
   58MOL   C33428948   5.995   0.447   4.103  0.4772  0.3882  0.3478
   58MOL   C33528949   5.907   0.517   4.185  0.0611 -0.4682  0.4726
   58MOL   C33628950   5.965   0.580   4.296 -0.8123  0.4064  0.3466
   58MOL   C33728951   6.092   0.558   4.333 -0.1415 -0.2155  0.3545
   58MOL   C33828952   6.178   0.481   4.254 -0.5166 -0.6222  0.2669
   58MOL   C33928953   6.134   0.432   4.131  0.2623  0.9385 -0.0113
   58MOL   H34028954   6.146   0.424   3.512  0.7390  2.6214 -0.1712
   58MOL   H34128955   6.035   0.355   3.621 -0.1979 -0.7839 -2.2860
   58MOL   H34228956   6.252   0.415   3.716 -2.3525 -0.4294  2.7020
   58MOL   H34328957   6.258   0.540   3.825 -0.6113 -1.1499  0.9969
   58MOL   H34428958   6.310   0.567   3.666 -1.5378  2.3281 -0.3958
   58MOL   H34528959   5.840   0.417   3.974 -1.0315 -1.0565  2.0827
   58MOL   H34628960   5.953   0.279   3.998 -1.4410 -0.0233 -1.2374
   58MOL   H34728961   5.806   0.529   4.149  0.4725  1.0824 -0.2127
   58MOL   H34828962   5.904   0.641   4.361 -0.9783  0.3297  0.2644
   58MOL   H34928963   6.129   0.610   4.419 -1.5240 -1.2297  1.5888
   58MOL   H35028964   6.279   0.458   4.284 -0.7064 -1.5412  0.2083
   58MOL   H35128965   6.193   0.380   4.058 -2.3063 -2.8609  0.5205
   58MOL   C35228966   6.094   0.709   3.629  0.2947  0.4890  0.1448
   58MOL   C35328967   6.130   0.838   3.709  0.4685 -0.4474  0.0241
   58MOL   C35428968   6.196   0.804   3.847  0.1337  0.3395  0.7147
   58MOL   C35528969   5.999   0.916   3.733 -0.4866  0.3170 -0.0386
   58MOL   O35628970   5.956   0.951   3.846  0.8489 -0.0524  0.3762
   58MOL   O35728971   5.942   0.951   3.619  1.1084  0.4562  0.0256
   58MOL   C35828972   5.816   1.019   3.620 -0.4797  0.0570 -0.0217
   58MOL   C35928973   5.706   0.926   3.586  0.1692  0.3652 -0.0918
   58MOL   C36028974   5.693   0.879   3.454 -0.3139 -0.3243 -0.3693
   58MOL   C36128975   5.584   0.796   3.423 -0.0369 -0.4910  0.3502
   58MOL   C36228976   5.492   0.762   3.525 -0.1328  0.4756 -0.0250
   58MOL   C36328977   5.515   0.798   3.660  0.0683  0.7976 -0.0272
   58MOL   C36428978   5.616   0.891   3.687  0.2249 -0.2207  0.5457
   58MOL   H36528979   6.005   0.728   3.570  0.6190 -2.0367 -1.2537
   58MOL   H36628980   6.166   0.708   3.547  0.6862  0.3920  0.4832
   58MOL   H36728981   6.189   0.884   3.921 -1.5300  1.2816 -0.4121
   58MOL   H36828982   6.298   0.770   3.832 -0.3892 -0.9697  0.0718
   58MOL   H36928983   6.142   0.726   3.899 -0.4295  0.0375 -0.3064
   58MOL   H37028984   5.793   1.052   3.721 -0.3110  0.0624  0.0153
   58MOL   H37128985   5.809   1.113   3.565 -0.1802  0.7030  1.0353
   58MOL   H37228986   5.771   0.912   3.386 -0.1136 -0.8656 -0.4080
   58MOL   H37328987   5.560   0.772   3.321 -2.1798  0.6428  0.5681
   58MOL   H37428988   5.403   0.705   3.504  0.8367 -0.6146 -1.2603
   58MOL   H37528989   5.441   0.764   3.731  0.5900 -0.3322 -0.0156
   58MOL   H37628990   5.636   0.926   3.787 -0.2912  0.8319  0.2888
   58MOL   C37728991   6.227   0.927   3.624 -0.5318  0.0422  0.7008
   58MOL   C37828992   6.316   1.053   3.668  0.3136  0.4941  0.0899
   58MOL   C37928993   6.230   1.151   3.753 -0.8303  0.5522  0.4107
   58MOL   C38028994   6.363   1.113   3.539  0.7676  0.2312  0.1915
   58MOL   O38128995   6.338   1.067   3.425  0.1394  0.0263 -0.1101
   58MOL   O38228996   6.427   1.233   3.554  0.2655 -0.5059 -0.4301
   58MOL   C38328997   6.479   1.307   3.444 -0.3263 -0.2757 -0.3336
   58MOL   C38428998   6.490   1.459   3.457 -0.4432 -0.2014 -0.3717
   58MOL   C38528999   6.532   1.506   3.582 -0.5320  0.2508 -0.2212
   58MOL   C38629000   6.559   1.642   3.601  0.0611  0.6474 -0.1148
   58MOL   C38729001   6.555   1.724   3.488 -0.3283  0.1418 -0.5769
   58MOL   C38829002   6.514   1.673   3.364 -0.3801  0.2754 -0.1796
   58MOL   C38929003   6.480   1.538   3.347  0.7555 -0.1512  0.1624
   58MOL   H39029004   6.166   0.947   3.535  1.3332  0.8268 -0.4414
   58MOL   H39129005   6.296   0.857   3.577 -1.9964  0.4939 -2.2579
   58MOL   H39229006   6.130   1.156   3.710 -0.7892  0.3126  0.2876
   58MOL   H39329007   6.273   1.251   3.758 -2.5412  1.3274  0.1103
   58MOL   H39429008   6.209   1.112   3.852 -2.0801 -0.7270 -0.3515
   58MOL   H39529009   6.580   1.277   3.416 -0.9511 -1.2224 -1.6191
   58MOL   H39629010   6.417   1.286   3.357 -2.4790 -0.1104  1.1357
   58MOL   H39729011   6.549   1.434   3.660 -2.3348 -1.5492 -1.4158
   58MOL   H39829012   6.604   1.676   3.694  0.8185  2.7234 -1.2084
   58MOL   H39929013   6.587   1.826   3.505  1.4696 -0.6993  1.2260
   58MOL   H40029014   6.516   1.744   3.283  0.5468 -0.1141 -0.5092
   58MOL   H40129015   6.451   1.495   3.252  0.2098  0.1982  0.1657
   58MOL   C40229016   6.435   1.004   3.765 -0.2346 -0.0592  0.5965
   58MOL   C40329017   6.557   1.083   3.815  0.2773  0.4377  0.0163
   58MOL   C40429018   6.522   1.222   3.876  0.3014  0.1759  0.2359
   58MOL   C40529019   6.670   1.111   3.706 -0.2722  0.6707 -0.0015
   58MOL   O40629020   6.728   1.221   3.684  0.0213 -0.3670  0.6628
   58MOL   O40729021   6.712   0.994   3.646 -0.4142  0.2151  0.0686
   58MOL   C40829022   6.828   0.996   3.564  0.1250 -0.1431 -0.1986
   58MOL   C40929023   6.779   1.030   3.420  0.6963  1.0666 -0.7923
   58MOL   C41029024   6.665   0.972   3.363 -0.1722  0.3554  0.0242
   58MOL   C41129025   6.633   1.012   3.235  0.4429 -0.2790  0.2550
   58MOL   C41229026   6.716   1.094   3.148  0.2743  0.5138 -0.4669
   58MOL   C41329027   6.836   1.143   3.205 -0.4438 -0.6014  0.2117
   58MOL   C41429028   6.865   1.105   3.340  0.2896 -0.4688 -0.8055
   58MOL   H41529029   6.472   0.915   3.713  0.3936  0.1954  0.6092
   58MOL   H41629030   6.377   0.978   3.853 -2.4556 -1.7056 -1.2846
   58MOL   H41729031   6.476   1.277   3.794  1.4344  0.5062 -0.1792
   58MOL   H41829032   6.611   1.266   3.919  1.1146 -1.8740  0.7363
   58MOL   H41929033   6.451   1.225   3.959 -0.2444 -0.4350 -0.2010
   58MOL   H42029034   6.903   1.061   3.609 -0.2731 -0.0896  0.3991
   58MOL   H42129035   6.875   0.898   3.555 -0.2071 -0.3508  0.3161
   58MOL   H42229036   6.589   0.918   3.418  0.0805 -0.0731 -0.0506
   58MOL   H42329037   6.541   0.983   3.187 -0.0818 -1.7952  2.1117
   58MOL   H42429038   6.688   1.118   3.046 -1.2014  0.8719  0.0093
   58MOL   H42529039   6.907   1.211   3.161 -0.4924 -0.8145 -0.2045
   58MOL   H42629040   6.961   1.132   3.381  0.1099 -0.7901 -0.1628
   58MOL   C42729041   6.613   0.984   3.926 -0.2591  0.2256 -0.5277
   58MOL   C42829042   6.713   1.020   4.040  0.1186 -0.0963 -0.2268
   58MOL   C42929043   6.739   0.883   4.097  0.1119 -0.2764  0.1841
   58MOL   C43029044   6.631   1.104   4.146 -0.3277 -0.0397  0.1044
   58MOL   O43129045   6.664   1.220   4.171  0.0255  0.0548  0.3288
   58MOL   O43229046   6.529   1.036   4.210 -0.2762 -0.0790 -0.6230
   58MOL   C43329047   6.446   1.107   4.304  0.3465  0.3777 -0.1933
   58MOL   C43429048   6.304   1.056   4.318 -0.1318  0.0532 -0.1079
   58MOL   C43529049   6.244   0.987   4.210  0.4083 -0.2472  0.3313
   58MOL   C43629050   6.112   0.944   4.231 -0.6744  0.4063 -1.3352
   58MOL   C43729051   6.043   0.972   4.348  0.1522 -0.1018 -0.0506
   58MOL   C43829052   6.100   1.052   4.447 -0.3605 -0.4994 -0.0647
   58MOL   C43929053   6.226   1.098   4.427 -0.3023 -0.3487  0.0660
   58MOL   H44029054   6.662   0.899   3.878  0.5379  0.1583  0.4030
   58MOL   H44129055   6.530   0.945   3.985  0.6694 -0.3507  0.3886
   58MOL   H44229056   6.808   0.840   4.025 -2.0001 -1.9512 -0.8797
   58MOL   H44329057   6.662   0.807   4.102  0.1080 -0.3094 -0.4434
   58MOL   H44429058   6.788   0.893   4.194  1.1119 -1.2745 -0.2104
   58MOL   H44529059   6.495   1.090   4.400 -0.5872  2.2195  0.6387
   58MOL   H44629060   6.452   1.216   4.302 -2.0897  0.5389 -0.1584
   58MOL   H44729061   6.292   0.974   4.114 -1.5346 -0.7896 -0.5831
   58MOL   H44829062   6.062   0.882   4.158  1.3541 -2.6302 -0.2416
   58MOL   H44929063   5.936   0.963   4.349  0.0612  0.9521  1.0508
   58MOL   H45029064   6.048   1.072   4.540  0.2070 -2.1669  0.6328
   58MOL   H45129065   6.273   1.154   4.507 -0.1762  1.3950 -1.2060
   58MOL   C45229066   6.842   1.089   3.983 -0.5252 -0.3271 -0.2462
   58MOL   C45329067   6.978   1.084   4.061 -0.3682  0.2634 -0.0562
   58MOL   C45429068   6.966   1.102   4.217  0.4931 -0.5196  0.9135
   58MOL   C45529069   7.064   1.205   4.008 -0.1902  0.3636  0.4397
   58MOL   O45629070   7.048   1.264   3.898 -0.0749  0.6545  0.0262
   58MOL   O45729071   7.176   1.227   4.087 -0.1000 -0.1867 -0.6703
   58MOL   C45829072   7.273   1.317   4.043  0.7528 -0.3199  0.3041
   58MOL   C45929073   7.258   1.451   4.098  0.2784 -0.5716 -0.3037
   58MOL   C46029074   7.170   1.544   4.033 -0.4399 -0.5613 -0.0710
   58MOL   C46129075   7.148   1.672   4.091 -0.9693  0.1904 -0.2551
   58MOL   C46229076   7.226   1.713   4.201  0.5083  0.0083 -0.1378
   58MOL   C46329077   7.308   1.622   4.264 -0.3776  0.8594 -0.2459
   58MOL   C46429078   7.322   1.494   4.217  0.5780 -0.6141 -0.1174
   58MOL   H46529079   6.813   1.194   3.973 -1.5139 -0.1006  3.8507
   58MOL   H46629080   6.846   1.054   3.880 -1.8653  0.4399 -0.5795
   58MOL   H46729081   6.911   1.192   4.245  1.8193  0.3848  0.6706
   58MOL   H46829082   7.062   1.111   4.268 -0.0403  0.6213  1.7373
   58MOL   H46929083   6.898   1.032   4.264 -0.2468  0.8335  1.8796
   58MOL   H47029084   7.374   1.280   4.059  0.8208 -1.7064 -2.8378
   58MOL   H47129085   7.277   1.320   3.934  0.3704 -1.0198  0.2596
   58MOL   H47229086   7.108   1.517   3.948 -0.7430 -0.2170  0.0414
   58MOL   H47329087   7.084   1.743   4.040  0.4020  1.5762 -0.0477
   58MOL   H47429088   7.209   1.811   4.242 -0.5323 -0.0349 -0.4476
   58MOL   H47529089   7.353   1.647   4.359 -1.2469 -0.2548  0.4707
   58MOL   H47629090   7.379   1.428   4.281  1.8475  0.6414  0.0730
   58MOL   C47729091   7.063   0.953   4.038 -0.3203 -0.8460  0.0829
   58MOL   C47829092   7.084   0.895   3.897 -0.0796 -0.5848  0.0769
   58MOL   C47929093   7.110   0.738   3.900 -0.4679 -0.1466 -0.0344
   58MOL   C48029094   7.204   0.966   3.822 -0.1886 -0.2650  0.0439
   58MOL   O48129095   7.292   1.027   3.883  0.9033 -0.0902  0.2293
   58MOL   O48229096   7.196   0.946   3.690 -0.0929  0.3046  0.0277
   58MOL   C48329097   7.302   0.988   3.611 -0.8240 -0.5578  0.2002
   58MOL   C48429098   7.276   0.946   3.474 -0.3385  0.6824 -0.4690
   58MOL   C48529099   7.288   0.811   3.435 -0.5465  0.1602 -0.1974
   58MOL   C48629100   7.261   0.786   3.297 -0.1570  0.0807 -0.6349
   58MOL   C48729101   7.240   0.889   3.199 -0.0290  0.5238 -0.5287
   58MOL   C48829102   7.243   1.022   3.248  0.5184 -0.4042 -0.6425
   58MOL   C48929103   7.247   1.049   3.387  0.1429 -0.2093 -0.1610
   58MOL   H49029104   7.023   0.870   4.095  0.4618  0.2602  2.3147
   58MOL   H49129105   7.157   0.972   4.091 -0.7350  3.4391 -0.5276
   58MOL   H49229106   7.156   0.698   3.809 -0.9698  1.3439 -0.9613
   58MOL   H49329107   7.016   0.683   3.909  0.4356 -1.9693 -1.3523
   58MOL   H49429108   7.184   0.703   3.972 -0.2188  0.3379 -0.0533
   58MOL   H49529109   7.305   1.097   3.616 -0.4638 -0.5849  0.6457
   58MOL   H49629110   7.400   0.967   3.655  0.1793  0.4555 -1.4799
   58MOL   H49729111   7.309   0.730   3.504 -1.9027  1.4269  1.7717
   58MOL   H49829112   7.268   0.686   3.258 -2.0825 -1.1086  1.9135
   58MOL   H49929113   7.221   0.861   3.096 -1.2450 -1.9727  0.3241
   58MOL   H50029114   7.222   1.097   3.174 -3.7882 -2.3997 -1.6183
   58MOL   H50129115   7.235   1.152   3.416  2.4983  0.6358 -2.0094
   58MOL   H50229116   7.002   0.935   3.837  1.9132  1.8705 -1.1409
   59MOL     C129117   3.659   0.773   2.101 -0.2022 -1.3420  0.5011
   59MOL     C229118   3.710   0.771   2.241  0.3700  0.8467 -0.0799
   59MOL     C329119   3.598   0.720   2.341  0.4365 -0.2920  0.0968
   59MOL     C429120   3.757   0.912   2.285 -0.1731 -0.0779  0.5821
   59MOL     O529121   3.750   1.008   2.207 -0.1337  0.0395  0.1231
   59MOL     O629122   3.790   0.908   2.413 -0.5166  0.0392 -0.2939
   59MOL     C729123   3.833   1.030   2.474  0.7198 -0.1183  0.1416
   59MOL     C829124   3.943   1.016   2.571 -0.1843  0.3169  0.3218
   59MOL     C929125   4.046   1.112   2.591 -0.9790 -0.4972 -0.2284
   59MOL    C1029126   4.138   1.088   2.695  0.9123  0.0676 -0.8469
   59MOL    C1129127   4.134   0.970   2.775 -1.0191  0.5179 -0.1152
   59MOL    C1229128   4.036   0.876   2.753 -0.0399 -0.3830 -0.1433
   59MOL    C1329129   3.939   0.899   2.656 -0.2827  0.5623 -0.6503
   59MOL    H1429130   3.592   0.859   2.096 -1.0936 -1.9336  1.9250
   59MOL    H1529131   3.737   0.790   2.027 -1.6497  0.6605 -0.5931
   59MOL    H1629132   3.610   0.755   2.444  2.5085 -2.0647  0.5038
   59MOL    H1729133   3.594   0.611   2.346  0.4933 -0.2227  2.4744
   59MOL    H1829134   3.498   0.750   2.312  0.0679  0.4117  1.9991
   59MOL    H1929135   3.852   1.107   2.399  3.8304 -1.1380 -0.1577
   59MOL    H2029136   3.748   1.051   2.539 -0.9109 -0.6713 -1.7698
   59MOL    H2129137   4.055   1.198   2.527  1.1757 -2.3060 -2.4817
   59MOL    H2229138   4.203   1.170   2.721 -1.2123  1.5348  0.0135
   59MOL    H2329139   4.202   0.954   2.858  0.9872  1.9722 -1.4340
   59MOL    H2429140   4.029   0.781   2.804 -2.1985 -0.1777 -0.0161
   59MOL    H2529141   3.864   0.822   2.646 -0.0963  0.0621  1.4342
   59MOL    H2629142   3.601   0.691   2.057 -0.5372 -0.0021 -1.6044
   59MOL    C2729143   3.834   0.671   2.253 -0.0892 -0.1213  0.0839
   59MOL    C2829144   3.964   0.670   2.157  0.2701 -0.3305  0.6757
   59MOL    C2929145   4.011   0.819   2.137 -1.4470  0.1087  0.1060
   59MOL    C3029146   3.924   0.612   2.012  0.2418  0.6304  0.2401
   59MOL    O3129147   3.945   0.680   1.911 -0.0735 -0.2542  0.1114
   59MOL    O3229148   3.868   0.494   2.028  0.1185 -0.1900 -0.7527
   59MOL    C3329149   3.825   0.421   1.918 -0.0585 -0.1989 -0.5708
   59MOL    C3429150   3.723   0.315   1.951  0.0189  0.0674 -0.3292
   59MOL    C3529151   3.617   0.334   2.035 -0.4000  0.5013 -0.3244
   59MOL    C3629152   3.532   0.225   2.074 -0.8003 -0.4592 -0.4783
   59MOL    C3729153   3.567   0.095   2.030 -0.4349 -0.6732 -0.1824
   59MOL    C3829154   3.666   0.074   1.937 -0.3396  0.1285 -0.4424
   59MOL    C3929155   3.750   0.186   1.896  0.0250  0.6681  1.0780
   59MOL    H4029156   3.783   0.575   2.249 -2.3898  1.1394 -3.1987
   59MOL    H4129157   3.881   0.677   2.351  2.3159 -0.4373 -1.0163
   59MOL    H4229158   4.062   0.866   2.221  0.2994  0.5510 -1.1653
   59MOL    H4329159   3.936   0.886   2.094 -2.7221 -0.4406  1.4041
   59MOL    H4429160   4.090   0.832   2.063 -0.9317  0.4300  0.7026
   59MOL    H4529161   3.775   0.486   1.846  1.1952  2.3931  0.8345
   59MOL    H4629162   3.912   0.369   1.880  0.8735 -0.1771  1.4804
   59MOL    H4729163   3.606   0.433   2.078  0.3356  0.9367 -1.1303
   59MOL    H4829164   3.451   0.238   2.144 -0.3936 -0.3035 -0.0337
   59MOL    H4929165   3.498   0.016   2.057 -1.2238  0.7964  2.1892
   59MOL    H5029166   3.685   7.988   1.886  0.4398 -0.1895  0.4132
   59MOL    H5129167   3.821   0.168   1.816 -2.8016 -1.3342 -1.0879
   59MOL    C5229168   4.074   0.585   2.228  0.0097  0.0108  0.4548
   59MOL    C5329169   4.214   0.540   2.149  0.0691  0.5554 -0.2902
   59MOL    C5429170   4.173   0.418   2.051  0.7741 -0.3265  0.8556
   59MOL    C5529171   4.301   0.478   2.264  0.1546 -0.1801 -0.1651
   59MOL    O5629172   4.310   0.357   2.282  0.6237 -1.0441  0.3983
   59MOL    O5729173   4.352   0.573   2.346  0.0726  0.0385 -0.6845
   59MOL    C5829174   4.425   0.537   2.452  0.1270  0.1363 -0.3270
   59MOL    C5929175   4.509   0.651   2.511 -0.5323  0.6542 -0.7191
   59MOL    C6029176   4.458   0.766   2.574 -0.0438  0.0965 -0.2246
   59MOL    C6129177   4.544   0.864   2.615  0.1835 -0.2404  0.3472
   59MOL    C6229178   4.684   0.862   2.582  0.5567  0.3410  0.5800
   59MOL    C6329179   4.733   0.750   2.521 -0.5464  0.4542 -0.2239
   59MOL    C6429180   4.645   0.641   2.496 -0.7671  0.0629 -0.2216
   59MOL    H6529181   4.035   0.496   2.276 -1.9487  1.0647  0.8508
   59MOL    H6629182   4.114   0.636   2.316  1.0523  0.6506 -0.3745
   59MOL    H6729183   4.140   0.455   1.953  1.1313 -0.0580  0.8369
   59MOL    H6829184   4.091   0.362   2.095 -0.5794  0.9054 -0.0483
   59MOL    H6929185   4.247   0.341   2.031  0.7845  0.3271 -1.9158
   59MOL    H7029186   4.362   0.501   2.533  0.9486 -2.0287 -0.6025
   59MOL    H7129187   4.491   0.456   2.422 -0.3255 -0.7685  1.0823
   59MOL    H7229188   4.358   0.770   2.613 -0.0765  1.1404 -0.4079
   59MOL    H7329189   4.502   0.942   2.676 -1.1025 -0.2906 -0.4562
   59MOL    H7429190   4.744   0.948   2.608  0.2404  0.3040  1.4426
   59MOL    H7529191   4.839   0.750   2.500  0.0096  0.6777  2.3201
   59MOL    H7629192   4.684   0.554   2.445  0.8003  1.4567 -1.4596
   59MOL    C7729193   4.284   0.657   2.076  0.6690 -0.1887 -0.2808
   59MOL    C7829194   4.422   0.658   2.005 -0.2005  1.1880 -0.1208
   59MOL    C7929195   4.533   0.656   2.113  0.1065 -1.0886 -0.1670
   59MOL    C8029196   4.426   0.794   1.940 -1.6392  0.4405  0.2778
   59MOL    O8129197   4.514   0.878   1.960 -0.7218 -0.6053 -0.4768
   59MOL    O8229198   4.327   0.819   1.854  0.1826  0.4075 -0.9934
   59MOL    C8329199   4.320   0.935   1.780  0.4325 -0.4203 -0.5003
   59MOL    C8429200   4.211   1.028   1.836 -0.0594  0.5383  0.0340
   59MOL    C8529201   4.080   0.990   1.817  0.1886 -0.2566  0.2617
   59MOL    C8629202   3.975   1.068   1.868 -0.2877 -0.3067 -0.4938
   59MOL    C8729203   4.016   1.172   1.953  0.7656 -1.2381  0.2163
   59MOL    C8829204   4.152   1.210   1.975  0.0578  0.0297 -0.7038
   59MOL    C8929205   4.250   1.135   1.918  0.5687 -0.4341 -0.8374
   59MOL    H9029206   4.275   0.747   2.137  1.3127 -1.5952  1.9319
   59MOL    H9129207   4.219   0.672   1.989  0.1035  0.6678  0.2756
   59MOL    H9229208   4.508   0.707   2.206  0.8763 -0.5648 -0.2447
   59MOL    H9329209   4.628   0.699   2.079 -0.9707  2.0761  0.6800
   59MOL    H9429210   4.562   0.557   2.147  0.1580 -0.8294  0.5421
   59MOL    H9529211   4.413   0.991   1.774  0.8293 -0.9419  0.6396
   59MOL    H9629212   4.296   0.912   1.676  1.1104 -1.8384 -0.3507
   59MOL    H9729213   4.058   0.899   1.764  0.1420  0.6020 -1.2473
   59MOL    H9829214   3.869   1.051   1.858 -0.1802  0.5665 -3.7034
   59MOL    H9929215   3.939   1.226   2.005  1.6426 -1.1456  1.4235
   59MOL   H10029216   4.181   1.291   2.041 -0.0895  0.6232 -1.3695
   59MOL   H10129217   4.355   1.139   1.941  0.7606 -0.7509 -1.6579
   59MOL   C10229218   4.432   0.539   1.901 -0.8166 -0.2852 -0.3914
   59MOL   C10329219   4.529   0.526   1.778 -0.1578 -0.1233 -0.1115
   59MOL   C10429220   4.674   0.558   1.821  0.0293  0.4432  0.8905
   59MOL   C10529221   4.473   0.616   1.667  0.1761 -0.2912  0.1865
   59MOL   O10629222   4.354   0.640   1.657  0.5815 -0.7432 -0.5524
   59MOL   O10729223   4.572   0.667   1.584 -0.0337 -0.8480 -1.0402
   59MOL   C10829224   4.544   0.762   1.486  0.0857  0.0708  0.4184
   59MOL   C10929225   4.511   0.698   1.351  0.3405 -0.5595  0.5868
   59MOL   C11029226   4.394   0.727   1.273 -0.2150 -0.4387 -0.6424
   59MOL   C11129227   4.370   0.675   1.149 -0.3248  0.3760  0.1082
   59MOL   C11229228   4.461   0.585   1.091  0.2302  0.1301  0.0685
   59MOL   C11329229   4.578   0.555   1.166 -0.1314 -0.2487  1.2438
   59MOL   C11429230   4.606   0.613   1.290 -0.4561  0.5953 -0.6235
   59MOL   H11529231   4.334   0.526   1.856 -0.5714  0.2313 -1.0870
   59MOL   H11629232   4.445   0.449   1.961 -1.7016 -0.8488 -1.0295
   59MOL   H11729233   4.715   0.494   1.899  4.0377  0.0144 -1.4705
   59MOL   H11829234   4.680   0.659   1.862 -1.2489 -0.0620  2.3877
   59MOL   H11929235   4.749   0.558   1.742 -1.1015 -1.1333 -0.2052
   59MOL   H12029236   4.478   0.843   1.518  0.5970  0.2792  0.9587
   59MOL   H12129237   4.636   0.820   1.471  0.9907 -0.9066  2.0332
   59MOL   H12229238   4.327   0.799   1.318  0.8420  0.2155 -0.0920
   59MOL   H12329239   4.277   0.700   1.100 -0.6739 -1.4798 -0.2454
   59MOL   H12429240   4.452   0.539   0.994  2.2919  1.8794 -1.0104
   59MOL   H12529241   4.655   0.488   1.129  0.4354  1.0255  0.0482
   59MOL   H12629242   4.698   0.590   1.341 -1.3067 -1.4412  0.0492
   59MOL   C12729243   4.530   0.373   1.746 -0.1322  0.1527  0.5226
   59MOL   C12829244   4.580   0.307   1.616  0.2291  0.1299 -0.0822
   59MOL   C12929245   4.726   0.354   1.578  0.2723  0.0815 -0.2003
   59MOL   C13029246   4.497   0.335   1.491 -0.5719 -1.0266  0.2755
   59MOL   O13129247   4.545   0.334   1.378 -0.2881 -0.1099 -0.0228
   59MOL   O13229248   4.376   0.362   1.520  0.5553  0.5736  0.5337
   59MOL   C13329249   4.292   0.389   1.412 -0.2141  0.0759 -0.0482
   59MOL   C13429250   4.148   0.360   1.436  0.3729  0.3556 -0.3717
   59MOL   C13529251   4.084   0.255   1.367  0.0096  0.0059  0.0459
   59MOL   C13629252   3.944   0.233   1.387  0.2902 -0.7322 -0.5000
   59MOL   C13729253   3.879   0.315   1.480  0.0436 -0.7491 -0.2889
   59MOL   C13829254   3.944   0.422   1.544  0.7459  0.3581 -0.1655
   59MOL   C13929255   4.076   0.441   1.528 -0.0093  0.7360 -1.0787
   59MOL   H14029256   4.436   0.328   1.780 -0.3678 -0.6423 -1.1183
   59MOL   H14129257   4.596   0.329   1.821 -0.7363  1.8030  2.0612
   59MOL   H14229258   4.744   0.458   1.551  1.1167 -0.4459 -1.6869
   59MOL   H14329259   4.769   0.290   1.501 -0.9793 -1.0698  0.0427
   59MOL   H14429260   4.791   0.349   1.665  0.5034  1.1906 -0.2989
   59MOL   H14529261   4.310   0.492   1.378 -0.0575 -0.0353 -0.3080
   59MOL   H14629262   4.311   0.325   1.326 -1.1210 -1.9820  1.2562
   59MOL   H14729263   4.141   0.202   1.292  0.6048  0.4671  0.1764
   59MOL   H14829264   3.882   0.160   1.337  1.5575 -1.3640 -1.1643
   59MOL   H14929265   3.778   0.286   1.505  0.0794 -0.5004  0.1448
   59MOL   H15029266   3.894   0.470   1.626  0.7395 -0.3702  0.2596
   59MOL   H15129267   4.124   0.514   1.592  0.3172  1.5218 -2.2061
   59MOL   C15229268   4.589   0.148   1.630  0.1367 -0.5289  0.0263
   59MOL   C15329269   4.476   0.057   1.693  0.4340  0.4671  0.0420
   59MOL   C15429270   4.337   0.091   1.639 -0.1498  0.0153  0.6323
   59MOL   C15529271   4.465   0.061   1.846 -0.4912 -0.6349  0.0060
   59MOL   O15629272   4.560   0.104   1.912 -0.3474  0.1353 -0.1839
   59MOL   O15729273   4.356   0.007   1.893 -0.2760 -0.1424  0.0103
   59MOL   C15829274   4.316   0.041   2.031  0.0864  0.7284  0.6850
   59MOL   C15929275   4.185   7.983   2.065 -0.7127  0.3361  0.4661
   59MOL   C16029276   4.159   7.851   2.018 -0.0113 -0.4892 -0.0455
   59MOL   C16129277   4.034   7.783   2.045  0.0503 -0.3043  0.8004
   59MOL   C16229278   3.938   7.852   2.126 -0.0847  0.3574 -0.0369
   59MOL   C16329279   3.967   7.982   2.171  0.1572 -0.1044 -0.2920
   59MOL   C16429280   4.085   0.041   2.136 -0.3851 -0.7749  0.7757
   59MOL   H16529281   4.676   0.136   1.694 -0.7692 -1.8101  1.0400
   59MOL   H16629282   4.612   0.116   1.528  2.2545  2.6326 -0.5494
   59MOL   H16729283   4.310   0.186   1.685  0.5357  0.1832  0.6942
   59MOL   H16829284   4.264   0.012   1.659 -0.8424  0.5329  0.1555
   59MOL   H16929285   4.337   0.110   1.532 -0.2226  0.2476  0.6732
   59MOL   H17029286   4.396   0.011   2.099  1.0824 -0.4162 -0.9700
   59MOL   H17129287   4.308   0.149   2.040  0.6760  0.6830  1.9474
   59MOL   H17229288   4.230   7.798   1.956 -0.1135  0.2627 -0.8287
   59MOL   H17329289   4.019   7.687   1.997 -0.8146 -0.2379  0.9154
   59MOL   H17429290   3.850   7.806   2.170  0.1780  1.8885  2.1601
   59MOL   H17529291   3.891   0.036   2.216  0.3812 -0.9237  1.2545
   59MOL   H17629292   4.102   0.139   2.179 -1.3121  0.2526 -1.1454
   59MOL   C17729293   4.511   7.913   1.647  0.0078  0.7233 -0.1211
   59MOL   C17829294   4.622   7.826   1.710  0.1736 -0.1285 -0.9496
   59MOL   C17929295   4.761   7.896   1.688  0.1359 -0.1666  0.5727
   59MOL   C18029296   4.612   7.687   1.629 -0.5209 -0.6662  0.1738
   59MOL   O18129297   4.677   7.666   1.528 -0.3213  0.0030  0.1401
   59MOL   O18229298   4.519   7.607   1.669 -0.1725 -0.8798 -0.2031
   59MOL   C18329299   4.502   7.479   1.596  0.0089 -0.3721  0.3820
   59MOL   C18429300   4.413   7.385   1.671  0.1069 -0.0509 -0.6148
   59MOL   C18529301   4.359   7.275   1.601  0.0673 -0.2082 -0.4285
   59MOL   C18629302   4.242   7.209   1.650  0.2438  0.3403 -0.3485
   59MOL   C18729303   4.197   7.240   1.784  0.0337  0.3639  0.6844
   59MOL   C18829304   4.264   7.335   1.864 -0.5066 -0.3278  0.3120
   59MOL   C18929305   4.365   7.413   1.800 -0.5513  0.2549 -0.5821
   59MOL   H19029306   4.530   7.914   1.540  0.2813 -0.0661 -0.0864
   59MOL   H19129307   4.422   7.852   1.630  0.0642  0.6024  0.0221
   59MOL   H19229308   4.766   7.950   1.594  2.4926 -1.9554 -0.3980
   59MOL   H19329309   4.842   7.824   1.696  0.2092 -0.0127  1.2846
   59MOL   H19429310   4.772   7.978   1.760 -2.3386  0.9196 -0.2508
   59MOL   H19529311   4.462   7.491   1.496  0.4460  3.8408  0.6049
   59MOL   H19629312   4.600   7.434   1.586  1.4365  2.2012  2.0739
   59MOL   H19729313   4.395   7.249   1.503  0.2570 -1.0948 -0.1331
   59MOL   H19829314   4.191   7.129   1.599 -0.0648  0.1760  0.2120
   59MOL   H19929315   4.113   7.179   1.813  0.5696 -1.2365 -1.0531
   59MOL   H20029316   4.244   7.357   1.968 -0.3322  1.4255 -0.0204
   59MOL   H20129317   4.398   7.499   1.857  0.4517 -0.5290  0.0243
   59MOL   C20229318   4.593   7.787   1.861 -0.5217 -0.1418  0.3256
   59MOL   C20329319   4.690   7.695   1.949  0.4282  0.0953  0.0894
   59MOL   C20429320   4.763   7.584   1.871 -0.4627  0.6248  0.4282
   59MOL   C20529321   4.592   7.630   2.051  0.2850  0.0051 -0.0330
   59MOL   O20629322   4.573   7.507   2.048 -0.1422  0.2823 -0.3569
   59MOL   O20729323   4.525   7.716   2.127 -0.2960  0.1933 -0.2473
   59MOL   C20829324   4.429   7.665   2.228 -0.1926  0.4860  0.2254
   59MOL   C20929325   4.360   7.775   2.314 -0.6324  0.8323  0.9509
   59MOL   C21029326   4.431   7.889   2.356 -0.3752  0.1765 -0.0181
   59MOL   C21129327   4.368   7.980   2.441 -0.2377 -0.3668 -0.0887
   59MOL   C21229328   4.239   7.958   2.491  0.7837 -0.1592 -0.4609
   59MOL   C21329329   4.167   7.851   2.438  0.3396  0.7646  0.1864
   59MOL   C21429330   4.226   7.760   2.356 -0.2270 -0.2004  0.4848
   59MOL   H21529331   4.492   7.746   1.870 -0.5039 -0.6288 -1.5088
   59MOL   H21629332   4.586   7.872   1.928 -1.4948  1.5837 -1.9044
   59MOL   H21729333   4.709   7.502   1.824  1.4612  0.8740 -2.3834
   59MOL   H21829334   4.821   7.530   1.946 -0.0688  2.2616  1.3099
   59MOL   H21929335   4.822   7.628   1.790  0.7023 -1.0302  0.3436
   59MOL   H22029336   4.360   7.608   2.166  1.0903 -2.4878  1.4725
   59MOL   H22129337   4.472   7.595   2.299  0.2935 -0.0545 -0.5864
   59MOL   H22229338   4.538   7.895   2.349 -0.2927  0.5542  1.3228
   59MOL   H22329339   4.429   0.053   2.482 -0.7558 -0.4161  0.8014
   59MOL   H22429340   4.202   0.023   2.563  0.0931 -0.2422 -0.7205
   59MOL   H22529341   4.066   7.831   2.470  0.6122  0.7100  1.0070
   59MOL   H22629342   4.172   7.679   2.310 -1.2511  1.3120 -1.0592
   59MOL   C22729343   4.795   7.789   2.032  0.6877  0.0725  0.2870
   59MOL   C22829344   4.926   7.745   2.117 -0.2530  0.2865 -0.2354
   59MOL   C22929345   5.047   7.714   2.029  0.9190  0.2696 -0.6998
   59MOL   C23029346   4.890   7.618   2.201  0.1766  0.1224 -0.5881
   59MOL   O23129347   4.937   7.504   2.170  0.2338 -0.4519 -0.2765
   59MOL   O23229348   4.807   7.643   2.300  0.4063  0.0764 -0.8424
   59MOL   C23329349   4.784   7.533   2.381  0.1036 -0.3866  0.5470
   59MOL   C23429350   4.694   7.556   2.502 -0.0118  0.3205 -0.5261
   59MOL   C23529351   4.571   7.482   2.521 -0.4812 -0.3033  0.3529
   59MOL   C23629352   4.486   7.506   2.631 -0.3820 -0.4784  0.0035
   59MOL   C23729353   4.514   7.605   2.725  0.3505 -0.1084  0.3763
   59MOL   C23829354   4.621   7.691   2.693 -0.5540 -0.4147  0.3086
   59MOL   C23929355   4.718   7.660   2.595 -0.5603 -0.7322 -0.5360
   59MOL   H24029356   4.733   7.857   2.090 -1.2482 -2.1801  0.9487
   59MOL   H24129357   4.833   7.858   1.957  0.9554  0.1251  0.4731
   59MOL   H24229358   5.022   7.653   1.943  1.1523  0.4890 -0.9240
   59MOL   H24329359   5.121   7.659   2.086 -0.4183 -2.4973 -1.5764
   59MOL   H24429360   5.094   7.804   1.989  3.2106 -1.0655 -1.0763
   59MOL   H24529361   4.757   7.448   2.318 -1.2598  1.1753 -1.0457
   59MOL   H24629362   4.879   7.505   2.426  0.2469 -0.9865 -0.1070
   59MOL   H24729363   4.532   7.407   2.453  0.1017  0.9615 -1.3925
   59MOL   H24829364   4.398   7.449   2.659  0.4404 -1.2153  1.1485
   59MOL   H24929365   4.461   7.642   2.812  1.5768 -0.2089  1.1897
   59MOL   H25029366   4.642   7.775   2.758 -1.7295 -1.2342  1.7750
   59MOL   H25129367   4.792   7.736   2.576 -1.2718  0.4590  1.3197
   59MOL   C25229368   4.968   7.866   2.215 -0.2221  0.1244  0.1011
   59MOL   C25329369   5.097   7.860   2.303 -0.5582 -0.6623 -0.1603
   59MOL   C25429370   5.115   7.728   2.380 -0.4775 -0.7958 -0.2251
   59MOL   C25529371   5.066   7.965   2.412  0.2688  0.5970 -0.3678
   59MOL   O25629372   5.039   7.932   2.523 -0.1207 -0.3393 -0.5097
   59MOL   O25729373   5.071   0.092   2.371  0.1833  0.0445 -0.1465
   59MOL   C25829374   5.048   0.190   2.463  0.1453  0.1871  0.9842
   59MOL   C25929375   4.908   0.225   2.490  0.3027 -0.2516  0.1248
   59MOL   C26029376   4.858   0.238   2.623  0.0618 -0.1385  0.5494
   59MOL   C26129377   4.729   0.276   2.644  0.5427 -0.2035 -0.4713
   59MOL   C26229378   4.633   0.291   2.544  0.1477  0.4729 -0.0969
   59MOL   C26329379   4.675   0.269   2.409  0.4137 -0.1173 -0.0174
   59MOL   C26429380   4.810   0.240   2.382 -0.6712 -0.3796  0.4446
   59MOL   H26529381   4.875   7.886   2.267 -2.1510 -1.1480 -2.7347
   59MOL   H26629382   4.982   7.945   2.142 -0.8775 -0.6649 -0.8917
   59MOL   H26729383   5.179   7.740   2.468 -0.0979 -0.4682 -0.5451
   59MOL   H26829384   5.161   7.649   2.321  0.5761 -1.1639  1.0604
   59MOL   H26929385   5.026   7.695   2.432 -0.8935  1.4924  0.5547
   59MOL   H27029386   5.094   0.166   2.559  2.0488 -0.4368 -0.0589
   59MOL   H27129387   5.106   0.279   2.440 -3.3806  2.1556 -0.6365
   59MOL   H27229388   4.917   0.233   2.713  1.1432  2.5060  0.0216
   59MOL   H27329389   4.704   0.276   2.749  2.9990  2.4116  0.1536
   59MOL   H27429390   4.529   0.296   2.570 -0.1574  0.5944 -1.2973
   59MOL   H27529391   4.602   0.277   2.330  0.2823 -1.8229 -0.0918
   59MOL   H27629392   4.844   0.226   2.280 -2.2139 -1.5590  0.0672
   59MOL   C27729393   5.232   7.900   2.227  0.7127  0.3959 -0.4755
   59MOL   C27829394   5.381   7.893   2.293 -0.0283 -0.5463  0.2824
   59MOL   C27929395   5.391   7.944   2.440 -0.7201 -0.2693  0.3927
   59MOL   C28029396   5.466   7.992   2.213  0.1069 -0.5673 -0.1199
   59MOL   O28129397   5.431   0.011   2.097  0.0934 -0.7682 -0.4958
   59MOL   O28229398   5.588   0.023   2.267  0.1362 -0.7270  0.1164
   59MOL   C28329399   5.671   0.097   2.180  0.2036 -0.6146 -0.0140
   59MOL   C28429400   5.722   0.227   2.243  0.0827  0.4750 -0.0792
   59MOL   C28529401   5.808   0.201   2.351  0.1391 -0.4487 -0.6341
   59MOL   C28629402   5.848   0.315   2.431  0.4834 -0.5902  0.5662
   59MOL   C28729403   5.813   0.442   2.389 -1.1402  0.8809 -0.1755
   59MOL   C28829404   5.735   0.462   2.277  0.9565  0.4699  0.0876
   59MOL   C28929405   5.685   0.354   2.205 -0.2928 -0.3943  0.0126
   59MOL   H29029406   5.227   0.001   2.208  0.2482  0.4128 -0.2599
   59MOL   H29129407   5.233   7.866   2.124 -0.6370  0.2424 -0.4370
   59MOL   H29229408   5.322   7.886   2.501 -2.1233 -0.7206 -1.5694
   59MOL   H29329409   5.375   0.045   2.445 -2.3981 -0.4778 -0.1988
   59MOL   H29429410   5.494   7.946   2.477 -0.4447  1.9154 -0.4246
   59MOL   H29529411   5.760   0.036   2.168  0.8748  0.4313 -0.4922
   59MOL   H29629412   5.638   0.121   2.079  1.6268 -0.1809 -0.3938
   59MOL   H29729413   5.839   0.105   2.390  0.2559  0.9877  2.9631
   59MOL   H29829414   5.909   0.302   2.519  2.1319 -0.1414 -0.4880
   59MOL   H29929415   5.844   0.524   2.452 -0.7554  0.2533  0.4599
   59MOL   H30029416   5.697   0.560   2.251  1.4065  0.5021 -0.4613
   59MOL   H30129417   5.635   0.359   2.109 -0.0601 -0.2517 -0.1021
   59MOL   C30229418   5.419   7.745   2.274  0.2679  0.4544  0.0410
   59MOL   C30329419   5.563   7.684   2.269 -0.4601  0.2023 -0.6469
   59MOL   C30429420   5.646   7.738   2.389  0.5535 -0.5573  0.1452
   59MOL   C30529421   5.638   7.725   2.143 -0.1588 -0.0006  0.0802
   59MOL   O30629422   5.749   7.788   2.137 -0.3588 -0.7438  0.4156
   59MOL   O30729423   5.567   7.694   2.034 -0.1912  0.3679  0.0581
   59MOL   C30829424   5.603   7.731   1.909  0.2216 -0.7790 -0.8387
   59MOL   C30929425   5.506   7.687   1.811 -0.4224  0.7466  0.1324
   59MOL   C31029426   5.375   7.749   1.793 -0.2216  0.3775 -0.0714
   59MOL   C31129427   5.285   7.712   1.694 -0.6716  0.5582  0.3378
   59MOL   C31229428   5.327   7.606   1.608 -0.1242 -0.1075 -0.0029
   59MOL   C31329429   5.448   7.540   1.630 -0.6964  0.0056  0.8199
   59MOL   C31429430   5.544   7.580   1.724  0.4094  0.4232 -0.2756
   59MOL   H31529431   5.368   7.709   2.184 -2.9611 -0.1314  2.0417
   59MOL   H31629432   5.368   7.689   2.353 -0.9901  0.1875 -0.9346
   59MOL   H31729433   5.598   7.716   2.484 -1.2225 -0.1341 -0.6332
   59MOL   H31829434   5.673   7.841   2.369 -1.3348 -0.1303 -0.3205
   59MOL   H31929435   5.742   7.687   2.400  0.9785  0.2546  0.2373
   59MOL   H32029436   5.627   7.837   1.904 -0.4929 -0.6394 -1.3336
   59MOL   H32129437   5.699   7.680   1.898  1.9173  1.5655  2.2622
   59MOL   H32229438   5.337   7.823   1.862 -0.0346  2.1891 -1.8692
   59MOL   H32329439   5.189   7.762   1.689 -0.7177  0.3871 -0.5420
   59MOL   H32429440   5.261   7.572   1.530 -0.1031 -1.0594  0.3878
   59MOL   H32529441   5.468   7.453   1.569  1.5757  0.5030  0.8138
   59MOL   H32629442   5.636   7.528   1.744  0.3777  0.9451  1.3215
   59MOL   C32729443   5.578   7.525   2.273 -0.4046  0.0005 -0.6439
   59MOL   C32829444   5.478   7.430   2.343  0.7544 -0.0835 -0.1560
   59MOL   C32929445   5.359   7.406   2.256 -0.4366 -0.0915 -0.4735
   59MOL   C33029446   5.446   7.467   2.488  0.2909  0.2867  1.0109
   59MOL   O33129447   5.530   7.511   2.564 -0.6266  0.6712  0.3072
   59MOL   O33229448   5.323   7.429   2.541  0.3065 -0.3245  0.5839
   59MOL   C33329449   5.281   7.459   2.672  0.2610  0.6993 -0.5731
   59MOL   C33429450   5.150   7.394   2.719  0.2886 -0.6856  0.4612
   59MOL   C33529451   5.027   7.471   2.714 -0.0096 -0.0791  0.4667
   59MOL   C33629452   4.907   7.408   2.752 -0.2379  0.0161 -0.4653
   59MOL   C33729453   4.915   7.284   2.813 -0.5642  0.1209 -0.8729
   59MOL   C33829454   5.036   7.211   2.827 -0.2921  0.1189 -0.3108
   59MOL   C33929455   5.155   7.273   2.786 -0.8502 -0.9077  0.7896
   59MOL   H34029456   5.683   7.509   2.296  0.0795  2.5415 -0.9936
   59MOL   H34129457   5.574   7.487   2.171 -1.8658 -1.3889 -0.1109
   59MOL   H34229458   5.264   7.426   2.306  0.8107  0.7330  1.6062
   59MOL   H34329459   5.339   7.307   2.215 -2.1526  0.5790 -1.3048
   59MOL   H34429460   5.369   7.471   2.170 -0.1906  0.8278  0.2511
   59MOL   H34529461   5.355   7.435   2.748 -1.5916  0.6857  1.2738
   59MOL   H34629462   5.266   7.565   2.692  0.5015  0.6717 -0.2335
   59MOL   H34729463   5.030   7.572   2.678 -0.5597  0.4666  1.9077
   59MOL   H34829464   4.811   7.458   2.754  0.0693  0.5711  0.6042
   59MOL   H34929465   4.828   7.231   2.849  1.9436 -1.3130  3.5220
   59MOL   H35029466   5.049   7.110   2.863  0.6284  0.8292  1.3909
   59MOL   H35129467   5.255   7.233   2.797  0.5296  1.9350 -0.9077
   59MOL   C35229468   5.559   7.296   2.347 -0.3436  0.1850  0.2448
   59MOL   C35329469   5.527   7.167   2.427  0.5359  0.5762 -0.6165
   59MOL   C35429470   5.375   7.129   2.409 -0.0572 -0.6729  0.6398
   59MOL   C35529471   5.564   7.188   2.576 -0.5743  1.0820 -0.3568
   59MOL   O35629472   5.484   7.170   2.668 -0.0029 -0.3862 -0.4168
   59MOL   O35729473   5.687   7.230   2.594 -0.0190 -0.2049 -0.2868
   59MOL   C35829474   5.747   7.258   2.721 -1.1401  0.7078 -0.5012
   59MOL   C35929475   5.882   7.321   2.714  0.1909 -0.0635  0.6932
   59MOL   C36029476   5.922   7.421   2.812 -0.4150 -0.0102  0.7173
   59MOL   C36129477   6.051   7.483   2.794  1.5683  0.0525 -0.2026
   59MOL   C36229478   6.140   7.451   2.686 -0.2973 -0.5509 -0.6022
   59MOL   C36329479   6.100   7.350   2.594  0.2779  0.0243 -0.0782
   59MOL   C36429480   5.974   7.288   2.611 -0.2435  0.9634  0.1998
   59MOL   H36529481   5.655   7.323   2.390 -0.9981  1.4207  0.9555
   59MOL   H36629482   5.564   7.267   2.242 -1.0492  2.1631 -0.3544
   59MOL   H36729483   5.313   7.216   2.434  1.2101  0.3846  0.1949
   59MOL   H36829484   5.340   7.042   2.464  1.4449 -0.9343  1.2099
   59MOL   H36929485   5.376   7.111   2.302 -2.4540 -1.7851  0.7815
   59MOL   H37029486   5.670   7.325   2.761 -1.8746  0.3189 -1.2594
   59MOL   H37129487   5.754   7.175   2.791  0.5214  1.9713  0.8802
   59MOL   H37229488   5.847   7.455   2.881 -0.6743  2.2027 -0.6186
   59MOL   H37329489   6.084   7.563   2.858  1.1251 -0.6283  0.8762
   59MOL   H37429490   6.233   7.506   2.687 -0.3794 -0.2623  3.8366
   59MOL   H37529491   6.166   7.326   2.511  2.2703 -1.8524  2.0029
   59MOL   H37629492   5.946   7.212   2.539  0.3024  0.2493  0.7453
   59MOL   C37729493   5.627   7.052   2.369 -0.3028  0.6405  0.2660
   59MOL   C37829494   5.604   6.896   2.391 -0.0453 -0.1851  0.0553
   59MOL   C37929495   5.572   6.870   2.536 -0.2410  0.6734  0.5298
   59MOL   C38029496   5.737   6.828   2.364 -0.4408 -0.4675 -0.0087
   59MOL   O38129497   5.837   6.890   2.328 -0.1663 -0.0722 -0.4059
   59MOL   O38229498   5.748   6.702   2.405 -0.1489 -0.4366 -0.3669
   59MOL   C38329499   5.856   6.626   2.370 -0.0707 -0.4695  0.2286
   59MOL   C38429500   5.849   6.486   2.418  0.4417 -0.1153  0.2596
   59MOL   C38529501   5.748   6.401   2.376  0.3219  0.2919 -0.1669
   59MOL   C38629502   5.743   6.272   2.423 -0.3683 -0.0774  0.3299
   59MOL   C38729503   5.840   6.221   2.509  0.4154 -0.3560  0.1397
   59MOL   C38829504   5.948   6.310   2.549 -0.1379  0.3836  0.2295
   59MOL   C38929505   5.947   6.442   2.503  0.2345  0.1018 -0.3866
   59MOL   H39029506   5.725   7.080   2.409 -0.5238  0.3722  1.0013
   59MOL   H39129507   5.647   7.061   2.262  0.5210  0.0012  0.3601
   59MOL   H39229508   5.480   6.920   2.569 -1.4576 -0.5839 -0.8948
   59MOL   H39329509   5.650   6.913   2.598 -0.0918  0.9330  0.1578
   59MOL   H39429510   5.565   6.766   2.570 -1.8938  0.8540  0.7809
   59MOL   H39529511   5.863   6.633   2.262 -1.7892 -2.5202 -0.0423
   59MOL   H39629512   5.936   6.683   2.418 -1.3250  3.1897 -1.7992
   59MOL   H39729513   5.674   6.430   2.303  0.9971  3.6904  0.4176
   59MOL   H39829514   5.660   6.208   2.400 -2.0681  2.4342 -0.7056
   59MOL   H39929515   5.840   6.118   2.540 -0.2324 -0.4717 -0.2475
   59MOL   H40029516   6.019   6.277   2.623  1.5515  1.3956 -0.9118
   59MOL   H40129517   6.027   6.502   2.545  1.0980 -1.6787  0.5847
   59MOL   C40229518   5.493   6.837   2.302  0.4507 -0.0209  0.3344
   59MOL   C40329519   5.484   6.805   2.149 -0.6334 -0.0212  0.6611
   59MOL   C40429520   5.591   6.694   2.121 -0.2544  0.4682  0.3733
   59MOL   C40529521   5.529   6.929   2.063  0.1554 -0.6862  0.0426
   59MOL   O40629522   5.644   6.945   2.022  0.0049 -0.2741  0.1102
   59MOL   O40729523   5.428   7.016   2.044  0.4251  0.0997  0.1629
   59MOL   C40829524   5.444   7.143   1.981  0.1176 -0.0733  0.3086
   59MOL   C40929525   5.315   7.209   1.947  0.9164 -0.3552 -0.2038
   59MOL   C41029526   5.309   7.349   1.917 -0.2266  0.7381 -0.2921
   59MOL   C41129527   5.189   7.415   1.892  0.2529  0.4133 -0.1023
   59MOL   C41229528   5.072   7.335   1.888 -0.4707 -0.5075 -0.1017
   59MOL   C41329529   5.073   7.195   1.906 -0.6494 -0.5319 -0.1443
   59MOL   C41429530   5.193   7.137   1.937 -0.3963  0.0633  0.5346
   59MOL   H41529531   5.405   6.901   2.312  0.8239  0.5941 -0.2201
   59MOL   H41629532   5.462   6.743   2.346 -1.0674  0.5975  0.6318
   59MOL   H41729533   5.696   6.724   2.124  0.3590 -1.6443  0.8659
   59MOL   H41829534   5.568   6.648   2.025 -1.7464 -2.1072  1.9433
   59MOL   H41929535   5.588   6.613   2.194 -0.3332  0.2998  0.1828
   59MOL   H42029536   5.515   7.212   2.027 -1.0052  0.2746  1.5525
   59MOL   H42129537   5.492   7.116   1.886  2.3702  0.4424  1.2636
   59MOL   H42229538   5.399   7.409   1.919  0.3041 -0.0664  1.3767
   59MOL   H42329539   5.183   7.517   1.858 -1.1861  0.2851 -0.2514
   59MOL   H42429540   4.984   7.386   1.853 -0.1790  0.6802  0.8611
   59MOL   H42529541   4.980   7.142   1.895 -1.7688  1.5506 -1.1336
   59MOL   H42629542   5.178   7.034   1.967  1.0624  0.2621  2.0104
   59MOL   C42729543   5.348   6.745   2.114 -0.7268  0.2438  0.3134
   59MOL   C42829544   5.312   6.670   1.977 -0.4225 -0.0121  0.2036
   59MOL   C42929545   5.357   6.753   1.853  0.1371  0.4172 -0.8564
   59MOL   C43029546   5.154   6.668   1.964 -0.0237  0.0249  0.1351
   59MOL   O43129547   5.088   6.567   1.985  0.0006  0.5265  0.2454
   59MOL   O43229548   5.100   6.784   1.934  0.3707  0.1157  0.0912
   59MOL   C43329549   4.960   6.808   1.909 -0.2589 -0.0371  0.1027
   59MOL   C43429550   4.913   6.770   1.772  0.3117 -0.3786 -0.1416
   59MOL   C43529551   4.996   6.750   1.662  0.4460  0.1829  0.3084
   59MOL   C43629552   4.946   6.717   1.537 -0.5420 -0.4687  0.4344
   59MOL   C43729553   4.813   6.707   1.519  0.3936 -0.6164  0.2406
   59MOL   C43829554   4.726   6.719   1.627  0.2053 -0.3318  0.5144
   59MOL   C43929555   4.778   6.756   1.756  0.1869 -0.0796 -0.8091
   59MOL   H44029556   5.279   6.827   2.136 -0.3839  0.1456  1.8696
   59MOL   H44129557   5.310   6.685   2.197 -2.1361 -0.2837 -0.6915
   59MOL   H44229558   5.313   6.712   1.762 -0.0386 -1.3064 -0.0200
   59MOL   H44329559   5.465   6.758   1.837  0.6937 -1.7720  1.9125
   59MOL   H44429560   5.328   6.858   1.861 -1.3734  0.0997 -1.9338
   59MOL   H44529561   4.909   6.750   1.986  0.9655 -0.2392  0.7621
   59MOL   H44629562   4.936   6.913   1.924 -0.6003 -0.3334  1.6752
   59MOL   H44729563   5.100   6.773   1.681  1.4282 -0.3288 -3.9795
   59MOL   H44829564   5.011   6.705   1.451 -1.5737  2.0986 -0.7602
   59MOL   H44929565   4.771   6.679   1.423 -1.3735 -0.0549  0.8333
   59MOL   H45029566   4.618   6.719   1.627  0.2112  0.3212 -0.3725
   59MOL   H45129567   4.711   6.760   1.841 -0.2176 -0.9537 -1.0822
   59MOL   C45229568   5.356   6.515   1.980 -0.2004 -0.1874  0.1224
   59MOL   C45329569   5.358   6.426   1.849 -0.0003 -0.6001  0.5168
   59MOL   C45429570   5.382   6.281   1.902  0.1861  0.7839 -0.1292
   59MOL   C45529571   5.458   6.472   1.751 -0.4686  0.0493 -0.2441
   59MOL   O45629572   5.430   6.527   1.640  0.2456 -0.0450  0.3839
   59MOL   O45729573   5.582   6.453   1.793 -0.4799 -0.0877  0.2038
   59MOL   C45829574   5.689   6.492   1.708  0.1543  0.2498 -0.1225
   59MOL   C45929575   5.804   6.549   1.791  0.2174  0.0383 -0.1130
   59MOL   C46029576   5.922   6.475   1.808 -0.4874  0.7897 -0.0793
   59MOL   C46129577   6.030   6.531   1.885 -0.7273 -0.3248 -0.1553
   59MOL   C46229578   6.009   6.652   1.948  0.1554 -0.1865  0.7372
   59MOL   C46329579   5.891   6.724   1.927  0.3831  0.1399 -0.3063
   59MOL   C46429580   5.785   6.675   1.848 -0.4627  0.2878  0.2829
   59MOL   H46529581   5.290   6.464   2.050  1.0248 -1.6622  0.2352
   59MOL   H46629582   5.448   6.495   2.035  0.7357  1.7759 -0.6821
   59MOL   H46729583   5.395   6.211   1.819 -3.1300  0.9934 -0.8886
   59MOL   H46829584   5.295   6.245   1.956  1.3906  0.8327  1.8993
   59MOL   H46929585   5.470   6.261   1.963 -1.1641 -0.7110  1.3856
   59MOL   H47029586   5.723   6.405   1.652  1.6907 -0.1641  1.3913
   59MOL   H47129587   5.666   6.563   1.629 -0.0615 -0.4587 -0.7032
   59MOL   H47229588   5.932   6.379   1.758  1.7500  1.0351 -0.1681
   59MOL   H47329589   6.120   6.474   1.899 -0.6973 -0.3546 -0.4842
   59MOL   H47429590   6.086   6.694   2.011  0.2493  1.8112 -0.6473
   59MOL   H47529591   5.879   6.815   1.985  0.4311 -1.4500  2.2855
   59MOL   H47629592   5.696   6.735   1.836  1.0515  2.2223 -1.7248
   59MOL   C47729593   5.221   6.417   1.775  0.0972  0.2688 -0.1082
   59MOL   C47829594   5.210   6.314   1.660 -0.6408  0.4158  0.4667
   59MOL   C47929595   5.122   6.362   1.544  0.6283  0.2958 -0.6078
   59MOL   C48029596   5.156   6.174   1.697 -0.2342  0.0078 -0.3853
   59MOL   O48129597   5.206   6.068   1.660  0.2850 -0.4692 -0.2324
   59MOL   O48229598   5.036   6.183   1.755  0.2422  0.3092  0.5979
   59MOL   C48329599   4.944   6.070   1.781 -0.1837  0.2665  0.1941
   59MOL   C48429600   4.800   6.103   1.735  0.0971  0.0170  0.8716
   59MOL   C48529601   4.771   6.243   1.716  0.4100  0.0562  0.1411
   59MOL   C48629602   4.640   6.278   1.676 -0.2138 -0.1869 -0.1630
   59MOL   C48729603   4.536   6.177   1.667 -0.5113 -0.1966  0.6973
   59MOL   C48829604   4.569   6.042   1.693  0.2794  0.6139 -0.3505
   59MOL   C48929605   4.699   6.008   1.721 -0.0442 -0.5834 -0.3319
   59MOL   H49029606   5.200   6.512   1.726  0.6219 -0.2759 -1.4190
   59MOL   H49129607   5.143   6.397   1.848 -1.0958  2.4223 -0.7354
   59MOL   H49229608   5.159   6.459   1.509 -1.3709  1.2570 -0.1109
   59MOL   H49329609   5.018   6.368   1.576  0.6966 -1.8614  0.0678
   59MOL   H49429610   5.130   6.303   1.453 -1.7967 -0.7561 -0.1745
   59MOL   H49529611   4.986   5.980   1.736  2.0456  0.3282  2.0769
   59MOL   H49629612   4.942   6.053   1.888 -0.6622 -2.4694 -0.1924
   59MOL   H49729613   4.848   6.317   1.731  1.4250 -1.0789  0.7479
   59MOL   H49829614   4.617   6.383   1.668 -3.1209 -0.7486  0.2390
   59MOL   H49929615   4.432   6.194   1.646 -0.3149  1.2873  0.8911
   59MOL   H50029616   4.494   5.964   1.686  1.8502 -0.9636 -0.0354
   59MOL   H50129617   4.721   5.904   1.740 -2.9875 -0.4784  4.4454
   59MOL   H50229618   5.313   6.300   1.625 -0.4745 -0.3687  1.2417
   60MOL     C129619   1.204   4.851   3.561  0.2289 -0.3947 -0.4939
   60MOL     C229620   1.236   4.834   3.712 -0.5476 -0.4705  0.2682
   60MOL     C329621   1.308   4.963   3.763 -0.1736  0.0706 -0.0533
   60MOL     C429622   1.345   4.722   3.715  0.2485  0.2087 -0.4002
   60MOL     O529623   1.374   4.649   3.618  0.0739 -0.7622  0.0922
   60MOL     O629624   1.403   4.707   3.839  0.2012 -0.2210  0.5309
   60MOL     C729625   1.505   4.607   3.858  0.3998 -0.3254  0.1768
   60MOL     C829626   1.468   4.465   3.888 -0.1363  0.5376 -0.0569
   60MOL     C929627   1.340   4.414   3.860 -0.2109  0.2272  0.0872
   60MOL    C1029628   1.319   4.277   3.872 -0.6916 -0.1487  0.6860
   60MOL    C1129629   1.411   4.192   3.929  0.2916 -0.9711 -0.2407
   60MOL    C1229630   1.537   4.244   3.962  0.7529  0.2734 -0.4825
   60MOL    C1329631   1.566   4.383   3.945  0.4551 -0.3693 -0.1276
   60MOL    H1429632   1.170   4.755   3.522 -0.2885 -0.3606 -0.1349
   60MOL    H1529633   1.134   4.930   3.534  0.1833 -0.9357 -2.0255
   60MOL    H1629634   1.252   5.054   3.742 -0.2547  0.4281  1.6085
   60MOL    H1729635   1.403   4.982   3.714 -0.0780  3.1239  1.2214
   60MOL    H1829636   1.334   4.960   3.869 -1.8480  3.1826  0.4993
   60MOL    H1929637   1.575   4.606   3.775 -0.1620  0.5487 -0.3123
   60MOL    H2029638   1.554   4.649   3.946  1.3085  1.0970 -0.9902
   60MOL    H2129639   1.255   4.476   3.838  0.4249  1.9581  2.2384
   60MOL    H2229640   1.215   4.254   3.856 -0.8069  1.1756 -0.6673
   60MOL    H2329641   1.382   4.092   3.958  1.3796 -0.6459  2.0686
   60MOL    H2429642   1.604   4.177   4.013 -0.7269  0.2252  1.4387
   60MOL    H2529643   1.662   4.426   3.970 -0.0199  1.1730 -0.9246
   60MOL    H2629644   1.298   4.867   3.508 -0.1864 -3.2985 -2.2707
   60MOL    C2729645   1.110   4.787   3.790  0.4218 -0.3612 -0.1161
   60MOL    C2829646   1.004   4.884   3.848  0.3181  0.6092  0.5708
   60MOL    C2929647   0.955   4.976   3.734  0.2861  0.0553  0.0616
   60MOL    C3029648   1.065   4.959   3.963 -0.5055 -0.2687 -0.1363
   60MOL    O3129649   1.073   5.085   3.957  0.3458 -0.2998 -0.3901
   60MOL    O3229650   1.121   4.887   4.067 -0.5297 -0.3756  0.5545
   60MOL    C3329651   1.178   4.951   4.177 -0.0965 -0.1550  0.1863
   60MOL    C3429652   1.290   4.872   4.232 -0.1287 -0.3352  0.4300
   60MOL    C3529653   1.290   4.731   4.223  0.4759  0.4737  0.0911
   60MOL    C3629654   1.401   4.656   4.263  0.6368 -1.1375  0.0063
   60MOL    C3729655   1.510   4.717   4.320 -0.5306 -0.1850  0.6507
   60MOL    C3829656   1.514   4.862   4.336 -0.4194 -0.0228  0.1509
   60MOL    C3929657   1.400   4.937   4.294 -0.2666  0.3376 -0.2929
   60MOL    H4029658   1.155   4.737   3.875  0.4707  1.5437  1.0144
   60MOL    H4129659   1.062   4.709   3.731  0.2668  0.3508 -0.9618
   60MOL    H4229660   0.864   5.030   3.760 -0.2961 -0.2289 -1.3127
   60MOL    H4329661   0.922   4.910   3.654 -0.0874 -0.0518  0.3059
   60MOL    H4429662   1.036   5.040   3.697  0.5728  0.1568  0.8648
   60MOL    H4529663   1.212   5.051   4.149 -0.1785 -0.9997 -3.1335
   60MOL    H4629664   1.115   4.970   4.264  2.4901  3.0143  1.4543
   60MOL    H4729665   1.208   4.682   4.172  2.3301 -0.0755 -2.4102
   60MOL    H4829666   1.403   4.548   4.257  0.9545 -1.0397 -1.8443
   60MOL    H4929667   1.592   4.650   4.343  0.4060  0.7355  0.0764
   60MOL    H5029668   1.597   4.922   4.371  0.2297 -0.9000  0.1100
   60MOL    H5129669   1.407   5.045   4.293  2.2970  0.1804 -2.9807
   60MOL    C5229670   0.889   4.794   3.915  0.7927 -0.4072 -0.1031
   60MOL    C5329671   0.736   4.851   3.937  0.0235  0.4732  0.4586
   60MOL    C5429672   0.653   4.829   3.812 -0.8381  0.3683 -0.1225
   60MOL    C5529673   0.736   5.000   3.970 -0.9407 -0.7557  0.0403
   60MOL    O5629674   0.679   5.090   3.904  0.5283  0.6681  0.0519
   60MOL    O5729675   0.806   5.019   4.083 -0.6424  0.3877 -0.5093
   60MOL    C5829676   0.824   5.151   4.129  0.1125 -0.0738 -0.2905
   60MOL    C5929677   0.914   5.164   4.253 -0.7551 -0.4683 -0.4466
   60MOL    C6029678   1.014   5.261   4.272  0.5085  0.2165  0.2515
   60MOL    C6129679   1.092   5.265   4.383  0.1380  0.1289 -0.3791
   60MOL    C6229680   1.073   5.164   4.478 -0.9605  0.0315 -0.1041
   60MOL    C6329681   0.969   5.069   4.466 -0.4295 -0.5378 -0.6137
   60MOL    C6429682   0.895   5.062   4.346  0.6190 -0.5456 -0.4436
   60MOL    H6529683   0.924   4.765   4.014 -0.7917  1.1496  0.9435
   60MOL    H6629684   0.890   4.703   3.856 -0.5770  0.3556 -1.3292
   60MOL    H6729685   0.644   4.723   3.792  2.8402 -0.2498  1.1550
   60MOL    H6829686   0.700   4.872   3.724  1.3965  1.5171  1.5739
   60MOL    H6929687   0.553   4.873   3.808 -0.4596  1.3563  0.8410
   60MOL    H7029688   0.858   5.213   4.047 -0.7402 -0.6362 -1.0720
   60MOL    H7129689   0.724   5.175   4.165  0.8937  0.5956  1.4986
   60MOL    H7229690   1.041   5.316   4.183  2.7838  2.6045  2.3301
   60MOL    H7329691   1.166   5.343   4.394 -0.3496  0.7459 -1.3070
   60MOL    H7429692   1.132   5.168   4.568 -1.4838 -0.9854  0.2846
   60MOL    H7529693   0.953   4.986   4.533 -1.0634 -0.5931 -0.8259
   60MOL    H7629694   0.819   4.986   4.337 -0.3351  0.4721 -1.0710
   60MOL    C7729695   0.668   4.777   4.064 -0.6068 -0.1962  0.0956
   60MOL    C7829696   0.613   4.633   4.081 -0.3740 -0.0323  0.1292
   60MOL    C7929697   0.472   4.637   4.016  0.2563  0.2566 -0.3708
   60MOL    C8029698   0.602   4.603   4.237  0.0506  0.2306 -0.0476
   60MOL    O8129699   0.494   4.561   4.286  0.6361 -0.4900  0.0633
   60MOL    O8229700   0.721   4.613   4.312  0.2584 -0.4107 -0.2355
   60MOL    C8329701   0.737   4.562   4.440  0.1564 -0.3533 -0.0366
   60MOL    C8429702   0.824   4.649   4.517  0.5524  0.0619 -0.1014
   60MOL    C8529703   0.798   4.678   4.647  0.3644 -0.3292 -0.6576
   60MOL    C8629704   0.888   4.747   4.729  0.2578  0.1064  0.3374
   60MOL    C8729705   1.013   4.784   4.673 -0.1201 -0.1452  0.1730
   60MOL    C8829706   1.050   4.746   4.543  0.0353 -0.2282  1.3671
   60MOL    C8929707   0.950   4.682   4.467 -0.4486  0.0603  0.4145
   60MOL    H9029708   0.613   4.845   4.129 -1.8809 -1.5333  0.4522
   60MOL    H9129709   0.750   4.773   4.136  0.9380 -1.7172 -1.7046
   60MOL    H9229710   0.438   4.741   4.018  3.2421  1.2593  0.4009
   60MOL    H9329711   0.396   4.579   4.069  0.3695  0.4211 -0.0217
   60MOL    H9429712   0.481   4.611   3.911 -0.2470  2.6538 -1.0532
   60MOL    H9529713   0.642   4.541   4.491  0.6173 -1.5166  0.3741
   60MOL    H9629714   0.779   4.463   4.424 -1.0614 -0.5896 -1.8149
   60MOL    H9729715   0.712   4.634   4.695  0.2121  1.1721  0.4823
   60MOL    H9829716   0.864   4.765   4.833  0.6517  1.9531  0.1234
   60MOL    H9929717   1.075   4.847   4.736 -1.5567  1.3316  0.1336
   60MOL   H10029718   1.144   4.771   4.497  0.0807 -1.6617  0.6366
   60MOL   H10129719   0.965   4.655   4.364  0.7673  0.0206  0.5967
   60MOL   C10229720   0.718   4.529   4.020  0.0607 -0.0085  0.0005
   60MOL   C10329721   0.716   4.375   4.047  0.8553 -0.7171  0.0446
   60MOL   C10429722   0.755   4.333   4.187 -0.2627  0.5350  0.0782
   60MOL   C10529723   0.806   4.315   3.942  0.3940  0.7228  0.4282
   60MOL   O10629724   0.917   4.271   3.962  0.2732 -0.3261 -0.3151
   60MOL   O10729725   0.752   4.334   3.818 -0.0266  0.1220  0.2134
   60MOL   C10829726   0.826   4.306   3.703  0.1706 -1.0175  0.3591
   60MOL   C10929727   0.849   4.437   3.622  0.3529 -0.1160 -0.0463
   60MOL   C11029728   0.748   4.540   3.623 -0.2168  0.5658 -0.0632
   60MOL   C11129729   0.766   4.659   3.547  0.7706  0.7005 -0.2579
   60MOL   C11229730   0.882   4.679   3.473  0.6086 -0.5051  0.2582
   60MOL   C11329731   0.973   4.573   3.468  0.0352 -0.2647 -0.8749
   60MOL   C11429732   0.968   4.458   3.547 -0.4489 -0.3610  0.1850
   60MOL   H11529733   0.817   4.563   4.051 -0.1065 -0.0156  0.5563
   60MOL   H11629734   0.723   4.553   3.914  0.8560  0.6696  0.1858
   60MOL   H11729735   0.794   4.231   4.179 -1.6215 -0.0227  0.3963
   60MOL   H11829736   0.684   4.346   4.268  0.9834  0.5828  1.1755
   60MOL   H11929737   0.844   4.384   4.223  1.7373 -0.2098 -3.5708
   60MOL   H12029738   0.923   4.258   3.718  0.1795 -1.4437 -0.9830
   60MOL   H12129739   0.765   4.242   3.638 -0.8111 -0.1434  0.4168
   60MOL   H12229740   0.669   4.534   3.697  0.4602  0.0154  0.6319
   60MOL   H12329741   0.688   4.733   3.557 -1.3384 -1.3381 -1.2950
   60MOL   H12429742   0.908   4.768   3.418 -1.0892 -0.1501 -0.0162
   60MOL   H12529743   1.066   4.584   3.414  1.6430  0.4149  1.9341
   60MOL   H12629744   1.050   4.388   3.555 -0.6263 -0.6860 -0.7234
   60MOL   C12729745   0.565   4.333   4.018 -0.0745 -0.0624 -0.0230
   60MOL   C12829746   0.513   4.179   4.019 -0.0061  0.1307 -0.1044
   60MOL   C12929747   0.503   4.146   4.173 -0.3136  0.1915  0.2127
   60MOL   C13029748   0.602   4.080   3.950 -0.1143  0.5710  0.5755
   60MOL   O13129749   0.680   4.007   4.009 -0.1197 -0.1396 -0.3865
   60MOL   O13229750   0.600   4.084   3.820  0.2151 -0.1789  0.0260
   60MOL   C13329751   0.650   3.964   3.756  0.3752  0.3348  0.4644
   60MOL   C13429752   0.778   3.968   3.683 -0.5274  0.2142  0.6140
   60MOL   C13529753   0.785   3.984   3.541  0.1374 -0.2842  0.3472
   60MOL   C13629754   0.909   3.981   3.476  0.2887  0.4754 -0.0196
   60MOL   C13729755   1.033   3.979   3.554  0.0570 -0.3379  0.6806
   60MOL   C13829756   1.028   3.966   3.694  0.5088 -0.1692 -0.7767
   60MOL   C13929757   0.900   3.954   3.756  0.6640 -0.4226 -0.3461
   60MOL   H14029758   0.540   4.373   3.920 -1.0415 -1.9609 -0.5723
   60MOL   H14129759   0.502   4.390   4.086  0.5743  1.5659 -0.7602
   60MOL   H14229760   0.468   4.047   4.201 -1.5414  0.2808 -0.9603
   60MOL   H14329761   0.445   4.223   4.223 -1.4827 -0.6956  0.2404
   60MOL   H14429762   0.601   4.147   4.220 -0.7387 -2.1563  1.2052
   60MOL   H14529763   0.655   3.877   3.822  0.1586 -0.7360 -0.9071
   60MOL   H14629764   0.585   3.934   3.673  1.1699  0.8531 -0.3590
   60MOL   H14729765   0.693   3.982   3.483  0.5859 -1.0203 -0.3492
   60MOL   H14829766   0.918   3.979   3.369  0.7364  0.4515  0.0146
   60MOL   H14929767   1.126   3.981   3.499  0.7586 -3.0823  1.6730
   60MOL   H15029768   1.115   3.960   3.757  0.2086  2.6089 -0.0047
   60MOL   H15129769   0.904   3.943   3.864  2.6172 -0.1059 -0.3745
   60MOL   C15229770   0.362   4.172   3.956 -0.4254  0.2061  0.2660
   60MOL   C15329771   0.270   4.052   3.969  0.3344 -0.5430 -0.0628
   60MOL   C15429772   0.344   3.911   3.964 -0.2867 -0.6108  0.3042
   60MOL   C15529773   0.176   4.055   3.838  0.6821  0.2796 -0.3677
   60MOL   O15629774   0.073   4.119   3.834 -0.6452  0.1181  0.2613
   60MOL   O15729775   0.216   3.973   3.737  0.1358  0.9443  0.0050
   60MOL   C15829776   0.143   3.952   3.619 -0.3176 -0.2091  0.3300
   60MOL   C15929777   0.236   3.929   3.498  0.4883  0.4926  0.2883
   60MOL   C16029778   0.366   3.870   3.524 -0.2980 -0.3221 -0.2550
   60MOL   C16129779   0.450   3.826   3.421 -0.7225  0.5817  0.2268
   60MOL   C16229780   0.412   3.860   3.288  0.1547 -0.2976  0.6177
   60MOL   C16329781   0.292   3.929   3.261 -0.2314  0.2545  0.0627
   60MOL   C16429782   0.205   3.964   3.367  0.4397 -0.1855 -0.6048
   60MOL   H16529783   0.376   4.183   3.849  0.8828  1.0370  0.5152
   60MOL   H16629784   0.303   4.260   3.984 -0.7526  0.1410 -0.2190
   60MOL   H16729785   0.276   3.827   3.952  0.2234 -0.6118 -3.0349
   60MOL   H16829786   0.404   3.896   4.054  0.3481  1.3289  0.2444
   60MOL   H16929787   0.419   3.892   3.887 -0.8763  0.9271 -0.6868
   60MOL   H17029788   0.087   3.858   3.625 -2.7333  1.0816 -1.1088
   60MOL   H17129789   0.079   4.037   3.597 -0.8074 -0.4335  0.8765
   60MOL   H17229790   0.386   3.854   3.629 -0.1185 -1.3338 -0.4433
   60MOL   H17329791   0.545   3.780   3.444 -0.0328  1.2459 -1.1999
   60MOL   H17429792   0.484   3.847   3.209  0.4685 -3.0826  1.3251
   60MOL   H17529793   0.262   3.947   3.159  0.0376 -0.8003 -0.2025
   60MOL   H17629794   0.106   4.005   3.355  0.9635  1.1123 -0.6182
   60MOL   C17729795   0.182   4.065   4.107  0.7020  0.1173 -0.7687
   60MOL   C17829796   0.086   3.955   4.167 -0.3649  0.6386  0.7215
   60MOL   C17929797   0.000   3.895   4.055 -0.4996 -0.1992 -0.1978
   60MOL   C18029798   8.000   4.031   4.262  0.3010  0.5223 -0.0091
   60MOL   O18129799   7.877   4.048   4.246 -0.3473 -0.5098 -0.3690
   60MOL   O18229800   0.054   4.075   4.369 -0.1920  0.2315 -0.0898
   60MOL   C18329801   7.996   4.147   4.468  0.5852 -0.4843 -0.1920
   60MOL   C18429802   0.071   4.166   4.594  0.9181 -0.3414 -0.1493
   60MOL   C18529803   0.005   4.218   4.712 -0.4647  0.0917  0.3238
   60MOL   C18629804   0.082   4.235   4.827 -0.5853 -0.0274 -0.1525
   60MOL   C18729805   0.219   4.190   4.831 -0.4720 -0.2488  0.8230
   60MOL   C18829806   0.282   4.150   4.715  0.1554  0.4651  0.7355
   60MOL   C18929807   0.211   4.135   4.595  0.1644  0.1802 -0.1656
   60MOL   H19029808   0.123   4.155   4.088 -0.5943 -0.9178 -1.7209
   60MOL   H19129809   0.240   4.108   4.188  0.8937  0.7381 -1.2271
   60MOL   H19229810   0.066   3.853   3.979  2.0901 -0.3974  2.0726
   60MOL   H19329811   7.956   3.974   4.000  2.3927  1.0148 -1.2602
   60MOL   H19429812   7.933   3.829   4.100  1.0675 -0.1211  2.6120
   60MOL   H19529813   7.985   4.250   4.432  1.0950 -0.2503  0.3081
   60MOL   H19629814   7.896   4.107   4.486  1.0707 -1.1622  1.0339
   60MOL   H19729815   7.917   4.269   4.710 -1.2793 -1.4102 -3.5711
   60MOL   H19829816   0.043   4.279   4.918  1.8143  1.2048  0.3220
   60MOL   H19929817   0.283   4.223   4.911 -1.3597  1.5479  0.8221
   60MOL   H20029818   0.388   4.127   4.723 -0.3147 -1.7437  1.0096
   60MOL   H20129819   0.263   4.118   4.502  0.6777  0.1776  0.1209
   60MOL   C20229820   0.181   3.863   4.251 -0.3644  0.5222 -0.1059
   60MOL   C20329821   0.137   3.739   4.333  0.4843  0.1793 -0.1270
   60MOL   C20429822   0.194   3.622   4.253 -0.4133 -0.8052  0.1729
   60MOL   C20529823   7.987   3.724   4.333 -0.5609 -0.5196 -0.1430
   60MOL   O20629824   7.935   3.647   4.255  0.1568  0.4515  0.7049
   60MOL   O20729825   7.919   3.798   4.413  0.3207 -0.1229 -0.1710
   60MOL   C20829826   7.779   3.781   4.434  0.7668 -0.9972 -0.4270
   60MOL   C20929827   7.728   3.773   4.574 -0.3094  0.0605 -0.4841
   60MOL   C21029828   7.600   3.714   4.595  0.3762  0.1188 -0.2691
   60MOL   C21129829   7.549   3.705   4.724  0.0938  0.1243 -0.4388
   60MOL   C21229830   7.625   3.756   4.832 -0.6191  0.2739  0.3333
   60MOL   C21329831   7.751   3.820   4.814  0.3120  0.3190  0.0076
   60MOL   C21429832   7.803   3.825   4.684  0.1512  0.1273  0.3049
   60MOL   H21529833   0.234   3.927   4.321 -2.4888 -0.2763  2.2870
   60MOL   H21629834   0.251   3.831   4.174 -1.3268 -0.3837 -0.6085
   60MOL   H21729835   0.152   3.528   4.289 -3.1853  0.6649  0.9327
   60MOL   H21829836   0.302   3.610   4.256 -0.5012 -1.3189  1.4534
   60MOL   H21929837   0.168   3.641   4.149  1.2246  3.6621  0.4565
   60MOL   H22029838   7.742   3.873   4.388 -1.3954  0.1529  3.4068
   60MOL   H22129839   7.734   3.695   4.384 -2.7131  0.6100 -0.2214
   60MOL   H22229840   7.545   3.683   4.508 -0.4989  0.6546  0.0827
   60MOL   H22329841   7.455   3.661   4.752  0.3639 -0.1366  0.0751
   60MOL   H22429842   7.582   3.749   4.931 -0.9026 -0.4654  0.1635
   60MOL   H22529843   7.806   3.857   4.899 -2.3291  2.5857  0.8000
   60MOL   H22629844   7.898   3.876   4.678  0.9837 -1.4236  0.0915
   60MOL   C22729845   0.180   3.736   4.486  0.8600 -0.1262 -0.2692
   60MOL   C22829846   0.332   3.719   4.537  0.2607 -0.9109 -0.2363
   60MOL   C22929847   0.375   3.580   4.520  0.4247  0.7787 -0.4459
   60MOL   C23029848   0.324   3.744   4.689  0.2060 -0.2699  0.3019
   60MOL   O23129849   0.348   3.852   4.736  0.2105  0.0541 -0.4685
   60MOL   O23229850   0.265   3.643   4.760 -0.0566 -0.2083  0.5203
   60MOL   C23329851   0.230   3.661   4.891  0.2412  0.2844 -0.0358
   60MOL   C23429852   0.145   3.545   4.955 -0.3346  0.0278  0.3774
   60MOL   C23529853   0.201   3.448   5.042 -0.1289 -0.6092 -0.2026
   60MOL   C23629854   0.133   3.331   5.081 -0.2785 -0.8967  0.0508
   60MOL   C23729855   0.008   3.303   5.028  0.5425 -0.3776  0.0062
   60MOL   C23829856   7.946   3.400   4.951 -0.0359 -0.3092  0.6067
   60MOL   C23929857   0.014   3.515   4.913 -0.0044  0.3281  0.1178
   60MOL   H24029858   0.124   3.659   4.539  1.6099 -1.5353 -1.4756
   60MOL   H24129859   0.139   3.827   4.528  0.3024 -0.4992 -0.0050
   60MOL   H24229860   0.427   3.567   4.425 -1.1298 -1.0023 -1.0699
   60MOL   H24329861   0.293   3.509   4.513  1.7075 -0.6674 -1.0844
   60MOL   H24429862   0.449   3.545   4.593 -0.4875  2.5322  1.3902
   60MOL   H24529863   0.320   3.678   4.950  0.4428  1.1732 -0.5801
   60MOL   H24629864   0.167   3.749   4.903 -0.1456 -0.2955  2.4829
   60MOL   H24729865   0.302   3.463   5.079 -0.7644  0.4515  1.1496
   60MOL   H24829866   0.195   3.264   5.139 -1.2825 -0.0276  2.1951
   60MOL   H24929867   7.972   3.207   5.052 -1.3684  0.7211  1.0956
   60MOL   H25029868   7.850   3.381   4.905 -0.0939 -0.5461  0.8243
   60MOL   H25129869   7.972   3.583   4.844 -1.3502 -0.6578  0.0836
   60MOL   C25229870   0.429   3.821   4.461  0.7909  0.1108 -0.3715
   60MOL   C25329871   0.588   3.833   4.484 -0.2866 -0.4843  0.8186
   60MOL   C25429872   0.643   3.845   4.339  0.6028 -0.9335  0.2226
   60MOL   C25529873   0.654   3.714   4.552  1.4740 -0.3324 -0.1505
   60MOL   O25629874   0.724   3.632   4.492  0.7448 -0.0887 -0.1318
   60MOL   O25729875   0.622   3.707   4.678  0.3797  0.3400 -0.2442
   60MOL   C25829876   0.671   3.603   4.768 -0.1284 -0.3964  0.5017
   60MOL   C25929877   0.707   3.657   4.904  0.2907  0.1094 -0.6617
   60MOL   C26029878   0.616   3.738   4.978  0.8999 -0.3801 -0.6830
   60MOL   C26129879   0.652   3.788   5.106  0.2940  0.0943  0.1770
   60MOL   C26229880   0.782   3.748   5.154 -0.4073 -0.2343  0.4571
   60MOL   C26329881   0.872   3.668   5.081 -0.5266  0.1419 -0.2424
   60MOL   C26429882   0.838   3.631   4.952 -0.0931  0.2841  0.4235
   60MOL   H26529883   0.389   3.920   4.485  0.3240 -0.2394  0.3206
   60MOL   H26629884   0.416   3.804   4.354  0.7653 -1.1485 -0.1761
   60MOL   H26729885   0.626   3.946   4.301  2.5842 -0.3583  0.8078
   60MOL   H26829886   0.594   3.778   4.268 -0.2732 -0.5758  0.4853
   60MOL   H26929887   0.750   3.822   4.330  0.9253  0.3601  0.6569
   60MOL   H27029888   0.595   3.526   4.783  0.9515 -1.4049  0.8968
   60MOL   H27129889   0.755   3.549   4.726  0.3747 -1.6551  3.0046
   60MOL   H27229890   0.516   3.754   4.939 -0.0455  0.1879  1.8511
   60MOL   H27329891   0.589   3.851   5.166 -0.4368  0.0629 -0.5435
   60MOL   H27429892   0.809   3.777   5.254  0.1254 -0.3270  0.3415
   60MOL   H27529893   0.967   3.639   5.122  1.5730  3.0093 -2.8434
   60MOL   H27629894   0.909   3.565   4.906 -0.9888 -0.0559 -0.5036
   60MOL   C27729895   0.632   3.971   4.551  0.3963  0.5057 -0.6475
   60MOL   C27829896   0.777   4.012   4.601  0.0215 -0.1141 -0.7077
   60MOL   C27929897   0.816   3.927   4.734  0.0280 -0.1369  0.4164
   60MOL   C28029898   0.759   4.162   4.643  0.1996 -0.0865 -0.1485
   60MOL   O28129899   0.668   4.233   4.591 -0.3115 -0.7296 -0.2260
   60MOL   O28229900   0.832   4.201   4.742  0.3188  0.1102 -0.2264
   60MOL   C28329901   0.825   4.335   4.800  0.5471  0.4752  0.6507
   60MOL   C28429902   0.764   4.331   4.943  0.0601 -0.1858 -0.0567
   60MOL   C28529903   0.766   4.443   5.023 -0.2269 -0.0517 -0.3089
   60MOL   C28629904   0.714   4.437   5.152  0.1958  0.9139  0.1621
   60MOL   C28729905   0.650   4.321   5.198 -0.2393  0.4362 -0.4021
   60MOL   C28829906   0.645   4.207   5.119  0.0050 -0.3204 -0.5567
   60MOL   C28929907   0.706   4.208   4.990  0.1219  0.0832 -0.1074
   60MOL   H29029908   0.564   3.965   4.636 -0.4512  2.9112 -1.1120
   60MOL   H29129909   0.590   4.052   4.491 -1.1587 -0.3276 -0.7060
   60MOL   H29229910   0.831   3.819   4.727  2.2838 -0.0626  3.1967
   60MOL   H29329911   0.743   3.919   4.815  0.0203  2.7970  0.7474
   60MOL   H29429912   0.901   3.960   4.794 -0.3714 -2.1069  2.1274
   60MOL   H29529913   0.928   4.367   4.788  0.3900  0.6261 -0.2565
   60MOL   H29629914   0.761   4.398   4.739 -0.2547  0.4311  1.4355
   60MOL   H29729915   0.805   4.534   4.981  3.0282 -0.4674  1.6334
   60MOL   H29829916   0.721   4.523   5.217 -0.3577 -0.0474  1.5156
   60MOL   H29929917   0.607   4.325   5.297  0.2918 -2.6570  0.0262
   60MOL   H30029918   0.603   4.121   5.169 -0.0263 -0.0622 -0.1461
   60MOL   H30129919   0.683   4.127   4.922 -0.7619 -0.5579  0.9300
   60MOL   C30229920   0.890   3.989   4.492 -0.5196 -0.5900  0.2271
   60MOL   C30329921   1.036   4.044   4.502  0.1661  0.3624  0.3512
   60MOL   C30429922   1.091   4.027   4.641 -0.9365  0.5335  0.0519
   60MOL   C30529923   1.043   4.191   4.457 -0.0865  0.0263  0.1909
   60MOL   O30629924   0.961   4.246   4.389  0.5051 -0.2090  0.2230
   60MOL   O30729925   1.156   4.246   4.491 -0.1855 -0.1777 -0.6596
   60MOL   C30829926   1.182   4.381   4.461  0.0827  0.1876  0.4044
   60MOL   C30929927   1.291   4.439   4.559 -0.2616  0.3133 -0.0525
   60MOL   C31029928   1.257   4.506   4.675 -0.0909  0.6298 -0.1081
   60MOL   C31129929   1.356   4.549   4.767  0.1175 -0.3641  0.2947
   60MOL   C31229930   1.492   4.542   4.735  0.4766  0.1154  0.1680
   60MOL   C31329931   1.531   4.481   4.618 -0.0134 -0.6167 -0.0671
   60MOL   C31429932   1.432   4.436   4.532  0.3482 -0.3905  0.3529
   60MOL   H31529933   0.855   4.018   4.393  2.7675  1.9597 -0.2957
   60MOL   H31629934   0.898   3.881   4.488  2.5938 -0.4098  0.1627
   60MOL   H31729935   1.047   4.105   4.704  0.6055  1.6630 -0.2336
   60MOL   H31829936   1.194   4.060   4.649 -0.7900  0.9029 -2.8760
   60MOL   H31929937   1.077   3.927   4.681 -1.4880 -0.3516 -2.2604
   60MOL   H32029938   1.209   4.383   4.356 -1.5571 -1.1949 -0.0572
   60MOL   H32129939   1.096   4.447   4.471  0.0120  0.0581  0.6703
   60MOL   H32229940   1.152   4.519   4.698 -0.0084  0.5308  0.3402
   60MOL   H32329941   1.330   4.599   4.859  0.8004 -0.2216  0.4169
   60MOL   H32429942   1.563   4.578   4.808  2.4625  0.0122 -1.6713
   60MOL   H32529943   1.634   4.475   4.585  0.1675 -0.8009  0.5252
   60MOL   H32629944   1.467   4.383   4.444  1.1372 -0.7161  0.8540
   60MOL   C32729945   1.129   3.964   4.398  0.2790 -0.4595 -0.1196
   60MOL   C32829946   1.091   3.919   4.251 -0.4327  0.4802 -0.2046
   60MOL   C32929947   1.019   4.030   4.179 -0.1299 -0.5879 -0.9663
   60MOL   C33029948   1.007   3.788   4.254  0.3755  0.0593 -0.1933
   60MOL   O33129949   1.014   3.708   4.348 -0.0769 -0.2646  0.5997
   60MOL   O33229950   0.939   3.766   4.142 -0.2478 -0.4207  0.0036
   60MOL   C33329951   0.864   3.652   4.129  0.1287 -0.0748  0.8849
   60MOL   C33429952   0.806   3.633   3.993  0.2404 -0.6461 -0.3197
   60MOL   C33529953   0.883   3.642   3.870 -0.3963  0.5342  0.0711
   60MOL   C33629954   0.811   3.614   3.748  0.0968 -0.1399  0.0204
   60MOL   C33729955   0.673   3.592   3.751 -0.5983 -0.7050  0.5900
   60MOL   C33829956   0.600   3.585   3.869 -0.1189 -0.4787 -0.0107
   60MOL   C33929957   0.666   3.606   3.985 -0.1627 -0.0296  0.4570
   60MOL   H34029958   1.173   3.878   4.449  0.7912 -0.0720  0.1032
   60MOL   H34129959   1.212   4.035   4.396 -1.2776  1.3878 -0.7901
   60MOL   H34229960   1.068   4.126   4.196 -1.9274  0.6672 -2.6688
   60MOL   H34329961   0.916   4.038   4.212  0.1240  0.1232 -0.3330
   60MOL   H34429962   1.013   4.007   4.072 -0.9712  0.4606 -1.1469
   60MOL   H34529963   0.929   3.565   4.145 -0.4920 -0.4309  1.5129
   60MOL   H34629964   0.786   3.659   4.206 -1.3659 -3.1924 -0.2479
   60MOL   H34729965   0.989   3.658   3.856 -0.5632  3.8088  2.1335
   60MOL   H34829966   0.866   3.626   3.655 -2.9140  0.0028 -1.7956
   60MOL   H34929967   0.631   3.576   3.653 -0.6985 -0.0183  0.5147
   60MOL   H35029968   0.496   3.556   3.864 -0.2884  0.3503 -1.7617
   60MOL   H35129969   0.598   3.604   4.069  0.4942 -0.3684  0.9865
   60MOL   C35229970   1.230   3.894   4.168  0.1150  0.4393 -0.6630
   60MOL   C35329971   1.351   3.794   4.193 -0.1740 -0.0659 -0.1827
   60MOL   C35429972   1.288   3.657   4.184  0.3106  0.3044 -0.3731
   60MOL   C35529973   1.412   3.819   4.326  0.2142  0.3553 -0.1939
   60MOL   O35629974   1.409   3.737   4.417  0.1983 -0.4700 -1.3119
   60MOL   O35729975   1.481   3.935   4.324 -0.6679 -0.2274 -0.4900
   60MOL   C35829976   1.547   3.985   4.439  0.7231  0.5279  0.4072
   60MOL   C35929977   1.652   4.091   4.407  0.3830 -0.2585 -0.9493
   60MOL   C36029978   1.773   4.094   4.479 -0.4755  0.5118  0.4359
   60MOL   C36129979   1.864   4.199   4.450  0.1881  0.1783 -0.6509
   60MOL   C36229980   1.830   4.294   4.356  0.1397  0.6203  0.0477
   60MOL   C36329981   1.713   4.284   4.274  0.5147 -1.0124 -0.0986
   60MOL   C36429982   1.623   4.183   4.302  0.0831 -0.1312  0.6079
   60MOL   H36529983   1.276   3.991   4.150  0.9426  0.1599 -0.0574
   60MOL   H36629984   1.190   3.873   4.069  0.7014 -2.4540 -0.3085
   60MOL   H36729985   1.367   3.585   4.204 -0.0321  0.3551  1.1773
   60MOL   H36829986   1.260   3.623   4.084  0.0952 -0.8474  0.0752
   60MOL   H36929987   1.213   3.632   4.259 -1.4221 -0.3525 -2.2915
   60MOL   H37029988   1.462   4.001   4.507 -0.1608 -2.9091  0.2126
   60MOL   H37129989   1.603   3.905   4.487 -0.2948 -0.3191  0.2070
   60MOL   H37229990   1.799   4.019   4.552  0.7027  1.2848  0.8150
   60MOL   H37329991   1.963   4.206   4.492 -0.4675 -0.9612  1.1114
   60MOL   H37429992   1.898   4.376   4.341 -0.1579  0.8209 -0.2099
   60MOL   H37529993   1.699   4.355   4.194 -0.4236 -0.6071  0.4040
   60MOL   H37629994   1.535   4.182   4.238 -0.3131 -0.1428  1.1531
   60MOL   C37729995   1.454   3.819   4.072  0.0039 -0.2390 -0.4507
   60MOL   C37829996   1.583   3.734   4.053 -0.1680  0.6124 -0.2490
   60MOL   C37929997   1.670   3.714   4.183 -0.0995 -0.5661 -0.4145
   60MOL   C38029998   1.665   3.820   3.954  0.4754 -0.1585  0.0324
   60MOL   O38129999   1.777   3.854   3.985 -0.0256  0.1515 -0.5057
   60MOL   O38230000   1.594   3.872   3.850  0.3456  0.4331 -0.0397
   60MOL   C38330001   1.663   3.947   3.754  0.3671  0.1759  1.2089
   60MOL   C38430002   1.568   4.016   3.655  0.1626  0.1745 -0.6047
   60MOL   C38530003   1.474   3.940   3.582  0.1602 -0.5472  0.1059
   60MOL   C38630004   1.406   3.997   3.473  0.2696 -0.0732 -0.6370
   60MOL   C38730005   1.422   4.127   3.434  0.1271 -0.3572 -0.0739
   60MOL   C38830006   1.515   4.204   3.507 -0.1510  0.6961  0.2630
   60MOL   C38930007   1.590   4.155   3.622 -0.1136  0.2554  0.2461
   60MOL   H39030008   1.487   3.923   4.078  3.4471 -1.3185  0.1700
   60MOL   H39130009   1.403   3.818   3.976  1.0990 -2.9418 -1.0491
   60MOL   H39230010   1.608   3.665   4.259 -1.3607  0.3787 -0.8072
   60MOL   H39330011   1.688   3.814   4.222 -0.2307 -0.3981 -0.7778
   60MOL   H39430012   1.764   3.659   4.180  0.8135  0.9826 -0.5642
   60MOL   H39530013   1.719   4.028   3.800  0.2105  2.1297 -1.8736
   60MOL   H39630014   1.743   3.892   3.705 -0.3285 -0.4137  0.7017
   60MOL   H39730015   1.477   3.836   3.612 -2.0131 -1.0524 -1.3196
   60MOL   H39830016   1.342   3.937   3.410 -0.1967 -1.2535  0.9278
   60MOL   H39930017   1.354   4.156   3.356  0.5872 -1.7327 -1.0262
   60MOL   H40030018   1.524   4.307   3.476 -2.4212  0.9392  0.3903
   60MOL   H40130019   1.658   4.220   3.675  0.0296  1.4096 -1.2968
   60MOL   C40230020   1.559   3.585   4.002 -0.2758 -0.1902 -0.1125
   60MOL   C40330021   1.658   3.525   3.901 -0.1114  0.3265 -0.1530
   60MOL   C40430022   1.807   3.526   3.949 -0.8636  0.6545 -0.4870
   60MOL   C40530023   1.658   3.592   3.763  0.7366  0.7058  0.0830
   60MOL   O40630024   1.757   3.629   3.702  0.2848 -0.0424 -0.3689
   60MOL   O40730025   1.535   3.595   3.710  0.3202 -0.1099 -0.3319
   60MOL   C40830026   1.526   3.588   3.567  0.0017 -0.3251 -0.0049
   60MOL   C40930027   1.381   3.554   3.534  0.5315 -0.5834  0.0305
   60MOL   C41030028   1.352   3.438   3.461  0.3525 -0.2990 -0.1047
   60MOL   C41130029   1.219   3.403   3.420 -0.2811 -0.7642 -0.4719
   60MOL   C41230030   1.114   3.495   3.445  0.6226  0.8958 -0.0026
   60MOL   C41330031   1.138   3.616   3.514  0.6344 -0.3781  0.1315
   60MOL   C41430032   1.272   3.644   3.560  0.3009  0.5472  0.1251
   60MOL   H41530033   1.461   3.575   3.956  0.4111  0.6603 -1.7732
   60MOL   H41630034   1.564   3.515   4.086  1.0288 -1.2175 -1.0250
   60MOL   H41730035   1.848   3.627   3.948 -0.6498  0.5692 -0.3435
   60MOL   H41830036   1.874   3.468   3.886 -1.0802  1.0758 -1.1045
   60MOL   H41930037   1.817   3.489   4.052 -1.4957 -2.4459 -1.4834
   60MOL   H42030038   1.558   3.683   3.524  0.4993 -0.9584 -1.0599
   60MOL   H42130039   1.593   3.509   3.531 -1.8365 -1.0312 -1.9408
   60MOL   H42230040   1.437   3.388   3.416 -0.8704 -1.7665 -0.8368
   60MOL   H42330041   1.213   3.312   3.363  2.5699 -0.8165 -0.7698
   60MOL   H42430042   1.010   3.478   3.419  1.1894 -0.7223 -1.2796
   60MOL   H42530043   1.057   3.683   3.539  0.6816  1.1790 -3.5827
   60MOL   H42630044   1.299   3.735   3.612 -0.3221 -0.2713  1.9461
   60MOL   C42730045   1.618   3.377   3.861 -0.2677  0.3434  0.0540
   60MOL   C42830046   1.565   3.274   3.968  0.1100  0.3155  0.7930
   60MOL   C42930047   1.658   3.270   4.092 -0.1202 -0.2009  0.2553
   60MOL   C43030048   1.581   3.138   3.888  0.9420  0.4172 -0.3312
   60MOL   O43130049   1.648   3.050   3.933  0.1845  0.2511  0.1065
   60MOL   O43230050   1.506   3.141   3.766  0.6986  0.2031  0.0772
   60MOL   C43330051   1.511   3.022   3.687  0.7904 -0.4104  0.5650
   60MOL   C43430052   1.450   3.039   3.547 -0.1941  0.2431 -1.1321
   60MOL   C43530053   1.330   2.974   3.507 -0.7405 -0.3102 -0.2514
   60MOL   C43630054   1.291   2.983   3.376 -0.2985  0.0479 -0.4745
   60MOL   C43730055   1.361   3.059   3.285 -0.1567 -0.4104  0.8126
   60MOL   C43830056   1.473   3.129   3.329 -0.6531  0.0820  0.3388
   60MOL   C43930057   1.506   3.137   3.462  0.5904  0.1621  0.5834
   60MOL   H44030058   1.708   3.349   3.808  0.1770  2.0657 -0.1092
   60MOL   H44130059   1.537   3.377   3.788 -1.3821  1.3301  1.2451
   60MOL   H44230060   1.623   3.199   4.167 -0.2481  1.5803  1.9032
   60MOL   H44330061   1.670   3.365   4.144  3.0035 -0.3782 -0.0481
   60MOL   H44430062   1.758   3.240   4.060 -1.1932 -0.6139 -2.8406
   60MOL   H44530063   1.614   3.005   3.654  0.0711  1.4062 -2.7866
   60MOL   H44630064   1.483   2.932   3.742  0.8141  0.1434  1.4809
   60MOL   H44730065   1.277   2.911   3.576 -0.7983  0.2679  0.2398
   60MOL   H44830066   1.203   2.927   3.350  1.0097 -2.1313 -0.2529
   60MOL   H44930067   1.325   3.055   3.183  0.8051  1.0500  0.3964
   60MOL   H45030068   1.523   3.188   3.253  0.9021 -1.1599  0.3587
   60MOL   H45130069   1.590   3.193   3.499  0.8987  1.1439 -1.5007
   60MOL   C45230070   1.407   3.295   3.998  0.8175 -0.0256  0.4002
   60MOL   C45330071   1.325   3.199   4.090  0.0090  0.4535 -0.6158
   60MOL   C45430072   1.176   3.243   4.089 -0.1450 -0.8494  0.2404
   60MOL   C45530073   1.373   3.215   4.241  0.8419 -0.4878 -0.2598
   60MOL   O45630074   1.384   3.119   4.314  0.2534 -0.3075 -0.5212
   60MOL   O45730075   1.382   3.344   4.296  0.4060  0.1584  0.3171
   60MOL   C45830076   1.366   3.353   4.443 -0.3228 -0.3118  0.2130
   60MOL   C45930077   1.221   3.366   4.489  0.1148  0.2975 -0.3746
   60MOL   C46030078   1.116   3.265   4.465 -0.3841 -0.4439 -0.5001
   60MOL   C46130079   0.985   3.276   4.510  0.2974  0.0257 -0.0015
   60MOL   C46230080   0.947   3.397   4.576 -0.2524  0.0014 -0.0406
   60MOL   C46330081   1.047   3.495   4.603  0.4760 -0.0621  0.2799
   60MOL   C46430082   1.186   3.477   4.570 -0.4856  0.0106  0.3132
   60MOL   H46530083   1.352   3.304   3.904 -0.6039 -1.6207  1.0647
   60MOL   H46630084   1.404   3.391   4.050  1.3254  1.2488 -1.8582
   60MOL   H46730085   1.119   3.184   4.162  0.5740 -3.4281 -1.2091
   60MOL   H46830086   1.128   3.230   3.992  0.7044 -0.7867 -0.1888
   60MOL   H46930087   1.160   3.346   4.120  0.1972 -1.2219  1.7092
   60MOL   H47030088   1.420   3.270   4.489  1.3188 -0.1550 -1.3399
   60MOL   H47130089   1.424   3.441   4.468 -0.1987 -0.1582 -0.5998
   60MOL   H47230090   1.137   3.179   4.404 -0.5715 -1.9868  1.5342
   60MOL   H47330091   0.901   3.209   4.495 -1.2987  1.3283  2.7732
   60MOL   H47430092   0.842   3.410   4.599 -0.2088  3.5713 -1.5044
   60MOL   H47530093   1.016   3.587   4.651 -1.9401 -0.6419 -0.1529
   60MOL   H47630094   1.263   3.551   4.591 -0.8520  0.9193 -1.4881
   60MOL   C47730095   1.332   3.044   4.049 -0.4845  0.0091 -0.5732
   60MOL   C47830096   1.222   2.939   4.113 -0.1980 -0.0762  0.2774
   60MOL   C47930097   1.274   2.793   4.121  0.1432 -0.5446 -0.0813
   60MOL   C48030098   1.092   2.941   4.030 -0.3515  0.3513  0.1354
   60MOL   O48130099   0.981   2.972   4.083 -0.3276  0.0885 -0.2178
   60MOL   O48230100   1.109   2.912   3.901 -0.6205  0.2331  0.5618
   60MOL   C48330101   1.001   2.897   3.820 -0.2691  0.2196 -0.2094
   60MOL   C48430102   1.027   2.801   3.703 -0.3729 -0.3230  0.4932
   60MOL   C48530103   1.125   2.693   3.715  0.0051 -0.0953  0.3132
   60MOL   C48630104   1.147   2.600   3.609 -0.1072  0.1218  0.0232
   60MOL   C48730105   1.087   2.621   3.478  0.1695  0.5408 -0.0626
   60MOL   C48830106   0.993   2.727   3.467 -0.7229 -0.4466  0.1212
   60MOL   C48930107   0.966   2.817   3.576  0.2403 -0.0887 -0.0993
   60MOL   H49030108   1.430   3.013   4.085  1.0562  2.6240 -2.3258
   60MOL   H49130109   1.346   3.042   3.941  0.2420 -0.8024 -0.4683
   60MOL   H49230110   1.360   2.786   4.188  0.0932 -1.2649 -0.0870
   60MOL   H49330111   1.297   2.753   4.023 -0.8965 -1.0340 -0.1376
   60MOL   H49430112   1.196   2.732   4.167 -1.3943  1.8107  0.5331
   60MOL   H49530113   0.913   2.862   3.874  2.0002 -0.8085  2.9812
   60MOL   H49630114   0.991   2.998   3.781 -1.4218 -0.3178 -1.3193
   60MOL   H49730115   1.172   2.683   3.812  1.2830  1.0427 -0.1869
   60MOL   H49830116   1.228   2.529   3.615 -1.3987 -1.5216 -1.7995
   60MOL   H49930117   1.110   2.563   3.390  1.9327 -0.6498  1.1621
   60MOL   H50030118   0.936   2.733   3.375  0.7237 -0.9143 -0.8126
   60MOL   H50130119   0.908   2.904   3.548  0.1216 -1.1484 -3.4586
   60MOL   H50230120   1.193   2.969   4.214 -0.4938 -0.4215  0.2956
   61MOL     C130121   7.364   5.913   1.964  0.2035 -0.7476  0.3918
   61MOL     C230122   7.463   5.935   1.849  0.4129 -0.3174 -0.9681
   61MOL     C330123   7.591   5.858   1.900 -0.1206  0.9325 -0.1881
   61MOL     C430124   7.488   6.090   1.837  0.6247 -0.0030  0.2151
   61MOL     O530125   7.598   6.141   1.847  0.9348 -0.4700 -0.2858
   61MOL     O630126   7.378   6.154   1.812  0.2884  0.2052 -0.3616
   61MOL     C730127   7.374   6.290   1.829  0.8210 -0.1590  0.0440
   61MOL     C830128   7.333   6.367   1.708  0.3447 -0.8074  0.7519
   61MOL     C930129   7.217   6.449   1.716  0.2349  0.2580  0.1454
   61MOL    C1030130   7.178   6.532   1.602  0.5766  0.1415 -0.1552
   61MOL    C1130131   7.256   6.521   1.479 -0.0407  0.7018  0.0169
   61MOL    C1230132   7.376   6.445   1.484  0.6261  0.0776 -0.4291
   61MOL    C1330133   7.412   6.358   1.588 -0.0950  0.0798 -0.4007
   61MOL    H1430134   7.393   5.959   2.058  1.8617  1.5931 -1.2252
   61MOL    H1530135   7.267   5.963   1.961  0.9844  1.0082  2.7891
   61MOL    H1630136   7.679   5.866   1.836  0.1917 -0.3203  0.0585
   61MOL    H1730137   7.571   5.750   1.898  0.5015  0.8176 -0.2292
   61MOL    H1830138   7.632   5.891   1.995 -0.3751 -3.0887  1.4379
   61MOL    H1930139   7.288   6.293   1.895  0.5280 -0.8373 -0.3017
   61MOL    H2030140   7.457   6.336   1.883  1.5403  0.7567 -1.7618
   61MOL    H2130141   7.157   6.447   1.806 -1.4419  2.2936 -0.8614
   61MOL    H2230142   7.085   6.585   1.623  0.0763 -0.7373 -0.1479
   61MOL    H2330143   7.238   6.558   1.380  2.0167 -0.1756 -0.7217
   61MOL    H2430144   7.437   6.458   1.395  0.0446 -0.4263 -0.9071
   61MOL    H2530145   7.501   6.298   1.582 -0.0566  0.1343 -0.3707
   61MOL    H2630146   7.353   5.806   1.978 -1.5297 -0.6469 -0.0266
   61MOL    C2730147   7.385   5.874   1.731 -0.5364  0.1735 -0.9243
   61MOL    C2830148   7.432   5.886   1.579  0.0557  1.0883 -0.2569
   61MOL    C2930149   7.585   5.895   1.580  0.5436 -0.1976  0.0916
   61MOL    C3030150   7.363   6.012   1.524  0.1907 -0.9587 -0.1172
   61MOL    O3130151   7.424   6.081   1.442  0.8698 -0.2763 -0.2044
   61MOL    O3230152   7.236   6.016   1.563  0.1599  0.3779  0.2948
   61MOL    C3330153   7.149   6.104   1.503  0.3429 -0.3727  0.3814
   61MOL    C3430154   7.016   6.102   1.566  0.3610  0.2640 -0.0769
   61MOL    C3530155   6.905   6.128   1.484  0.4143 -0.3108  0.1247
   61MOL    C3630156   6.779   6.140   1.543 -0.0824 -0.2116 -0.0849
   61MOL    C3730157   6.759   6.133   1.682  0.4987 -0.2079 -0.0803
   61MOL    C3830158   6.870   6.099   1.765  0.2537 -0.0516 -0.6102
   61MOL    C3930159   7.000   6.091   1.707  0.1765 -0.0680 -0.1003
   61MOL    H4030160   7.278   5.890   1.743 -0.8011 -0.8953 -1.8568
   61MOL    H4130161   7.387   5.768   1.754  0.9890  1.0303  3.3791
   61MOL    H4230162   7.630   5.905   1.481  0.2556  0.8372  0.0642
   61MOL    H4330163   7.622   5.806   1.631 -1.9178 -1.1081  0.3355
   61MOL    H4430164   7.632   5.978   1.632  0.1897 -0.7879  1.3722
   61MOL    H4530165   7.188   6.206   1.496 -0.3999 -0.2236 -2.3616
   61MOL    H4630166   7.133   6.071   1.400 -1.1990  1.3828  0.0117
   61MOL    H4730167   6.906   6.150   1.378  3.3848  0.0114  0.1908
   61MOL    H4830168   6.698   6.161   1.474  1.4147  1.3129 -1.4243
   61MOL    H4930169   6.664   6.159   1.726 -0.5220 -0.9385 -1.8226
   61MOL    H5030170   6.849   6.092   1.871 -2.0742  0.8727 -0.9980
   61MOL    H5130171   7.080   6.077   1.778  1.3682 -1.6493 -1.7061
   61MOL    C5230172   7.385   5.757   1.497  0.4424  0.4843 -1.0702
   61MOL    C5330173   7.384   5.742   1.339  0.2735  0.3263  0.0286
   61MOL    C5430174   7.510   5.810   1.279 -0.1475 -0.7214 -0.1895
   61MOL    C5530175   7.251   5.811   1.285 -1.0605 -0.2998 -0.3598
   61MOL    O5630176   7.158   5.838   1.359 -0.2318 -0.1520 -0.5453
   61MOL    O5730177   7.265   5.850   1.154  0.0084 -0.8130  0.2849
   61MOL    C5830178   7.173   5.937   1.093  0.4664  0.2632  0.3900
   61MOL    C5930179   7.240   6.063   1.036  1.1637 -0.2391  0.4328
   61MOL    C6030180   7.302   6.161   1.123 -0.1383 -0.4081 -0.2720
   61MOL    C6130181   7.375   6.274   1.077 -0.7874  0.2737 -0.3564
   61MOL    C6230182   7.382   6.294   0.939  0.4961 -0.1057  0.1461
   61MOL    C6330183   7.320   6.200   0.860  0.8313 -0.1359  0.4638
   61MOL    C6430184   7.242   6.095   0.899  0.1941 -0.7423 -0.7046
   61MOL    H6530185   7.296   5.717   1.546  0.3399 -0.2225 -1.8197
   61MOL    H6630186   7.461   5.682   1.523  1.2484  0.6726 -2.8312
   61MOL    H6730187   7.512   5.917   1.297  1.7961 -0.8799  0.6997
   61MOL    H6830188   7.519   5.795   1.171 -0.2766  1.1900 -0.4689
   61MOL    H6930189   7.597   5.772   1.333  0.2937  1.9148  0.9883
   61MOL    H7030190   7.121   5.878   1.017 -1.5121  0.6207  1.4466
   61MOL    H7130191   7.103   5.975   1.168 -1.1909  0.0421 -1.0218
   61MOL    H7230192   7.291   6.151   1.230  2.6220 -0.3383  0.0414
   61MOL    H7330193   7.414   6.351   1.142  1.6547 -0.3994 -0.9396
   61MOL    H7430194   7.433   6.378   0.896 -0.1438  0.1370 -0.1489
   61MOL    H7530195   7.333   6.220   0.754  0.8138 -1.9102  0.1109
   61MOL    H7630196   7.198   6.033   0.822  1.0512 -1.5194 -0.5717
   61MOL    C7730197   7.392   5.590   1.289 -0.2040 -0.1408  0.1443
   61MOL    C7830198   7.312   5.471   1.343 -0.7433 -0.0536 -0.1424
   61MOL    C7930199   7.160   5.508   1.365  0.2020 -0.2700 -0.8879
   61MOL    C8030200   7.364   5.417   1.484 -0.2511 -0.0099  0.5236
   61MOL    O8130201   7.475   5.453   1.527  0.0009  0.5762 -0.3802
   61MOL    O8230202   7.275   5.346   1.549  0.1921 -0.2075 -0.0932
   61MOL    C8330203   7.308   5.293   1.685 -0.4322  0.0856  0.0978
   61MOL    C8430204   7.369   5.149   1.674  0.1133 -0.4038  0.5192
   61MOL    C8530205   7.422   5.090   1.788 -0.9701  0.1682 -0.3880
   61MOL    C8630206   7.452   4.950   1.788  0.1260 -0.2481  0.2528
   61MOL    C8730207   7.425   4.875   1.670  0.7306 -0.2244  0.0350
   61MOL    C8830208   7.384   4.934   1.556 -0.3635  0.9099 -0.2609
   61MOL    C8930209   7.348   5.072   1.556 -0.4888 -0.0698  0.2466
   61MOL    H9030210   7.498   5.567   1.299 -0.0486  0.7396  0.5719
   61MOL    H9130211   7.362   5.601   1.185 -0.3252 -0.9173  0.0914
   61MOL    H9230212   7.149   5.599   1.423  0.9235 -2.1014  2.1978
   61MOL    H9330213   7.096   5.426   1.396 -1.1216  0.0766 -2.5885
   61MOL    H9430214   7.116   5.541   1.270  1.0262 -0.9964 -1.5339
   61MOL    H9530215   7.380   5.357   1.735  1.7402 -0.7017 -1.8973
   61MOL    H9630216   7.222   5.305   1.750  0.0080 -0.7715  0.8450
   61MOL    H9730217   7.425   5.145   1.881  1.1524  0.8054 -0.7925
   61MOL    H9830218   7.476   4.901   1.882 -1.3426  0.3922  0.9850
   61MOL    H9930219   7.438   4.768   1.662  1.7064 -0.1979  1.1764
   61MOL   H10030220   7.385   4.872   1.468  0.5392 -0.1929  0.5020
   61MOL   H10130221   7.305   5.115   1.466  1.3027  0.5100 -0.3450
   61MOL   C10230222   7.323   5.358   1.233 -0.4350  0.8444  0.6829
   61MOL   C10330223   7.452   5.292   1.165 -0.3091  0.0443 -0.0122
   61MOL   C10430224   7.566   5.286   1.265 -0.7214  0.0310 -0.3350
   61MOL   C10530225   7.497   5.386   1.047  0.4541  0.2707  0.4788
   61MOL   O10630226   7.415   5.443   0.981 -0.3057  0.4899  0.8462
   61MOL   O10730227   7.632   5.415   1.041  1.0816  0.4425 -1.0740
   61MOL   C10830228   7.690   5.525   0.973 -0.8607  0.2281 -1.0011
   61MOL   C10930229   7.719   5.492   0.826 -0.0845 -0.1617 -0.8487
   61MOL   C11030230   7.818   5.389   0.814  0.4448 -0.4296 -0.4024
   61MOL   C11130231   7.870   5.352   0.689  0.3492 -0.0056 -0.2540
   61MOL   C11230232   7.833   5.433   0.578 -0.7576 -0.0374 -0.1544
   61MOL   C11330233   7.744   5.539   0.589  0.1020  0.3852 -0.5861
   61MOL   C11430234   7.679   5.567   0.712 -0.2502  0.0253  0.2177
   61MOL   H11530235   7.251   5.391   1.158 -1.5624 -0.9910  0.9059
   61MOL   H11630236   7.269   5.276   1.282 -1.4832  0.5585 -0.9272
   61MOL   H11730237   7.594   5.383   1.306  1.8320 -1.1483  0.8564
   61MOL   H11830238   7.648   5.230   1.219 -0.4496  0.4954 -0.4166
   61MOL   H11930239   7.549   5.231   1.358  2.7405 -2.0441 -0.8279
   61MOL   H12030240   7.633   5.616   0.995  0.6746  0.6887  1.2704
   61MOL   H12130241   7.788   5.544   1.017 -1.5111  2.0508 -0.2943
   61MOL   H12230242   7.855   5.339   0.903 -0.2236  0.9369  0.6545
   61MOL   H12330243   7.943   5.274   0.674  1.2463  0.6107  0.8540
   61MOL   H12430244   7.878   5.416   0.481 -0.7753  2.7289 -0.6704
   61MOL   H12530245   7.732   5.605   0.505  0.8186  1.6339  0.2795
   61MOL   H12630246   7.618   5.656   0.719  0.0052  0.1558  0.8901
   61MOL   C12730247   7.419   5.141   1.140 -1.0601  0.1804 -0.3353
   61MOL   C12830248   7.466   5.055   1.012  0.0729  0.5462 -0.2040
   61MOL   C12930249   7.408   5.127   0.878 -0.1853  0.4879  0.3732
   61MOL   C13030250   7.403   4.909   1.031 -0.0454  0.0282  0.0164
   61MOL   O13130251   7.352   4.844   0.936  0.2252  0.3312 -0.1082
   61MOL   O13230252   7.410   4.866   1.161 -0.7057 -0.2695  0.3660
   61MOL   C13330253   7.345   4.745   1.194 -0.0050  0.1426  0.1499
   61MOL   C13430254   7.197   4.759   1.234  0.0529 -0.2024 -0.4508
   61MOL   C13530255   7.112   4.643   1.233 -0.3538 -0.4538  0.0037
   61MOL   C13630256   6.981   4.653   1.295 -0.2362  0.0140  1.1957
   61MOL   C13730257   6.930   4.779   1.330  0.0171  0.1358 -0.2129
   61MOL   C13830258   7.012   4.895   1.333 -0.4500 -0.1126  0.6987
   61MOL   C13930259   7.144   4.882   1.276  0.2724  0.9872 -0.5407
   61MOL   H14030260   7.312   5.125   1.140 -1.3215  1.5235 -3.8099
   61MOL   H14130261   7.456   5.083   1.224 -0.7874 -0.0521 -0.6151
   61MOL   H14230262   7.409   5.054   0.797  2.8867 -0.5905  1.3254
   61MOL   H14330263   7.483   5.204   0.860  1.3902 -1.1170 -0.0496
   61MOL   H14430264   7.308   5.172   0.879 -1.0708 -1.3956 -0.8325
   61MOL   H14530265   7.377   4.662   1.132  1.5171  0.0388  1.0425
   61MOL   H14630266   7.395   4.720   1.288 -1.2790 -0.6031  0.6533
   61MOL   H14730267   7.155   4.551   1.196 -1.2963 -0.5956 -0.7619
   61MOL   H14830268   6.919   4.565   1.305 -6.0090  3.6102 -0.3554
   61MOL   H14930269   6.833   4.800   1.372 -0.5743  2.1418 -2.4715
   61MOL   H15030270   6.966   4.986   1.366  0.7524  1.2422 -1.2648
   61MOL   H15130271   7.215   4.963   1.271  0.3932  0.8051 -2.1767
   61MOL   C15230272   7.623   5.045   1.009 -0.6396 -0.6920 -0.2388
   61MOL   C15330273   7.716   4.958   0.914 -0.1427  0.5767 -0.2717
   61MOL   C15430274   7.664   4.979   0.768  0.0942 -0.0924  0.8495
   61MOL   C15530275   7.717   4.805   0.946  0.4091  0.7360 -0.6193
   61MOL   O15630276   7.658   4.754   1.043 -0.0200 -0.4651  0.4886
   61MOL   O15730277   7.782   4.728   0.856 -0.5585 -0.4759  0.1358
   61MOL   C15830278   7.803   4.586   0.878  0.0390 -0.1007  0.3123
   61MOL   C15930279   7.711   4.496   0.800 -0.5799 -0.5736  0.0088
   61MOL   C16030280   7.590   4.552   0.755 -0.0294  0.3390 -0.6075
   61MOL   C16130281   7.502   4.468   0.685 -0.2906 -0.2160 -0.4447
   61MOL   C16230282   7.542   4.338   0.650  0.4889  0.4129 -0.0805
   61MOL   C16330283   7.663   4.283   0.686  0.8733  0.3149 -0.4965
   61MOL   C16430284   7.746   4.365   0.762  0.2480 -0.2722 -0.0448
   61MOL   H16530285   7.660   5.023   1.109 -0.8048  1.2985  0.2981
   61MOL   H16630286   7.655   5.149   1.002 -3.5098  0.4453  2.2946
   61MOL   H16730287   7.671   5.087   0.754 -1.0504 -0.1447 -0.2104
   61MOL   H16830288   7.566   4.937   0.749  0.9184 -2.7048  2.0824
   61MOL   H16930289   7.724   4.926   0.693 -0.7877  0.2257 -0.0880
   61MOL   H17030290   7.898   4.557   0.833  0.7736 -0.4879  2.0685
   61MOL   H17130291   7.811   4.556   0.982 -2.0410 -2.7071 -0.2215
   61MOL   H17230292   7.556   4.652   0.777 -1.1545 -0.4724  1.4254
   61MOL   H17330293   7.405   4.504   0.656  0.0897  1.5094  0.3612
   61MOL   H17430294   7.482   4.274   0.589 -0.0954  0.0088  0.9024
   61MOL   H17530295   7.685   4.180   0.662  1.7682  0.3613  0.1382
   61MOL   H17630296   7.843   4.329   0.793  0.6691  2.6888  2.3012
   61MOL   C17730297   7.870   5.012   0.922  0.2400 -0.4206 -0.0062
   61MOL   C17830298   7.969   5.011   1.044  0.3058  0.6855 -0.1272
   61MOL   C17930299   7.963   4.874   1.122 -0.5372  0.8614  0.4329
   61MOL   C18030300   7.927   5.116   1.144  0.1873  0.5886 -0.0484
   61MOL   O18130301   7.879   5.218   1.100  0.4011 -0.2638  0.4833
   61MOL   O18230302   7.945   5.095   1.278  0.4780 -0.5008  0.2972
   61MOL   C18330303   7.906   5.194   1.368 -0.3829 -0.0125 -0.0323
   61MOL   C18430304   0.016   5.242   1.446 -0.0319  0.1878 -0.1390
   61MOL   C18530305   0.118   5.152   1.498  1.0503 -0.1906  0.9535
   61MOL   C18630306   0.228   5.196   1.570  0.3807 -0.5971 -0.3385
   61MOL   C18730307   0.235   5.335   1.598  0.5214 -0.2561 -0.2282
   61MOL   C18830308   0.135   5.422   1.549 -0.3745  0.2840 -0.3010
   61MOL   C18930309   0.031   5.377   1.472  0.2676 -0.1100  0.2933
   61MOL   H19030310   7.863   5.109   0.874  1.3237  0.3647  1.3617
   61MOL   H19130311   7.917   4.948   0.848  0.2351  1.0786 -1.3177
   61MOL   H19230312   7.867   4.875   1.172  0.3870  0.9658  2.2615
   61MOL   H19330313   0.024   4.865   1.206 -1.7701 -0.0122  1.3474
   61MOL   H19430314   7.986   4.792   1.053  2.1585  0.8094  1.3348
   61MOL   H19530315   7.867   5.284   1.321 -1.4066 -0.7839 -0.6481
   61MOL   H19630316   7.836   5.151   1.440  1.0509 -0.6909  0.9951
   61MOL   H19730317   0.108   5.044   1.496  2.2478 -0.3068 -0.3208
   61MOL   H19830318   0.298   5.126   1.613  0.0682 -0.6861  0.0279
   61MOL   H19930319   0.322   5.372   1.650  0.7508 -0.3801 -0.5193
   61MOL   H20030320   0.135   5.530   1.557 -0.6689  0.2490  0.1495
   61MOL   H20130321   7.964   5.450   1.443 -0.5505 -0.4506  1.4819
   61MOL   C20230322   0.108   5.031   0.982  0.2889  0.0890  0.1077
   61MOL   C20330323   0.228   5.112   1.040  0.2052  0.3085 -1.2156
   61MOL   C20430324   0.267   5.052   1.179 -0.5131  0.6750 -0.3955
   61MOL   C20530325   0.200   5.267   1.054  0.9326  0.4593  0.5112
   61MOL   O20630326   0.226   5.330   1.157 -0.2167  0.0614  0.2285
   61MOL   O20730327   0.156   5.324   0.943 -0.4189 -0.1038  0.1055
   61MOL   C20830328   0.168   5.470   0.938  0.5064  0.3180 -0.8758
   61MOL   C20930329   0.193   5.525   0.799  0.0429  0.2496  0.0903
   61MOL   C21030330   0.318   5.491   0.742  0.4639  0.1007 -0.1880
   61MOL   C21130331   0.356   5.545   0.617  0.2326  0.1533  0.0992
   61MOL   C21230332   0.257   5.603   0.530  0.0503  0.1063  0.6785
   61MOL   C21330333   0.135   5.634   0.591 -0.6273 -0.3429 -0.0962
   61MOL   C21430334   0.104   5.602   0.730  0.8651 -0.5563 -0.6863
   61MOL   H21530335   0.102   5.073   0.882 -1.7755 -0.8810 -0.1840
   61MOL   H21630336   0.147   4.929   0.975  0.6696  0.4022 -2.8594
   61MOL   H21730337   0.274   4.943   1.183  2.6383  0.8451 -0.2199
   61MOL   H21830338   0.199   5.083   1.258  0.3667  0.7608  0.3322
   61MOL   H21930339   0.360   5.091   1.219  0.3835 -0.9789 -0.8328
   61MOL   H22030340   0.084   5.519   0.989  2.1000  0.1712  2.0087
   61MOL   H22130341   0.262   5.489   0.989  1.2674  0.6215 -2.3860
   61MOL   H22230342   0.391   5.419   0.776  0.2546 -0.2869 -0.5522
   61MOL   H22330343   0.454   5.521   0.578  0.5282 -0.3870  1.1785
   61MOL   H22430344   0.272   5.629   0.426  1.5077  0.2241  0.9056
   61MOL   H22530345   0.067   5.686   0.525 -1.4744 -2.2589 -0.7697
   61MOL   H22630346   0.016   5.644   0.777  0.3690  0.4030 -2.4261
   61MOL   C22730347   0.341   5.091   0.938 -0.4986 -1.3743 -0.2613
   61MOL   C22830348   0.495   5.104   0.972  0.4782 -0.0642 -0.0871
   61MOL   C22930349   0.545   4.969   1.026 -0.1299  0.2237  0.2911
   61MOL   C23030350   0.528   5.219   1.072 -0.4749 -0.6705  0.1817
   61MOL   O23130351   0.583   5.203   1.183 -0.5526  0.4346 -0.7143
   61MOL   O23230352   0.497   5.342   1.024  0.1312 -0.2377 -0.0122
   61MOL   C23330353   0.542   5.455   1.099 -0.2627 -0.1244  0.1571
   61MOL   C23430354   0.551   5.581   1.022  0.0095  0.4182 -0.0933
   61MOL   C23530355   0.501   5.702   1.081 -0.8376  0.5261 -0.0455
   61MOL   C23630356   0.535   5.825   1.026  0.1039  0.5213  0.3011
   61MOL   C23730357   0.622   5.840   0.917 -0.7771  0.0322  0.3628
   61MOL   C23830358   0.676   5.719   0.858  0.1601 -0.9800  0.1669
   61MOL   C23930359   0.640   5.594   0.917 -0.3243  0.1435  0.3286
   61MOL   H24030360   0.331   5.180   0.875  0.5740 -0.1689  1.2341
   61MOL   H24130361   0.332   4.996   0.885  1.3637 -1.9793  0.4558
   61MOL   H24230362   0.518   4.885   0.962 -3.1316  0.0337  1.7456
   61MOL   H24330363   0.496   4.946   1.120 -0.3967 -0.3785  0.0067
   61MOL   H24430364   0.651   4.964   1.051 -0.1399  0.6056  0.4184
   61MOL   H24530365   0.466   5.455   1.178 -2.2904 -1.1796 -1.7519
   61MOL   H24630366   0.643   5.447   1.139 -0.2824 -1.4010 -0.0440
   61MOL   H24730367   0.437   5.696   1.168  0.1641 -0.2894  0.6501
   61MOL   H24830368   0.482   5.906   1.075 -0.4708  1.3149 -1.5706
   61MOL   H24930369   0.634   5.938   0.874  1.2295 -0.7659 -0.9734
   61MOL   H25030370   0.745   5.726   0.775 -1.0931  0.8334 -0.7713
   61MOL   H25130371   0.692   5.510   0.874 -0.5030  0.1075  0.1839
   61MOL   C25230372   0.562   5.125   0.826 -0.5096  0.2566  0.1962
   61MOL   C25330373   0.718   5.100   0.788 -0.1006  0.2360 -0.2567
   61MOL   C25430374   0.721   5.141   0.634 -0.1793  0.1071  0.3165
   61MOL   C25530375   0.755   4.950   0.811 -0.2522 -0.7304 -0.4075
   61MOL   O25630376   0.832   4.910   0.898  0.4900  0.3453 -0.3692
   61MOL   O25730377   0.689   4.864   0.731 -0.2177  0.0014 -0.0385
   61MOL   C25830378   0.681   4.723   0.764 -0.5267  1.0318  0.0320
   61MOL   C25930379   0.751   4.630   0.665 -0.8857 -1.1452 -0.2727
   61MOL   C26030380   0.815   4.519   0.714 -0.0765  0.4547  0.0536
   61MOL   C26130381   0.882   4.431   0.635  0.4688 -0.2051 -0.0165
   61MOL   C26230382   0.896   4.446   0.500  0.5256  0.1950  0.1957
   61MOL   C26330383   0.823   4.557   0.445 -0.2372  0.5222  0.5837
   61MOL   C26430384   0.752   4.649   0.526  0.4962 -0.5170 -0.2166
   61MOL   H26530385   0.532   5.228   0.805  1.8650  0.9840  0.1768
   61MOL   H26630386   0.504   5.065   0.756  0.5322 -0.5466 -0.0037
   61MOL   H26730387   0.814   5.118   0.581 -0.3769  3.3355 -1.5072
   61MOL   H26830388   0.689   5.244   0.621 -0.4614  0.1269  1.1128
   61MOL   H26930389   0.644   5.090   0.576 -2.0641  2.9223  0.3062
   61MOL   H27030390   0.717   4.714   0.866 -0.6949 -1.4446 -0.0990
   61MOL   H27130391   0.580   4.683   0.761  0.0016 -0.4194  0.8780
   61MOL   H27230392   0.826   4.500   0.820  0.9756  0.9358  0.0339
   61MOL   H27330393   0.917   4.352   0.701 -0.0896 -1.3129 -1.0259
   61MOL   H27430394   0.957   4.378   0.443  3.2451  2.5925  0.0814
   61MOL   H27530395   0.834   4.575   0.339 -0.5391 -0.6349  0.3508
   61MOL   H27630396   0.691   4.726   0.482 -0.4748 -0.8254  0.5676
   61MOL   C27730397   0.797   5.204   0.885 -0.9729 -0.0416  0.2347
   61MOL   C27830398   0.944   5.251   0.867  0.4514  0.1533  0.4691
   61MOL   C27930399   0.955   5.387   0.941 -0.2477 -0.2282  0.6592
   61MOL   C28030400   0.985   5.285   0.720 -0.2935  0.2316  0.0122
   61MOL   O28130401   1.053   5.210   0.650 -0.0342  0.2596  0.5911
   61MOL   O28230402   0.917   5.392   0.674  0.3230 -0.0274  0.1155
   61MOL   C28330403   0.943   5.461   0.556  0.1583 -0.1871  0.0003
   61MOL   C28430404   0.844   5.424   0.446  0.1183 -0.2262  0.4101
   61MOL   C28530405   0.717   5.481   0.453 -0.9910  0.8020 -0.2701
   61MOL   C28630406   0.623   5.451   0.356 -0.1853 -0.6773 -0.5500
   61MOL   C28730407   0.645   5.347   0.264 -0.2387  0.0652 -0.1981
   61MOL   C28830408   0.775   5.290   0.263  0.6707  0.3480  0.0165
   61MOL   C28930409   0.876   5.323   0.352 -0.1114 -0.6335 -0.5595
   61MOL   H29030410   0.780   5.153   0.980  1.2184 -1.6649 -0.2073
   61MOL   H29130411   0.741   5.297   0.873 -0.4347  0.5886  2.3046
   61MOL   H29230412   1.057   5.421   0.958 -1.1041  2.0722  1.2906
   61MOL   H29330413   0.914   5.376   1.041 -2.9519  0.3104 -0.3550
   61MOL   H29430414   0.900   5.468   0.894 -1.4490 -1.1046  0.5392
   61MOL   H29530415   0.943   5.567   0.583 -3.5178  0.1480 -1.0616
   61MOL   H29630416   1.046   5.456   0.521 -0.9459 -0.0686 -3.3724
   61MOL   H29730417   0.693   5.554   0.529 -0.0129  0.2649  0.5715
   61MOL   H29830418   0.526   5.498   0.351  1.8881  3.9858  0.8750
   61MOL   H29930419   0.575   5.300   0.196 -0.0901 -2.6538  1.4382
   61MOL   H30030420   0.796   5.203   0.202 -2.3119 -0.5746  0.2234
   61MOL   H30130421   0.973   5.277   0.351 -0.1241 -0.7303  1.3410
   61MOL   C30230422   1.040   5.135   0.931  0.1611 -0.2099 -0.1725
   61MOL   C30330423   1.185   5.154   0.986  0.3061 -0.1617  0.6708
   61MOL   C30430424   1.249   5.010   1.000  0.3317  0.3942 -0.2369
   61MOL   C30530425   1.183   5.232   1.115 -0.8052 -0.2552  0.0033
   61MOL   O30630426   1.232   5.341   1.135  0.5593  0.2176  0.1086
   61MOL   O30730427   1.095   5.176   1.199 -0.2447 -0.3760 -0.0098
   61MOL   C30830428   1.082   5.247   1.319  0.6166 -0.0788 -0.0460
   61MOL   C30930429   0.985   5.183   1.418 -0.4955  1.4367 -0.2482
   61MOL   C31030430   0.871   5.102   1.388  0.2398  0.0577 -0.5404
   61MOL   C31130431   0.776   5.063   1.486 -0.2911 -0.4519  0.2025
   61MOL   C31230432   0.814   5.077   1.618  0.8202 -0.4658  0.2239
   61MOL   C31330433   0.924   5.153   1.652  0.5455 -0.4042 -1.0573
   61MOL   C31430434   1.003   5.209   1.552 -0.0301 -0.0750  0.0102
   61MOL   H31530435   1.052   5.069   0.846 -1.2532 -1.0507  0.2594
   61MOL   H31630436   0.972   5.076   0.993  0.6302 -1.3362 -0.7412
   61MOL   H31730437   1.181   4.945   1.055  0.6048  0.3527  0.0485
   61MOL   H31830438   1.345   5.022   1.050 -0.3334  1.0914  0.8810
   61MOL   H31930439   1.262   4.971   0.899  2.3722 -0.1003  0.2063
   61MOL   H32030440   1.177   5.227   1.369 -0.1186  0.5727  1.6254
   61MOL   H32130441   1.057   5.352   1.311  1.4326  0.0980 -0.3046
   61MOL   H32230442   0.850   5.080   1.285 -0.1712 -1.0930 -0.2139
   61MOL   H32330443   0.682   5.016   1.464 -0.3376  1.0482 -2.9638
   61MOL   H32430444   0.742   5.034   1.685 -1.9201  1.2173 -1.5135
   61MOL   H32530445   0.952   5.167   1.755 -0.7752 -3.5090 -0.2235
   61MOL   H32630446   1.078   5.284   1.576  1.3542 -1.2455 -0.6190
   61MOL   C32730447   1.276   5.222   0.870 -0.0804 -0.6253 -0.0989
   61MOL   C32830448   1.436   5.246   0.871 -0.1528 -0.1234 -0.3605
   61MOL   C32930449   1.501   5.266   1.009 -0.0135  0.2925  0.5312
   61MOL   C33030450   1.448   5.377   0.789 -0.7460 -0.6113 -0.5813
   61MOL   O33130451   1.468   5.382   0.669  0.0733  0.6646 -0.5761
   61MOL   O33230452   1.417   5.481   0.869 -0.0950  0.0037 -0.1378
   61MOL   C33330453   1.417   5.616   0.831  0.4763 -1.1386  0.0844
   61MOL   C33430454   1.279   5.672   0.830  0.4464  0.5845 -0.6885
   61MOL   C33530455   1.215   5.685   0.708 -0.0511 -0.2046 -0.1984
   61MOL   C33630456   1.090   5.749   0.697 -0.1353 -0.6564  0.6442
   61MOL   C33730457   1.016   5.784   0.809 -0.3921  0.7116  0.8414
   61MOL   C33830458   1.069   5.755   0.937  0.3763  0.9627  0.3833
   61MOL   C33930459   1.201   5.701   0.948  0.2380 -0.6443  0.4595
   61MOL   H34030460   1.223   5.316   0.854 -1.6158 -1.3153  0.7597
   61MOL   H34130461   1.245   5.177   0.776 -0.3584  1.9829 -1.3022
   61MOL   H34230462   1.610   5.269   1.003  0.0332 -1.8022 -0.2926
   61MOL   H34330463   1.485   5.181   1.076  0.6756  0.7842  1.3326
   61MOL   H34430464   1.473   5.358   1.059  1.0332  0.3747  0.9993
   61MOL   H34530465   1.483   5.660   0.906 -1.7535 -2.0882  2.6870
   61MOL   H34630466   1.463   5.629   0.733 -1.3076 -0.7206 -0.7060
   61MOL   H34730467   1.257   5.653   0.614  0.0694  0.7980 -0.4969
   61MOL   H34830468   1.045   5.766   0.600  0.8497  0.6733  0.4191
   61MOL   H34930469   0.915   5.821   0.805 -0.0049  1.8682  1.4721
   61MOL   H35030470   1.012   5.766   1.028  0.8182  2.3705  0.4976
   61MOL   H35130471   1.242   5.681   1.046  0.1478  1.3275  0.9093
   61MOL   C35230472   1.505   5.129   0.788  0.5708 -0.3897  0.3046
   61MOL   C35330473   1.663   5.094   0.778 -0.1994 -0.1525 -0.0503
   61MOL   C35430474   1.705   5.025   0.916 -0.0291  0.2884 -0.7026
   61MOL   C35530475   1.751   5.220   0.765  0.5851  0.2380  0.3148
   61MOL   O35630476   1.821   5.253   0.861  0.5849  0.6421  0.1990
   61MOL   O35730477   1.753   5.272   0.645 -0.1737  0.0161  0.0566
   61MOL   C35830478   1.830   5.392   0.614  0.0010  0.1436 -0.0286
   61MOL   C35930479   1.743   5.512   0.588  0.4989 -0.2547 -0.5508
   61MOL   C36030480   1.664   5.530   0.470  0.6276 -0.3005  0.4270
   61MOL   C36130481   1.587   5.648   0.446  0.3319  0.7096 -0.0734
   61MOL   C36230482   1.608   5.755   0.535  0.0573 -0.3118 -0.2411
   61MOL   C36330483   1.689   5.745   0.649 -0.7365  0.2084  0.0540
   61MOL   C36430484   1.753   5.623   0.679 -0.4135 -0.1831 -0.1725
   61MOL   H36530485   1.470   5.144   0.686  0.0838 -1.9383  0.2351
   61MOL   H36630486   1.455   5.039   0.824  0.4113  0.0594  1.2124
   61MOL   H36730487   1.810   4.996   0.915  0.1968  1.1017 -0.6531
   61MOL   H36830488   1.646   4.938   0.945 -1.8429  1.9368  0.6325
   61MOL   H36930489   1.696   5.091   1.002  0.2737 -0.1332 -0.3468
   61MOL   H37030490   1.915   5.411   0.680 -0.8911  0.0763  1.1770
   61MOL   H37130491   1.876   5.372   0.518 -0.6255  3.6573 -1.1253
   61MOL   H37230492   1.668   5.451   0.396 -1.1180  1.9512 -2.1835
   61MOL   H37330493   1.513   5.652   0.367  0.7393 -1.1738 -0.5841
   61MOL   H37430494   1.554   5.844   0.505  2.4889  1.6917  1.1971
   61MOL   H37530495   1.702   5.831   0.713 -0.6458  0.8593 -0.8108
   61MOL   H37630496   1.826   5.628   0.758  1.6636 -1.5938 -1.9573
   61MOL   C37730497   1.699   5.004   0.657  0.8465 -0.2208  0.4714
   61MOL   C37830498   1.673   4.843   0.655 -0.3148 -0.6796 -0.1759
   61MOL   C37930499   1.787   4.790   0.749  0.4949  0.3955 -0.0082
   61MOL   C38030500   1.694   4.805   0.508  0.0379  0.2480 -0.0067
   61MOL   O38130501   1.805   4.757   0.477  0.2261  0.3125  0.2728
   61MOL   O38230502   1.590   4.846   0.421  0.5448  0.2804 -0.2946
   61MOL   C38330503   1.612   4.823   0.281 -0.0013  0.0446  0.7018
   61MOL   C38430504   1.670   4.945   0.214 -0.5338  0.0521  0.9017
   61MOL   C38530505   1.755   4.930   0.104 -0.2252 -0.9331  0.5998
   61MOL   C38630506   1.806   5.043   0.044  0.3894 -0.3077  0.3100
   61MOL   C38730507   1.783   5.167   0.092  0.7305 -0.1595  0.1191
   61MOL   C38830508   1.706   5.188   0.206 -0.8986 -0.2338 -0.4963
   61MOL   C38930509   1.639   5.080   0.259  0.6183  0.4862 -0.6610
   61MOL   H39030510   1.802   5.015   0.624  0.8236 -0.3600  0.3560
   61MOL   H39130511   1.649   5.041   0.568 -1.9213 -0.8949  1.6732
   61MOL   H39230512   1.775   4.781   0.857  3.6717 -1.6576  0.2323
   61MOL   H39330513   1.880   4.846   0.733  1.6803 -0.9460  1.9463
   61MOL   H39430514   1.821   4.690   0.723  1.8420  0.8914 -0.2136
   61MOL   H39530515   1.675   4.738   0.255 -0.8887 -0.2919 -0.3840
   61MOL   H39630516   1.516   4.806   0.232  1.5882 -1.1375 -2.1721
   61MOL   H39730517   1.771   4.832   0.064  2.0320 -0.6621  0.7935
   61MOL   H39830518   1.872   5.041   7.966  1.2202 -1.3880  0.9711
   61MOL   H39930519   1.825   5.255   0.043 -1.4341  0.2838 -0.9771
   61MOL   H40030520   1.694   5.288   0.245 -0.0226 -0.1187 -0.4923
   61MOL   H40130521   1.564   5.089   0.336  0.8329  0.0614 -0.4003
   61MOL   C40230522   1.529   4.797   0.700 -1.1153 -0.1849 -0.3109
   61MOL   C40330523   1.479   4.645   0.708 -0.2759  1.1177  0.3068
   61MOL   C40430524   1.592   4.549   0.740  0.0987 -0.4061  0.3545
   61MOL   C40530525   1.422   4.611   0.571 -0.2298 -0.2991 -0.9456
   61MOL   O40630526   1.491   4.541   0.497 -0.3437  0.6720  0.8910
   61MOL   O40730527   1.296   4.662   0.549  0.0491  0.0742 -0.6726
   61MOL   C40830528   1.221   4.623   0.425  0.0690  0.2021 -0.0575
   61MOL   C40930529   1.149   4.745   0.367  0.1094  0.3902 -0.0530
   61MOL   C41030530   1.054   4.821   0.441  0.4858 -0.4402  0.8098
   61MOL   C41130531   0.975   4.917   0.375  0.0573  0.0056 -0.5966
   61MOL   C41230532   0.991   4.939   0.237  0.1185  0.1527  0.7293
   61MOL   C41330533   1.091   4.873   0.168  0.2306  0.3334 -0.0995
   61MOL   C41430534   1.173   4.779   0.233  0.0951 -0.7581 -1.0630
   61MOL   H41530535   1.456   4.864   0.655  0.5211  0.9715 -1.2679
   61MOL   H41630536   1.526   4.830   0.804  1.4031  1.2943 -0.6766
   61MOL   H41730537   1.566   4.445   0.762 -1.2928 -0.6212 -2.1579
   61MOL   H41830538   1.652   4.578   0.827 -0.7222  3.1820 -0.2057
   61MOL   H41930539   1.664   4.538   0.659 -0.5455  0.6799 -0.3845
   61MOL   H42030540   1.280   4.564   0.355  0.5905  0.7657 -0.1007
   61MOL   H42130541   1.142   4.553   0.453  0.5125  0.0443  0.8204
   61MOL   H42230542   1.035   4.804   0.546 -0.1691 -0.5456  0.6755
   61MOL   H42330543   0.908   4.974   0.438  1.2513 -1.3318  1.9594
   61MOL   H42430544   0.921   5.001   0.184  0.0840  1.3522  2.1513
   61MOL   H42530545   1.095   4.883   0.061  0.5084  0.8131 -0.0499
   61MOL   H42630546   1.241   4.716   0.177 -0.7953 -0.5157 -2.4617
   61MOL   C42730547   1.368   4.635   0.818  0.6420  0.6590  0.6829
   61MOL   C42830548   1.299   4.492   0.869  0.0468 -0.5691 -0.2667
   61MOL   C42930549   1.286   4.384   0.758  1.1622  0.2541  0.5077
   61MOL   C43030550   1.155   4.508   0.927 -0.0623 -0.1806  0.4955
   61MOL   O43130551   1.067   4.428   0.903 -0.3800  0.3987  0.2457
   61MOL   O43230552   1.144   4.612   1.005 -0.0216 -0.2785 -0.9041
   61MOL   C43330553   1.020   4.643   1.074  0.5466  0.1908  0.3883
   61MOL   C43430554   1.025   4.658   1.222  0.2846  0.5916  0.0983
   61MOL   C43530555   1.039   4.548   1.307 -0.7568  0.1601 -0.0199
   61MOL   C43630556   1.036   4.562   1.443  0.1762 -0.2511 -0.7409
   61MOL   C43730557   1.037   4.688   1.502 -0.4898  0.3518 -1.0590
   61MOL   C43830558   1.041   4.801   1.421 -0.6010  0.3130  0.1040
   61MOL   C43930559   1.022   4.789   1.280 -0.3267  0.0400  0.2462
   61MOL   H44030560   1.284   4.696   0.783 -1.3608 -1.2758  1.9790
   61MOL   H44130561   1.407   4.676   0.911  0.1463 -0.7705  1.5347
   61MOL   H44230562   1.210   4.418   0.688 -0.4820 -0.3857  1.9426
   61MOL   H44330563   1.240   4.289   0.785  1.0234  0.5152  1.1814
   61MOL   H44430564   1.374   4.369   0.695  0.2638  2.2898 -1.3032
   61MOL   H44530565   0.991   4.742   1.037  2.2879  0.5374 -0.1086
   61MOL   H44630566   0.941   4.573   1.047  0.4249  0.6458 -0.4494
   61MOL   H44730567   1.036   4.448   1.266  1.1249 -0.5877  1.5998
   61MOL   H44830568   1.054   4.480   1.511  2.0679  1.7029  1.2141
   61MOL   H44930569   1.052   4.701   1.609 -1.6940  0.4576 -0.8964
   61MOL   H45030570   1.043   4.898   1.467 -1.0692 -1.5719  4.2889
   61MOL   H45130571   1.003   4.876   1.219 -1.0919  0.4638  1.0691
   61MOL   C45230572   1.391   4.444   0.990  0.1699 -0.2095 -0.7367
   61MOL   C45330573   1.399   4.302   1.057  1.0793 -0.2578  0.0428
   61MOL   C45430574   1.258   4.245   1.094 -0.1001  0.0762 -0.3743
   61MOL   C45530575   1.482   4.319   1.187 -0.9018 -0.5257  0.0043
   61MOL   O45630576   1.433   4.330   1.302  0.1058 -0.2032 -0.0463
   61MOL   O45730577   1.608   4.324   1.161  0.3707  0.2590  0.6281
   61MOL   C45830578   1.703   4.364   1.255  0.2774  0.5313 -0.5129
   61MOL   C45930579   1.820   4.434   1.201 -0.0459  0.0148  0.2912
   61MOL   C46030580   1.839   4.437   1.059 -0.0725  0.2017  0.1320
   61MOL   C46130581   1.953   4.506   1.010  0.6377  0.0072 -0.4101
   61MOL   C46230582   2.049   4.563   1.093 -0.1911  0.1072  0.2184
   61MOL   C46330583   2.024   4.554   1.235  0.2725  0.1026  0.3205
   61MOL   C46430584   1.914   4.491   1.289 -0.7604 -0.4395 -0.1988
   61MOL   H46530585   1.387   4.515   1.072  4.4675 -0.1057 -0.5291
   61MOL   H46630586   1.495   4.471   0.974  0.1300  0.9762  0.8552
   61MOL   H46730587   1.207   4.314   1.161 -1.3396 -0.6324 -0.5934
   61MOL   H46830588   1.277   4.151   1.145  2.5777  0.2071 -1.0600
   61MOL   H46930589   1.203   4.221   1.004 -0.3472 -1.3971  0.1588
   61MOL   H47030590   1.668   4.420   1.341 -0.8891 -2.1776  0.8605
   61MOL   H47130591   1.742   4.272   1.299 -0.3083 -0.2508 -1.5994
   61MOL   H47230592   1.782   4.383   0.985 -0.0227 -1.3139  1.1722
   61MOL   H47330593   1.964   4.492   0.903  0.4154  1.2062 -0.5943
   61MOL   H47430594   2.137   4.621   1.066  0.0286  0.2328  1.1953
   61MOL   H47530595   2.112   4.588   1.288 -0.1204 -0.7069  1.4964
   61MOL   H47630596   1.909   4.493   1.397 -2.6375 -1.5065 -0.2511
   61MOL   C47730597   1.475   4.201   0.961 -0.7334  0.0705  0.0501
   61MOL   C47830598   1.492   4.051   1.004 -0.8424 -0.5879 -0.2869
   61MOL   C47930599   1.623   3.989   0.948 -0.4144  0.6013  0.6673
   61MOL   C48030600   1.376   3.964   0.971 -0.2768 -0.1349 -0.1597
   61MOL   O48130601   1.286   4.004   0.903 -0.7099 -0.2030  1.1480
   61MOL   O48230602   1.391   3.843   1.022 -0.0773  0.0544 -0.3008
   61MOL   C48330603   1.313   3.739   0.980  0.6862  0.3564  0.0465
   61MOL   C48430604   1.184   3.727   1.069  0.2518 -0.6420 -0.2111
   61MOL   C48530605   1.059   3.724   1.014 -0.4793  0.4126  0.6283
   61MOL   C48630606   0.939   3.714   1.090 -0.9016  0.1374  0.6164
   61MOL   C48730607   0.957   3.737   1.231  0.0517  0.3975  0.5309
   61MOL   C48830608   1.085   3.740   1.292 -0.4058  0.2933  0.3219
   61MOL   C48930609   1.198   3.720   1.212 -0.0726 -0.6774 -0.0821
   61MOL   H49030610   1.573   4.244   0.942  0.3191 -1.6596  1.4224
   61MOL   H49130611   1.425   4.209   0.864  1.0048  0.7797 -0.8015
   61MOL   H49230612   1.610   3.962   0.843 -2.1372  0.7329  0.8234
   61MOL   H49330613   1.657   3.907   1.012  1.0151  1.2216  0.7161
   61MOL   H49430614   1.700   4.065   0.949  0.8261 -0.6407  1.0177
   61MOL   H49530615   1.279   3.750   0.877 -0.2395  0.9159  0.4090
   61MOL   H49630616   1.367   3.645   0.991  1.6015  0.7615 -0.8225
   61MOL   H49730617   1.044   3.731   0.907  0.1679 -0.4429  0.4703
   61MOL   H49830618   0.839   3.701   1.052 -1.1469  2.3965  0.3858
   61MOL   H49930619   0.868   3.739   1.292  1.3550  1.9857  2.4434
   61MOL   H50030620   1.085   3.737   1.400 -1.5064 -0.8793  0.3029
   61MOL   H50130621   1.292   3.718   1.266 -1.0494 -2.7693  1.6016
   61MOL   H50230622   1.507   4.039   1.111 -2.6154  2.2643  0.3356
   62MOL     C130623   1.490   7.443   3.119  0.6373 -0.1486  0.9145
   62MOL     C230624   1.549   7.295   3.093  0.4059  0.5518 -0.2264
   62MOL     C330625   1.527   7.259   2.940 -0.1054  0.0672  0.1661
   62MOL     C430626   1.477   7.183   3.171 -0.5373 -0.1280  0.6033
   62MOL     O530627   1.389   7.207   3.252 -0.5678 -0.0434 -0.1501
   62MOL     O630628   1.507   7.059   3.131 -0.9672  0.0280 -0.2168
   62MOL     C730629   1.445   6.942   3.176  0.0005 -0.9137 -0.3404
   62MOL     C830630   1.479   6.822   3.086 -0.5561 -0.7285  0.0356
   62MOL     C930631   1.377   6.767   3.004 -0.5130 -0.1417 -0.3175
   62MOL    C1030632   1.404   6.645   2.935  0.2703 -0.1580 -0.3339
   62MOL    C1130633   1.526   6.579   2.944  0.2203 -0.6519  0.3286
   62MOL    C1230634   1.623   6.635   3.020 -0.7539 -0.7535 -0.3809
   62MOL    C1330635   1.603   6.754   3.089  0.4179  0.5345  0.0908
   62MOL    H1430636   1.397   7.462   3.065  0.4109 -0.3331  1.2394
   62MOL    H1530637   1.459   7.459   3.222 -0.4015 -1.5226  0.8400
   62MOL    H1630638   1.568   7.160   2.921 -0.4436 -0.5560  2.4403
   62MOL    H1730639   1.579   7.327   2.873 -2.7138  0.6515 -1.3333
   62MOL    H1830640   1.420   7.254   2.919 -0.0306 -0.9638  0.0081
   62MOL    H1930641   1.472   6.925   3.281  3.2539  0.8030 -0.8278
   62MOL    H2030642   1.338   6.964   3.173  0.3850  1.3890  1.3001
   62MOL    H2130643   1.280   6.813   2.991  0.8010  2.1962 -2.3409
   62MOL    H2230644   1.330   6.598   2.872  0.5951  0.9758 -1.5822
   62MOL    H2330645   1.544   6.484   2.896 -1.5633 -1.0975  0.5070
   62MOL    H2430646   1.723   6.595   3.028 -0.0429  0.8855 -0.7542
   62MOL    H2530647   1.686   6.782   3.153  1.8808  1.4738 -2.1444
   62MOL    H2630648   1.569   7.513   3.090  0.5126 -1.4416 -2.9325
   62MOL    C2730649   1.708   7.281   3.124 -0.0933 -0.3693 -0.3183
   62MOL    C2830650   1.767   7.278   3.262 -0.2439 -0.3033  0.2671
   62MOL    C2930651   1.698   7.382   3.350  0.6658  0.5346  0.0384
   62MOL    C3030652   1.920   7.314   3.242  0.3020 -0.5102  0.4703
   62MOL    O3130653   1.969   7.413   3.290  0.2260 -0.2239  0.3898
   62MOL    O3230654   1.985   7.226   3.164  0.1434  0.3069 -0.3234
   62MOL    C3330655   2.125   7.243   3.145 -0.1181  0.0819 -0.5506
   62MOL    C3430656   2.148   7.299   3.011 -0.1262 -0.3198 -0.3934
   62MOL    C3530657   2.154   7.438   2.980  0.0574 -0.4601 -0.1345
   62MOL    C3630658   2.149   7.482   2.848  0.3201 -0.2972 -0.3178
   62MOL    C3730659   2.153   7.390   2.745 -0.4586  0.1530  0.5596
   62MOL    C3830660   2.161   7.250   2.765  0.8349  0.1785 -0.1431
   62MOL    C3930661   2.152   7.212   2.901  0.1993 -0.2393  0.6259
   62MOL    H4030662   1.753   7.367   3.074  0.0229  0.3938  1.0530
   62MOL    H4130663   1.741   7.194   3.068  0.0313 -0.0130 -0.8018
   62MOL    H4230664   1.701   7.478   3.299  2.6316  0.5090  0.0666
   62MOL    H4330665   1.752   7.398   3.443 -0.0023  1.2698  0.2947
   62MOL    H4430666   1.598   7.356   3.383  1.3629 -0.5938  1.3374
   62MOL    H4530667   2.169   7.303   3.224 -0.9560 -2.4975  1.9546
   62MOL    H4630668   2.164   7.141   3.151  0.8270  0.5069  0.8425
   62MOL    H4730669   2.153   7.514   3.056 -1.2182 -0.1714 -0.4330
   62MOL    H4830670   2.163   7.587   2.831  0.5727 -0.1059  1.0439
   62MOL    H4930671   2.163   7.429   2.644 -0.6821  1.5578  1.0642
   62MOL    H5030672   2.149   7.185   2.680 -0.0797  1.0811 -0.7225
   62MOL    H5130673   2.146   7.107   2.923  1.4221 -0.5836 -0.6063
   62MOL    C5230674   1.758   7.138   3.322 -0.0319  0.0405  0.6553
   62MOL    C5330675   1.850   7.073   3.440  0.0231  0.0385  0.4374
   62MOL    C5430676   1.886   7.176   3.545 -0.3762  0.6687 -0.1116
   62MOL    C5530677   1.981   7.009   3.378  0.7851  0.5172  0.0262
   62MOL    O5630678   2.093   7.051   3.395  0.1787  0.1357 -0.2371
   62MOL    O5730679   1.955   6.902   3.303 -0.6157  0.7460  0.1363
   62MOL    C5830680   2.065   6.823   3.257 -0.0221  0.4300  0.2884
   62MOL    C5930681   2.019   6.685   3.218 -0.7611  0.0753  0.2871
   62MOL    C6030682   2.103   6.598   3.138  0.2039 -0.2541  0.5380
   62MOL    C6130683   2.086   6.461   3.110  0.0519  0.2890  0.1212
   62MOL    C6230684   1.969   6.401   3.161 -0.2120 -0.3990  0.3701
   62MOL    C6330685   1.887   6.477   3.248 -0.9634 -0.1972 -0.2218
   62MOL    C6430686   1.903   6.615   3.275 -0.1227  0.4702 -0.0640
   62MOL    H6530687   1.751   7.059   3.247 -0.9381 -0.7495  1.5317
   62MOL    H6630688   1.653   7.140   3.354  0.0045  1.0569  0.6998
   62MOL    H6730689   1.959   7.140   3.616 -1.1883  1.2671  1.0536
   62MOL    H6830690   1.812   7.234   3.601  1.5406  2.2332  0.8283
   62MOL    H6930691   1.941   7.253   3.491  0.9745 -0.7592 -0.8057
   62MOL    H7030692   2.120   6.868   3.174 -1.3146  1.4309 -0.0425
   62MOL    H7130693   2.138   6.809   3.336 -0.5072  0.6949  0.7887
   62MOL    H7230694   2.192   6.643   3.095 -0.0758 -2.2265 -2.1824
   62MOL    H7330695   2.157   6.403   3.053  0.2908  0.1587  0.5434
   62MOL    H7430696   1.943   6.297   3.148 -1.7963 -0.1810  1.7594
   62MOL    H7530697   1.797   6.425   3.276 -0.7380 -0.7851 -0.5863
   62MOL    H7630698   1.827   6.668   3.331 -0.7361 -0.9175  0.4435
   62MOL    C7730699   1.751   6.958   3.513  0.7264 -0.3482  0.0921
   62MOL    C7830700   1.790   6.882   3.648  0.5435 -0.1848  0.0480
   62MOL    C7930701   1.922   6.804   3.628 -0.3929 -0.1382  0.4761
   62MOL    C8030702   1.679   6.779   3.665  0.2136  0.6215  0.3511
   62MOL    O8130703   1.708   6.660   3.683 -0.1490  0.6022 -0.7937
   62MOL    O8230704   1.561   6.821   3.663  0.0990  0.1768  0.5398
   62MOL    C8330705   1.456   6.727   3.642 -1.0014 -0.3265 -0.5276
   62MOL    C8430706   1.325   6.810   3.654  0.3824  0.4246  0.2676
   62MOL    C8530707   1.215   6.750   3.721 -0.5830 -0.6208 -0.0228
   62MOL    C8630708   1.089   6.826   3.730  0.1162 -0.3332  0.1014
   62MOL    C8730709   1.075   6.950   3.680 -0.3540 -0.3849  0.1799
   62MOL    C8830710   1.187   7.003   3.612 -0.2675  0.0758 -0.9582
   62MOL    C8930711   1.309   6.938   3.598 -0.4689  0.1365  0.7392
   62MOL    H9030712   1.725   6.887   3.434  2.0653 -0.9367  0.1518
   62MOL    H9130713   1.660   7.011   3.537  1.6292  1.4760 -0.4108
   62MOL    H9230714   1.915   6.734   3.545  0.1285  2.7223 -2.0568
   62MOL    H9330715   1.947   6.742   3.715  1.0149 -1.3393 -0.7556
   62MOL    H9430716   2.010   6.860   3.595 -0.1151 -0.8090  0.0682
   62MOL    H9530717   1.462   6.665   3.553  1.9734 -2.3693  1.0183
   62MOL    H9630718   1.468   6.658   3.726  0.0537  1.2965  0.6846
   62MOL    H9730719   1.223   6.654   3.769 -1.7170 -2.0489 -2.5802
   62MOL    H9830720   1.008   6.787   3.790  0.0034  1.5936  1.2122
   62MOL    H9930721   0.984   7.008   3.685 -1.0619 -1.4656  0.0172
   62MOL   H10030722   1.163   7.097   3.563  1.1443  0.9853  0.0559
   62MOL   H10130723   1.394   6.975   3.542 -2.0838 -0.9788 -2.5862
   62MOL   C10230724   1.800   6.976   3.775  0.2679  0.3430 -0.5320
   62MOL   C10330725   1.787   6.931   3.926 -0.0865 -0.2561  0.2607
   62MOL   C10430726   1.856   6.795   3.946  0.1349  0.1479  0.3936
   62MOL   C10530727   1.634   6.907   3.958  0.0423  0.0220  0.4947
   62MOL   O10630728   1.586   6.796   3.981 -0.5228 -0.7079  0.1099
   62MOL   O10730729   1.565   7.017   3.942 -0.4143  0.3464  0.2593
   62MOL   C10830730   1.429   7.026   3.978  0.9122  0.0852  0.8236
   62MOL   C10930731   1.397   7.172   4.015 -0.1450  0.6309  0.2509
   62MOL   C11030732   1.408   7.274   3.921 -0.4083  0.1581  0.3005
   62MOL   C11130733   1.397   7.407   3.962  0.2830 -0.3536 -0.5256
   62MOL   C11230734   1.357   7.436   4.098 -1.1099 -0.1422  0.6236
   62MOL   C11330735   1.332   7.333   4.187  0.1451 -0.5750 -0.4433
   62MOL   C11430736   1.363   7.203   4.146  0.4417 -0.3973 -0.3394
   62MOL   H11530737   1.741   7.067   3.768 -0.8173 -0.1827  1.3321
   62MOL   H11630738   1.904   7.009   3.762 -0.1647  1.4647 -1.2379
   62MOL   H11730739   1.862   6.779   4.054 -0.5727 -1.3456  0.2166
   62MOL   H11830740   1.959   6.789   3.911  0.5565  1.3480  1.3739
   62MOL   H11930741   1.789   6.719   3.906  0.4917  0.2398 -0.3908
   62MOL   H12030742   1.368   6.988   3.897  0.0724  0.6706  1.1798
   62MOL   H12130743   1.400   6.957   4.058 -1.2035  0.0927  0.0862
   62MOL   H12230744   1.424   7.243   3.819  0.9246 -1.5145  0.9964
   62MOL   H12330745   1.394   7.489   3.893  2.9614 -0.7096 -1.1133
   62MOL   H12430746   1.357   7.541   4.123  0.2663  0.2393 -0.9102
   62MOL   H12530747   1.308   7.342   4.292 -0.4540 -0.5861 -0.5762
   62MOL   H12630748   1.360   7.125   4.220  2.3523  1.3779  1.6967
   62MOL   C12730749   1.842   7.047   4.015  0.3485  0.0404  0.4304
   62MOL   C12830750   1.868   7.041   4.168 -0.2836  0.7197 -0.4860
   62MOL   C12930751   1.735   6.992   4.242 -0.4014 -0.0127  0.3224
   62MOL   C13030752   1.884   7.186   4.212  0.1684  0.3789 -0.2195
   62MOL   O13130753   1.822   7.233   4.304  0.5395 -0.5953 -0.0331
   62MOL   O13230754   1.979   7.262   4.144 -0.5751  0.5909 -0.4015
   62MOL   C13330755   1.973   7.398   4.160  0.2930 -0.2276  0.1149
   62MOL   C13430756   1.884   7.447   4.047 -0.0157  1.0507 -0.6648
   62MOL   C13530757   1.907   7.408   3.921  0.3018 -0.3610  0.6002
   62MOL   C13630758   1.830   7.458   3.814 -0.2978  0.2184 -0.0725
   62MOL   C13730759   1.732   7.555   3.835 -0.9112  0.2309  0.5125
   62MOL   C13830760   1.700   7.585   3.964 -0.3470  0.0841 -0.5047
   62MOL   C13930761   1.773   7.529   4.073  0.4755 -0.2472  0.0179
   62MOL   H14030762   1.764   7.122   4.003 -1.1344 -1.6351 -0.5361
   62MOL   H14130763   1.930   7.096   3.973 -0.2779  1.9284  1.2621
   62MOL   H14230764   1.726   7.010   4.349 -0.4690 -2.4710  0.7788
   62MOL   H14330765   1.709   6.889   4.216 -3.9674  0.7154  0.6555
   62MOL   H14430766   1.655   7.053   4.200 -0.9117 -0.3431  0.8074
   62MOL   H14530767   1.935   7.423   4.259  1.2407  0.4540  0.3166
   62MOL   H14630768   2.067   7.451   4.142  0.3548 -0.7591 -1.1807
   62MOL   H14730769   1.983   7.331   3.910  0.6229  0.1511 -0.9887
   62MOL   H14830770   1.847   7.417   3.716  0.9486  1.8099 -0.5477
   62MOL   H14930771   1.692   7.599   3.745  1.1652  0.9529 -0.0905
   62MOL   H15030772   1.617   7.652   3.984 -3.2408 -2.6051 -2.8242
   62MOL   H15130773   1.740   7.544   4.174  0.0349  2.4019 -0.4815
   62MOL   C15230774   1.987   6.948   4.216  0.0943 -0.6196  0.3997
   62MOL   C15330775   2.090   6.985   4.337 -0.1566 -0.0574 -0.0274
   62MOL   C15430776   2.003   7.018   4.461  0.0521 -0.1322  0.2437
   62MOL   C15530777   2.176   7.108   4.297  0.8339  0.0327 -0.2370
   62MOL   O15630778   2.198   7.207   4.373  0.5327  0.3345  0.2189
   62MOL   O15730779   2.217   7.093   4.174 -0.6717 -0.2881 -0.1093
   62MOL   C15830780   2.301   7.202   4.113  0.7046  0.2049 -1.0287
   62MOL   C15930781   2.287   7.212   3.966 -0.2362  0.4281 -0.3995
   62MOL   C16030782   2.207   7.124   3.890  0.2826 -0.1978 -0.5756
   62MOL   C16130783   2.206   7.136   3.750  0.2549  0.2133  0.1878
   62MOL   C16230784   2.274   7.232   3.680 -0.0479 -0.3597 -0.1796
   62MOL   C16330785   2.348   7.323   3.755  0.9523 -0.1210  0.2159
   62MOL   C16430786   2.360   7.312   3.895 -0.1187 -0.6138 -0.4575
   62MOL   H16530787   2.047   6.914   4.132 -0.2708 -1.3873  0.4415
   62MOL   H16630788   1.939   6.859   4.256 -1.7520  0.4523  0.6446
   62MOL   H16730789   1.968   7.122   4.462  3.4211  1.1091 -1.1889
   62MOL   H16830790   2.059   7.021   4.555  1.2917  2.1022 -0.5025
   62MOL   H16930791   1.928   6.942   4.479 -0.0092  0.1788  1.3826
   62MOL   H17030792   2.276   7.301   4.152  1.0538 -0.0647 -0.1007
   62MOL   H17130793   2.406   7.184   4.136  0.5214 -0.7291 -0.9345
   62MOL   H17230794   2.149   7.051   3.943  1.2688 -1.0000 -0.5917
   62MOL   H17330795   2.149   7.066   3.690  2.9539  0.0259 -2.2735
   62MOL   H17430796   2.283   7.240   3.572  2.2089  1.1112  0.0775
   62MOL   H17530797   2.394   7.409   3.708  0.4320 -0.3298 -0.6935
   62MOL   H17630798   2.429   7.375   3.949  0.4967  0.7672 -2.7976
   62MOL   C17730799   2.175   6.857   4.357  0.0968 -0.4378 -0.3460
   62MOL   C17830800   2.317   6.859   4.414 -0.4581 -0.5619  0.5193
   62MOL   C17930801   2.320   6.943   4.544  0.7110  0.5820  1.0450
   62MOL   C18030802   2.425   6.917   4.314 -0.0880 -0.6618 -0.3231
   62MOL   O18130803   2.507   7.004   4.345 -0.2373 -0.3386  0.1198
   62MOL   O18230804   2.423   6.853   4.196  0.0680 -0.3451 -0.1548
   62MOL   C18330805   2.513   6.891   4.094  0.1559  0.7067 -0.8048
   62MOL   C18430806   2.465   6.847   3.959 -0.1434  0.3087  0.4787
   62MOL   C18530807   2.327   6.819   3.936 -0.7475  0.6372 -0.5499
   62MOL   C18630808   2.282   6.779   3.809  0.5825 -0.3946  0.4428
   62MOL   C18730809   2.369   6.788   3.702 -0.0194 -0.5010 -0.4587
   62MOL   C18830810   2.505   6.823   3.720  0.4394  0.0668  0.3917
   62MOL   C18930811   2.552   6.847   3.852 -1.2101 -0.2041 -0.2795
   62MOL   H19030812   2.178   6.803   4.263  0.1837 -0.0291 -0.5794
   62MOL   H19130813   2.119   6.782   4.412 -2.5792 -0.0799 -2.5424
   62MOL   H19230814   2.403   6.900   4.600 -1.0467 -1.2229  2.2963
   62MOL   H19330815   2.238   6.924   4.613  1.8698 -0.8840  2.0543
   62MOL   H19430816   2.334   7.050   4.530 -0.2639  0.3093 -2.7201
   62MOL   H19530817   2.498   6.998   4.085 -3.5402  0.1687 -1.9765
   62MOL   H19630818   2.616   6.859   4.112 -0.7375 -2.4175 -0.8322
   62MOL   H19730819   2.250   6.825   4.011  0.4006  0.4866  0.6545
   62MOL   H19830820   2.178   6.755   3.797  0.2093  1.0758  0.6832
   62MOL   H19930821   2.326   6.767   3.605 -1.1806  3.1164 -0.8134
   62MOL   H20030822   2.571   6.835   3.636 -1.8259  0.6804 -1.3698
   62MOL   H20130823   2.657   6.866   3.872 -1.8866  0.5257  2.9517
   62MOL   C20230824   2.341   6.702   4.450 -0.5965  0.2073 -0.5838
   62MOL   C20330825   2.485   6.623   4.461 -0.3963 -0.4969 -0.8876
   62MOL   C20430826   2.582   6.705   4.550  0.1750 -0.4676  0.1211
   62MOL   C20530827   2.535   6.598   4.320 -0.2852  0.4276 -0.5563
   62MOL   O20630828   2.631   6.671   4.271 -0.6287  0.6024 -0.5956
   62MOL   O20730829   2.458   6.506   4.244 -0.1779 -0.3449  1.2244
   62MOL   C20830830   2.496   6.494   4.109 -0.1494 -0.1989  0.4123
   62MOL   C20930831   2.421   6.382   4.036  0.4536  0.0202  0.6873
   62MOL   C21030832   2.430   6.250   4.082  0.9166 -0.0443 -0.1325
   62MOL   C21130833   2.377   6.142   4.006  0.1558  0.4341  0.1544
   62MOL   C21230834   2.308   6.170   3.885  0.2959 -0.1804  0.3312
   62MOL   C21330835   2.292   6.302   3.843 -0.0445  0.9960  0.2910
   62MOL   C21430836   2.351   6.405   3.919  0.0043  0.1979  0.7490
   62MOL   H21530837   2.287   6.640   4.379 -1.3464 -2.8342  2.4491
   62MOL   H21630838   2.291   6.677   4.544 -1.0371 -1.4188 -1.2413
   62MOL   H21730839   2.615   6.802   4.515 -0.6447 -1.2653 -3.0432
   62MOL   H21830840   2.674   6.646   4.550 -0.4982 -1.5792 -2.6652
   62MOL   H21930841   2.545   6.716   4.652 -0.9894  1.3742 -0.4729
   62MOL   H22030842   2.480   6.587   4.055  0.0633 -0.7185 -0.5405
   62MOL   H22130843   2.601   6.465   4.107  0.3194  1.3457  1.2958
   62MOL   H22230844   2.482   6.223   4.173  0.2160  1.5843  0.7656
   62MOL   H22330845   2.395   6.041   4.039  0.1946  0.5440  0.4785
   62MOL   H22430846   2.280   6.091   3.817 -0.0178  0.3905 -0.2091
   62MOL   H22530847   2.241   6.318   3.749  0.0808  2.5257  0.4653
   62MOL   H22630848   2.341   6.507   3.882 -0.0631  0.5265  1.6659
   62MOL   C22730849   2.466   6.476   4.535 -0.4691 -0.4371  0.2600
   62MOL   C22830850   2.572   6.363   4.571 -0.5897  0.5620 -0.4204
   62MOL   C22930851   2.495   6.228   4.600  0.1616  0.3851  0.3885
   62MOL   C23030852   2.635   6.406   4.702 -0.7424 -0.1086  0.1170
   62MOL   O23130853   2.577   6.395   4.808 -0.0711 -0.5441  0.8554
   62MOL   O23230854   2.757   6.451   4.686  0.7949  0.4099  0.2986
   62MOL   C23330855   2.835   6.490   4.803 -0.3059 -0.1225 -0.1624
   62MOL   C23430856   2.795   6.632   4.844 -0.8682 -0.2818  0.2179
   62MOL   C23530857   2.683   6.654   4.929 -0.1963 -1.3938 -0.8270
   62MOL   C23630858   2.638   6.782   4.965 -0.6232 -0.5842 -0.8363
   62MOL   C23730859   2.708   6.898   4.922  0.1791  0.1261 -0.2057
   62MOL   C23830860   2.811   6.885   4.832  0.1318 -0.2088  0.1123
   62MOL   C23930861   2.853   6.752   4.794 -0.4457 -0.5730  0.2574
   62MOL   H24030862   2.394   6.424   4.472  1.6568 -1.5798 -1.3026
   62MOL   H24130863   2.412   6.498   4.627 -1.1188 -0.7537 -0.0422
   62MOL   H24230864   2.403   6.244   4.656 -0.7524  0.7042 -1.1758
   62MOL   H24330865   2.545   6.161   4.670  0.5493 -0.2557 -0.4859
   62MOL   H24430866   2.468   6.177   4.507 -1.5681  3.0696 -0.6392
   62MOL   H24530867   2.826   6.435   4.897  0.8831  1.4629  0.8866
   62MOL   H24630868   2.934   6.490   4.758 -0.2203  0.0871  0.0281
   62MOL   H24730869   2.645   6.571   4.986 -2.8021  0.5429  0.3247
   62MOL   H24830870   2.558   6.789   5.037  1.8737  1.0905  1.9060
   62MOL   H24930871   2.675   6.997   4.948  2.2718  0.4592  1.3395
   62MOL   H25030872   2.848   6.971   4.778 -1.6201  0.4180 -0.1165
   62MOL   H25130873   2.935   6.739   4.725  0.1136  3.7287 -0.0430
   62MOL   C25230874   2.675   6.327   4.457  0.8187  0.1030  0.7620
   62MOL   C25330875   2.774   6.208   4.439  0.8217 -0.4839  0.1084
   62MOL   C25430876   2.856   6.198   4.575  0.2358  0.2445 -0.6486
   62MOL   C25530877   2.873   6.256   4.328  0.4116  1.0455 -0.3964
   62MOL   O25630878   2.993   6.275   4.355  0.1545 -0.4398 -0.5647
   62MOL   O25730879   2.809   6.279   4.213 -0.0930 -0.1473 -0.6507
   62MOL   C25830880   2.869   6.341   4.111 -0.2239 -0.1669  0.7588
   62MOL   C25930881   2.787   6.340   3.979 -0.3178 -0.2011 -0.4823
   62MOL   C26030882   2.776   6.456   3.906  0.2232  0.1816 -0.2378
   62MOL   C26130883   2.709   6.457   3.783 -0.1865 -0.8156 -1.0304
   62MOL   C26230884   2.667   6.343   3.725  0.5698  0.2384 -0.4399
   62MOL   C26330885   2.684   6.224   3.787 -0.1053  0.5084 -0.5458
   62MOL   C26430886   2.741   6.220   3.919  0.1216  0.1058 -0.3883
   62MOL   H26530887   2.736   6.415   4.439 -0.8783  0.9233 -1.1850
   62MOL   H26630888   2.621   6.331   4.363  0.9521  1.4349  0.7410
   62MOL   H26730889   2.895   6.295   4.605  0.2246  0.3577 -1.0017
   62MOL   H26830890   2.938   6.129   4.553 -2.1517 -2.4906 -1.3091
   62MOL   H26930891   2.797   6.151   4.654  0.8802 -3.4225 -2.2293
   62MOL   H27030892   2.890   6.444   4.139 -1.7888  0.3478  0.1072
   62MOL   H27130893   2.968   6.300   4.094 -0.0098  0.4348  0.5342
   62MOL   H27230894   2.797   6.545   3.963  2.7755 -1.5986  1.7482
   62MOL   H27330895   2.692   6.549   3.728  1.7880  0.4338  0.3791
   62MOL   H27430896   2.618   6.348   3.629 -0.4861 -0.5564  0.0520
   62MOL   H27530897   2.644   6.131   3.749 -1.3577  0.3244  1.2069
   62MOL   H27630898   2.755   6.131   3.977  0.6199 -0.6397 -1.6369
   62MOL   C27730899   2.703   6.077   4.399  0.1428  0.2614 -0.2440
   62MOL   C27830900   2.776   5.944   4.359 -0.3815  0.3239 -1.1730
   62MOL   C27930901   2.656   5.846   4.353 -0.0288  0.2929  0.6026
   62MOL   C28030902   2.863   5.897   4.486  0.2929 -0.5696 -0.3795
   62MOL   O28130903   2.984   5.892   4.482  0.3664  0.3762 -0.0743
   62MOL   O28230904   2.790   5.858   4.593  0.7901  0.1599  0.0809
   62MOL   C28330905   2.856   5.834   4.713  0.9794 -0.4377  0.0692
   62MOL   C28430906   2.770   5.788   4.831  0.4535  0.3460  0.4932
   62MOL   C28530907   2.824   5.711   4.933 -0.5158  0.1725  0.1270
   62MOL   C28630908   2.744   5.671   5.045 -0.3973  0.6309  0.1628
   62MOL   C28730909   2.605   5.692   5.047  0.2111  1.3335 -0.6024
   62MOL   C28830910   2.555   5.773   4.948  0.1211  1.0725 -0.3871
   62MOL   C28930911   2.640   5.834   4.846 -0.0735 -0.2106  0.1186
   62MOL   H29030912   2.633   6.107   4.321 -1.6601  2.0814  2.0052
   62MOL   H29130913   2.638   6.054   4.483 -0.5524 -1.6321 -1.2484
   62MOL   H29230914   2.689   5.742   4.345 -0.6495  0.2042 -1.0303
   62MOL   H29330915   2.598   5.879   4.266  3.4595  0.6661 -1.6897
   62MOL   H29430916   2.582   5.860   4.431 -1.3301  2.4529 -0.9576
   62MOL   H29530917   2.933   5.763   4.684  0.8238  0.0665 -1.6292
   62MOL   H29630918   2.899   5.926   4.751 -1.6743  1.3435 -1.0877
   62MOL   H29730919   2.929   5.683   4.938 -1.0738 -1.8004  1.8519
   62MOL   H29830920   2.797   5.618   5.122 -1.1834  1.8337  1.5613
   62MOL   H29930921   2.546   5.647   5.125  0.2726  0.7488 -0.8899
   62MOL   H30030922   2.451   5.803   4.941 -0.5694 -1.0993  0.2611
   62MOL   H30130923   2.600   5.893   4.765  0.5835  0.4289  0.2543
   62MOL   C30230924   2.866   5.955   4.223 -0.2321 -0.0893 -0.4177
   62MOL   C30330925   2.882   5.839   4.116 -0.4600 -0.3484 -0.1230
   62MOL   C30430926   2.751   5.820   4.042 -0.8304 -0.2120  0.4052
   62MOL   C30530927   2.930   5.711   4.183 -0.4667  0.5258 -0.8189
   62MOL   O30630928   2.865   5.605   4.184 -0.1450 -0.0916  0.1457
   62MOL   O30730929   3.057   5.720   4.231  0.0769 -0.3315 -0.4573
   62MOL   C30830930   3.094   5.628   4.336  0.3962  0.3754 -0.0684
   62MOL   C30930931   3.242   5.635   4.371  0.7205  0.0967  0.6247
   62MOL   C31030932   3.306   5.520   4.426  0.3967 -0.3967  0.0303
   62MOL   C31130933   3.440   5.521   4.454 -0.6088 -0.7947  0.1950
   62MOL   C31230934   3.510   5.641   4.435 -0.2160 -0.0857 -0.1549
   62MOL   C31330935   3.455   5.756   4.381  0.4291  0.0953  0.4329
   62MOL   C31430936   3.317   5.752   4.347 -0.1975  0.1704 -0.6824
   62MOL   H31530937   2.960   6.000   4.254 -1.0793  1.6804 -0.3453
   62MOL   H31630938   2.825   6.036   4.162 -1.0476 -0.0031  0.2363
   62MOL   H31730939   2.671   5.770   4.097 -0.8364 -1.5966 -0.8276
   62MOL   H31830940   2.761   5.745   3.963 -0.4261 -0.8604  1.0660
   62MOL   H31930941   2.721   5.919   4.007  1.5742  0.0427 -1.0604
   62MOL   H32030942   3.055   5.650   4.435  0.1308 -2.5882  0.5138
   62MOL   H32130943   3.071   5.527   4.303  0.9006  0.4087 -0.5442
   62MOL   H32230944   3.251   5.434   4.460 -0.1883  0.4459  1.2615
   62MOL   H32330945   3.480   5.432   4.501  1.4311 -0.6577 -1.2249
   62MOL   H32430946   3.610   5.639   4.475 -0.8274  0.3961  1.4467
   62MOL   H32530947   3.520   5.842   4.370 -0.9296  1.8574  5.0734
   62MOL   H32630948   3.267   5.839   4.309 -1.5074 -0.8672 -1.3485
   62MOL   C32730949   2.992   5.890   4.019 -0.2544 -1.6665  0.1511
   62MOL   C32830950   3.033   5.837   3.875  0.2871  0.0111 -0.7112
   62MOL   C32930951   2.933   5.896   3.773 -0.4849  0.0377 -0.1948
   62MOL   C33030952   3.030   5.684   3.866 -0.2253 -0.3435  0.2063
   62MOL   O33130953   2.964   5.623   3.784 -0.0588  0.1274  0.4914
   62MOL   O33230954   3.106   5.634   3.960 -0.0230  0.4549  0.4292
   62MOL   C33330955   3.118   5.490   3.958  0.1472 -0.1716  0.1052
   62MOL   C33430956   3.231   5.427   3.871 -0.2766 -0.5700  0.1596
   62MOL   C33530957   3.207   5.303   3.802 -0.3240 -0.6797 -0.1631
   62MOL   C33630958   3.297   5.254   3.705 -0.0945 -0.2043  0.3983
   62MOL   C33730959   3.424   5.316   3.694  0.5045  0.3855  0.0346
   62MOL   C33830960   3.453   5.435   3.765 -0.4856 -0.4544 -0.2701
   62MOL   C33930961   3.362   5.486   3.858 -0.0083  0.8050 -0.2928
   62MOL   H34030962   3.082   5.905   4.078  0.8707 -0.5260 -1.8053
   62MOL   H34130963   2.972   5.996   4.006 -1.8371 -2.1070 -1.2459
   62MOL   H34230964   2.886   5.992   3.792 -2.9900 -1.3771  1.1775
   62MOL   H34330965   2.839   5.842   3.757 -1.0864  0.5980  1.3863
   62MOL   H34430966   2.966   5.898   3.669 -0.1256  0.1553 -0.0764
   62MOL   H34530967   3.137   5.457   4.060  1.7743 -0.6236 -0.3304
   62MOL   H34630968   3.015   5.456   3.942 -0.9965  1.7177  2.9854
   62MOL   H34730969   3.107   5.262   3.808 -0.6877  0.3076  0.5898
   62MOL   H34830970   3.286   5.165   3.646  2.8191  1.0492 -2.1567
   62MOL   H34930971   3.503   5.286   3.627  1.1198 -1.3839  1.5151
   62MOL   H35030972   3.556   5.466   3.753 -0.4395 -0.9354 -1.0734
   62MOL   H35130973   3.390   5.572   3.916 -2.5734  1.4003  0.1445
   62MOL   C35230974   3.173   5.880   3.821 -0.2541  0.3056 -0.2595
   62MOL   C35330975   3.235   6.027   3.822  0.2754 -0.1977 -0.1367
   62MOL   C35430976   3.302   6.055   3.964 -0.0026  0.5421 -0.1974
   62MOL   C35530977   3.126   6.131   3.792 -0.3364 -0.3327  0.1429
   62MOL   O35630978   3.080   6.202   3.879 -0.1745 -0.8568 -0.0931
   62MOL   O35730979   3.079   6.136   3.659 -0.0657  0.4569  0.2744
   62MOL   C35830980   2.984   6.237   3.625 -0.8402 -0.4284 -0.2389
   62MOL   C35930981   3.036   6.328   3.512 -0.0113 -0.7918  0.4662
   62MOL   C36030982   3.082   6.275   3.390 -0.0847  0.0369 -0.6675
   62MOL   C36130983   3.110   6.355   3.284 -0.2230  0.0527  0.5044
   62MOL   C36230984   3.090   6.493   3.293 -0.4002 -0.4644  0.3435
   62MOL   C36330985   3.051   6.551   3.413  0.5648 -0.0684 -0.0977
   62MOL   C36430986   3.015   6.468   3.520  0.3234 -0.4214 -0.3211
   62MOL   H36530987   3.175   5.862   3.713 -0.0682  1.3510 -0.4327
   62MOL   H36630988   3.244   5.805   3.856 -1.9230 -0.4277  1.6594
   62MOL   H36730989   3.231   6.037   4.044 -0.6395  0.3685 -0.7981
   62MOL   H36830990   3.344   6.155   3.975 -0.9537  0.7671  1.5996
   62MOL   H36930991   3.382   5.981   3.974  0.2470  0.9021  0.5231
   62MOL   H37030992   2.899   6.193   3.574 -1.2149  0.8489 -0.7384
   62MOL   H37130993   2.939   6.285   3.712 -0.8611  0.9688 -1.0056
   62MOL   H37230994   3.102   6.169   3.378  3.8180  0.4320  1.5771
   62MOL   H37330995   3.139   6.313   3.189 -1.9398  0.4911 -0.2288
   62MOL   H37430996   3.120   6.558   3.213  0.0321 -0.3254  0.6153
   62MOL   H37530997   3.046   6.659   3.412 -1.3492 -0.1358  0.3170
   62MOL   H37630998   2.976   6.517   3.608 -0.6474 -1.3797 -0.2048
   62MOL   C37730999   3.340   6.027   3.703  0.6877  0.5281 -0.0447
   62MOL   C37831000   3.452   6.134   3.694 -0.0562 -0.2647  0.9712
   62MOL   C37931001   3.511   6.120   3.551  0.7160  0.2295  0.2979
   62MOL   C38031002   3.565   6.107   3.798 -0.2136 -0.0350  0.1647
   62MOL   O38131003   3.584   6.183   3.888 -0.3673  0.0912 -0.1947
   62MOL   O38231004   3.621   5.989   3.796  0.1949 -1.4136 -0.5866
   62MOL   C38331005   3.741   5.975   3.871 -0.2686  0.0705  0.4378
   62MOL   C38431006   3.780   5.829   3.875 -0.3135  0.2463  0.2106
   62MOL   C38531007   3.905   5.775   3.826 -0.4042  0.2145  0.3128
   62MOL   C38631008   3.939   5.642   3.841 -0.3588  0.7464  0.2492
   62MOL   C38731009   3.849   5.561   3.908  0.1640  0.2847  0.3973
   62MOL   C38831010   3.725   5.605   3.957 -0.5032 -0.1242  0.5157
   62MOL   C38931011   3.688   5.739   3.940  0.3296 -1.0006 -0.3054
   62MOL   H39031012   3.290   6.016   3.607 -1.3433  0.1703  1.0237
   62MOL   H39131013   3.380   5.926   3.697 -1.6660 -0.3705 -1.6357
   62MOL   H39231014   3.613   6.157   3.545  0.1396  2.0487  1.5123
   62MOL   H39331015   3.452   6.182   3.484  0.2454 -0.1941  0.3172
   62MOL   H39431016   3.507   6.017   3.514  1.1070 -0.1979  1.4129
   62MOL   H39531017   3.819   6.034   3.822 -0.3302  0.2961  0.6119
   62MOL   H39631018   3.736   6.016   3.972 -1.2724  1.2826 -0.0871
   62MOL   H39731019   3.980   5.837   3.778  0.1629 -1.0697 -0.4955
   62MOL   H39831020   4.027   5.586   3.813  0.4441  1.2427  1.7105
   62MOL   H39931021   3.872   5.456   3.918 -0.2544  0.2161  0.6323
   62MOL   H40031022   3.658   5.537   4.008 -0.9234  0.8172  1.2469
   62MOL   H40131023   3.600   5.786   3.982  0.4488 -0.6044 -0.4949
   62MOL   C40231024   3.393   6.286   3.711  0.3140 -0.3106  0.2458
   62MOL   C40331025   3.464   6.422   3.682  0.0700 -0.1044  0.0176
   62MOL   C40431026   3.386   6.496   3.567 -0.2781  0.1338 -0.5779
   62MOL   C40531027   3.613   6.406   3.636  0.0225  0.3167  0.1100
   62MOL   O40631028   3.707   6.413   3.716 -0.1004 -0.0424  0.7364
   62MOL   O40731029   3.633   6.387   3.503 -0.1449 -0.3693 -0.2281
   62MOL   C40831030   3.762   6.390   3.438 -0.3161  0.4387 -0.0753
   62MOL   C40931031   3.816   6.523   3.393 -0.0790  0.8852 -0.6090
   62MOL   C41031032   3.732   6.619   3.337 -0.1012  0.2621  0.0334
   62MOL   C41131033   3.791   6.727   3.280  0.8719 -0.3308  0.6770
   62MOL   C41231034   3.932   6.747   3.288 -0.4328  0.3727  0.2031
   62MOL   C41331035   4.014   6.653   3.344 -0.6294 -0.0676  0.1006
   62MOL   C41431036   3.956   6.543   3.404  0.0160  0.3152  0.7465
   62MOL   H41531037   3.382   6.287   3.820 -2.1539  1.6738  0.0191
   62MOL   H41631038   3.293   6.284   3.668  0.2125 -0.4520  0.4875
   62MOL   H41731039   3.423   6.591   3.527 -1.8970  0.0355 -2.3615
   62MOL   H41831040   3.279   6.507   3.584  0.1638  1.9510  1.2742
   62MOL   H41931041   3.387   6.434   3.478 -1.3983  2.5191 -2.2818
   62MOL   H42031042   3.833   6.336   3.501 -1.5775 -1.1457 -0.0011
   62MOL   H42131043   3.750   6.336   3.344  1.6648 -2.2277  1.1442
   62MOL   H42231044   3.627   6.608   3.315 -0.0478 -1.1265  0.4096
   62MOL   H42331045   3.740   6.803   3.223 -2.2247 -1.9046  1.2740
   62MOL   H42431046   3.962   6.836   3.234 -0.7292  1.1728  1.3401
   62MOL   H42531047   4.121   6.666   3.342 -0.3542 -2.1722 -0.3774
   62MOL   H42631048   4.011   6.458   3.440 -0.5234  1.1193  3.6063
   62MOL   C42731049   3.472   6.508   3.817  0.5679  0.2782  0.5842
   62MOL   C42831050   3.345   6.597   3.869 -0.0831  0.0893  0.9503
   62MOL   C42931051   3.215   6.509   3.873  0.1382 -0.4967 -0.0235
   62MOL   C43031052   3.319   6.719   3.779 -0.5937  0.7209  0.0906
   62MOL   O43131053   3.210   6.752   3.733 -0.1929  0.3274  0.7434
   62MOL   O43231054   3.429   6.789   3.758 -0.3013  0.2321 -0.8249
   62MOL   C43331055   3.427   6.900   3.677  0.6222 -0.6446  0.1437
   62MOL   C43431056   3.495   7.027   3.728 -0.3880 -0.1543  0.0051
   62MOL   C43531057   3.635   7.065   3.712 -0.6879 -0.2645  0.0325
   62MOL   C43631058   3.682   7.190   3.752  0.0180  1.1533  0.0577
   62MOL   C43731059   3.597   7.274   3.826  0.1794  0.3772 -0.1102
   62MOL   C43831060   3.464   7.236   3.855 -0.1301 -0.1313  0.2773
   62MOL   C43931061   3.419   7.111   3.806  0.7594  0.6533 -0.6703
   62MOL   H44031062   3.550   6.583   3.802 -0.4431  1.1511 -0.4667
   62MOL   H44131063   3.497   6.439   3.898  0.3635 -2.4771 -1.6665
   62MOL   H44231064   3.141   6.557   3.937 -0.2889 -0.5843 -0.4584
   62MOL   H44331065   3.248   6.413   3.913  0.6085  0.2553  1.4614
   62MOL   H44431066   3.172   6.475   3.780  1.9917 -3.3099  0.0984
   62MOL   H44531067   3.474   6.870   3.583 -1.4305  1.9047 -1.7986
   62MOL   H44631068   3.325   6.921   3.642  0.1510  0.9956  2.3919
   62MOL   H44731069   3.698   6.998   3.656 -2.9175 -0.2349 -2.6260
   62MOL   H44831070   3.783   7.220   3.726  0.0256  0.5304 -0.6367
   62MOL   H44931071   3.634   7.369   3.860 -1.4983  0.4393  1.6556
   62MOL   H45031072   3.398   7.299   3.912 -1.5469  0.6597 -2.1689
   62MOL   H45131073   3.315   7.084   3.823  0.8545 -0.6772 -2.1038
   62MOL   C45231074   3.393   6.646   4.016 -0.0421  0.2936 -0.2048
   62MOL   C45331075   3.304   6.730   4.111 -0.0592  0.3924  0.2071
   62MOL   C45431076   3.408   6.812   4.192  0.0897  0.1762  0.2712
   62MOL   C45531077   3.225   6.630   4.203 -0.8232  0.0959 -0.8045
   62MOL   O45631078   3.106   6.607   4.190 -0.0196  0.3430  1.0897
   62MOL   O45731079   3.305   6.552   4.281  0.0730 -0.1855 -0.3549
   62MOL   C45831080   3.248   6.444   4.343  0.1534 -0.0022 -0.5234
   62MOL   C45931081   3.344   6.381   4.440  0.6620  0.2283 -0.5963
   62MOL   C46031082   3.396   6.254   4.412  0.2686 -0.4750 -0.3772
   62MOL   C46131083   3.491   6.200   4.497  0.3510 -0.1597  0.4352
   62MOL   C46231084   3.525   6.263   4.615  0.3385 -0.0377  0.0312
   62MOL   C46331085   3.476   6.394   4.642  0.2801  0.3419  0.0258
   62MOL   C46431086   3.386   6.451   4.557  0.1522  0.1594  0.0090
   62MOL   H46531087   3.482   6.707   4.007 -0.2838  0.7931  0.7296
   62MOL   H46631088   3.435   6.563   4.072 -0.3987 -0.3081 -0.8294
   62MOL   H46731089   3.450   6.900   4.143 -0.9105 -0.8804 -2.5929
   62MOL   H46831090   3.497   6.754   4.213 -1.4550 -1.5071  2.3444
   62MOL   H46931091   3.353   6.852   4.276 -1.7581  2.0000 -1.7337
   62MOL   H47031092   3.166   6.478   4.406  0.2406 -0.7567  0.0159
   62MOL   H47131093   3.208   6.371   4.272 -0.5400  0.6395 -0.7884
   62MOL   H47231094   3.374   6.215   4.313  0.5053  1.6044 -1.2702
   62MOL   H47331095   3.531   6.103   4.467  2.2113  0.5670  0.4782
   62MOL   H47431096   3.594   6.219   4.685  0.5235 -0.4484 -0.4070
   62MOL   H47531097   3.499   6.434   4.740 -0.2070 -3.1661  1.6819
   62MOL   H47631098   3.333   6.540   4.587  2.7566  2.6458 -2.3826
   62MOL   C47731099   3.213   6.835   4.039 -0.0525  0.0920  0.2568
   62MOL   C47831100   3.120   6.922   4.135  0.0880 -0.2192  0.3656
   62MOL   C47931101   2.969   6.913   4.111  0.7567  0.1656  0.7260
   62MOL   C48031102   3.154   7.071   4.152 -0.4833 -0.4066 -0.2835
   62MOL   O48131103   3.173   7.139   4.051  0.0934 -0.1479  0.5350
   62MOL   O48231104   3.158   7.113   4.274  0.0084 -0.4985 -0.3278
   62MOL   C48331105   3.176   7.254   4.306 -0.8820  0.2479  0.0557
   62MOL   C48431106   3.329   7.274   4.313  0.4580 -0.5517 -0.1901
   62MOL   C48531107   3.391   7.346   4.211  0.4006  0.0039  0.1665
   62MOL   C48631108   3.526   7.377   4.218  0.4830 -0.2093 -0.4858
   62MOL   C48731109   3.607   7.326   4.323  0.7893 -0.4728 -0.3779
   62MOL   C48831110   3.545   7.251   4.423  0.2012  0.4134 -0.1018
   62MOL   C48931111   3.409   7.239   4.422 -0.6607  0.1493 -0.3059
   62MOL   H49031112   3.147   6.791   3.965 -1.8694  0.4682  1.6221
   62MOL   H49131113   3.276   6.901   3.979 -2.0117  1.1606 -0.6468
   62MOL   H49231114   2.919   6.990   4.169  1.1448  1.0015 -0.0423
   62MOL   H49331115   2.928   6.813   4.129  2.5203 -0.8746 -0.8399
   62MOL   H49431116   2.953   6.935   4.005 -0.9808  0.2844  0.9877
   62MOL   H49531117   3.129   7.324   4.237 -2.6494  2.3330  3.2518
   62MOL   H49631118   3.140   7.268   4.408 -0.9974 -1.6199  0.2952
   62MOL   H49731119   3.335   7.375   4.124 -0.0465  0.5768  0.6409
   62MOL   H49831120   3.564   7.444   4.142 -1.2866  0.3004 -0.9561
   62MOL   H49931121   3.711   7.350   4.337  1.0021 -1.1469 -0.7848
   62MOL   H50031122   3.605   7.227   4.509  1.2679  0.8372 -0.7082
   62MOL   H50131123   3.365   7.198   4.512  1.6918 -0.4517  0.6131
   62MOL   H50231124   3.142   6.892   4.237 -0.8154 -1.3230  0.2383
   63MOL     C131125   3.212   7.703   6.645  0.0199 -0.4659 -0.4468
   63MOL     C231126   3.236   7.823   6.738  0.2339 -0.0666  0.7647
   63MOL     C331127   3.278   7.948   6.651  0.1324 -0.2307  0.0808
   63MOL     C431128   3.364   7.784   6.817 -0.6391 -0.6128 -0.3162
   63MOL     O531129   3.472   7.849   6.813  0.0410  0.2104  0.2586
   63MOL     O631130   3.338   7.671   6.888 -0.0820  0.4441  0.1002
   63MOL     C731131   3.430   7.632   6.992  0.1577 -0.8580  0.6269
   63MOL     C831132   3.378   7.543   7.101 -0.1903 -0.3317  0.1016
   63MOL     C931133   3.303   7.428   7.068 -0.4181 -0.2776 -0.7115
   63MOL    C1031134   3.239   7.359   7.171  0.8319 -0.0493 -0.1489
   63MOL    C1131135   3.269   7.389   7.300 -0.7578  0.5238 -0.5717
   63MOL    C1231136   3.344   7.504   7.336  0.0510 -0.4741  0.2393
   63MOL    C1331137   3.400   7.583   7.236 -0.2944 -0.3826 -0.2576
   63MOL    H1431138   3.190   7.611   6.699  1.6892 -0.2810  0.5929
   63MOL    H1531139   3.132   7.721   6.574 -0.0641  2.1071  0.2660
   63MOL    H1631140   3.208   7.980   6.574 -1.4336 -1.3905  1.0033
   63MOL    H1731141   3.370   7.941   6.593  0.4735  0.3084  0.5487
   63MOL    H1831142   3.306   0.015   6.726  0.5841 -1.9331  1.6313
   63MOL    H1931143   3.514   7.573   6.955  1.0990  1.4752 -1.0277
   63MOL    H2031144   3.479   7.723   7.028  2.4913 -1.6554 -0.4181
   63MOL    H2131145   3.292   7.403   6.963  3.3446 -2.1059 -0.7618
   63MOL    H2231146   3.174   7.274   7.160  2.1038 -1.1450  0.6485
   63MOL    H2331147   3.241   7.322   7.380 -0.4280  1.5021  0.3685
   63MOL    H2431148   3.363   7.523   7.441 -0.7616  2.0370 -0.0281
   63MOL    H2531149   3.467   7.666   7.254 -1.0581  0.0152  0.7733
   63MOL    H2631150   3.304   7.684   6.588  0.7199 -0.1131  0.5487
   63MOL    C2731151   3.115   7.850   6.833 -0.3819  0.4385 -1.4448
   63MOL    C2831152   2.996   7.936   6.794  0.5233  0.5502  0.7915
   63MOL    C2931153   2.935   7.896   6.658  0.2455 -0.5613 -0.1312
   63MOL    C3031154   3.035   0.083   6.795  0.2072 -0.2305  0.2926
   63MOL    O3131155   3.127   0.122   6.864 -0.1814  0.1484  0.3533
   63MOL    O3231156   2.966   0.154   6.704 -0.0121  0.9088  0.4804
   63MOL    C3331157   2.973   0.292   6.724 -0.6924 -0.1481  0.0847
   63MOL    C3431158   3.085   0.351   6.636  0.2230  0.0184 -0.2701
   63MOL    C3531159   3.060   0.390   6.502 -0.0397 -0.5054  0.1604
   63MOL    C3631160   3.163   0.446   6.423 -0.5341  0.5457 -0.1797
   63MOL    C3731161   3.294   0.470   6.477 -0.4604  0.4127  0.6032
   63MOL    C3831162   3.319   0.423   6.606 -0.4002  0.1879 -0.2047
   63MOL    C3931163   3.216   0.359   6.681 -0.2645  0.0951  0.0976
   63MOL    H4031164   3.160   7.884   6.927 -1.2447 -0.4345 -0.6932
   63MOL    H4131165   3.066   7.756   6.858 -2.0060  1.3890 -0.9941
   63MOL    H4231166   2.986   7.927   6.567 -1.3765 -1.4191 -1.3518
   63MOL    H4331167   2.841   7.942   6.630  0.3141 -0.5898 -0.4091
   63MOL    H4431168   2.916   7.789   6.654 -1.0636 -0.3626  0.5267
   63MOL    H4531169   2.881   0.337   6.687 -0.1059 -0.3097 -1.6141
   63MOL    H4631170   2.992   0.321   6.827 -1.1955  2.0357 -0.4176
   63MOL    H4731171   2.967   0.371   6.451  1.2515 -1.4253 -1.9466
   63MOL    H4831172   3.144   0.465   6.319 -4.2180 -1.4970  0.0242
   63MOL    H4931173   3.352   0.519   6.401 -0.6165 -0.3847 -0.0377
   63MOL    H5031174   3.416   0.437   6.653 -0.8994  1.8850  0.3635
   63MOL    H5131175   3.237   0.324   6.781 -1.7457 -0.4904  0.2104
   63MOL    C5231176   2.887   7.916   6.908  0.9216  0.1635  0.2593
   63MOL    C5331177   2.766   8.005   6.953 -0.0699 -0.2088  0.4134
   63MOL    C5431178   2.670   0.029   6.833  0.2872 -0.0028  0.5693
   63MOL    C5531179   2.823   0.131   7.014 -0.1001  0.0309 -0.3737
   63MOL    O5631180   2.766   0.240   6.989 -0.5126  0.5562 -0.0409
   63MOL    O5731181   2.925   0.112   7.106  0.3303  0.6471 -0.1163
   63MOL    C5831182   3.003   0.228   7.157 -0.2700 -0.7181  0.1667
   63MOL    C5931183   3.134   0.180   7.217  0.8017  0.3784 -0.6509
   63MOL    C6031184   3.143   0.064   7.296 -0.1774  0.1857 -0.2691
   63MOL    C6131185   3.264   0.020   7.351 -0.2258 -0.2322  0.2275
   63MOL    C6231186   3.380   0.097   7.335  0.7476  0.3680  0.4761
   63MOL    C6331187   3.373   0.208   7.250 -0.3624 -0.9032 -0.4705
   63MOL    C6431188   3.250   0.254   7.193  0.2564  0.2003  0.1895
   63MOL    H6531189   2.943   7.886   6.996  1.0541  0.8867  0.4210
   63MOL    H6631190   2.838   7.825   6.871  1.4365  0.3756 -0.9713
   63MOL    H6731191   2.641   7.938   6.795 -0.2128  0.6825 -0.8453
   63MOL    H6831192   2.728   0.079   6.756 -0.3471  0.2803  0.2740
   63MOL    H6931193   2.592   0.103   6.849  0.6272  0.5766 -0.4264
   63MOL    H7031194   3.014   0.302   7.078 -1.8610 -0.4589  0.1631
   63MOL    H7131195   2.946   0.269   7.240 -2.1696 -2.9135 -0.0071
   63MOL    H7231196   3.052   0.016   7.329 -0.1401  0.5250  0.3399
   63MOL    H7331197   3.263   7.951   7.429 -0.1942  0.2179  0.6694
   63MOL    H7431198   3.470   0.066   7.386 -0.5091 -2.8566  0.8212
   63MOL    H7531199   3.460   0.271   7.236 -1.3910  0.3854 -1.0756
   63MOL    H7631200   3.244   0.345   7.136  2.5895  0.5031  0.3971
   63MOL    C7731201   2.687   7.913   7.055  0.1193  0.2865  1.0455
   63MOL    C7831202   2.550   7.934   7.119 -0.3001  0.0290 -1.0574
   63MOL    C7931203   2.428   7.893   7.030 -0.6157  0.0564 -0.3329
   63MOL    C8031204   2.534   0.071   7.171  0.1367  0.0503 -0.9670
   63MOL    O8131205   2.423   0.129   7.157  0.4409  0.4696  0.1766
   63MOL    O8231206   2.642   0.121   7.235 -0.2846 -0.4973 -0.2513
   63MOL    C8331207   2.632   0.241   7.306  0.3486  0.2886 -0.3757
   63MOL    C8431208   2.752   0.258   7.402 -0.5876  0.7068 -0.3745
   63MOL    C8531209   2.830   0.147   7.446 -0.0175  0.3061 -0.2711
   63MOL    C8631210   2.932   0.169   7.538  0.4671 -0.4005  0.2843
   63MOL    C8731211   2.949   0.290   7.598 -0.9256  0.7779  0.1053
   63MOL    C8831212   2.862   0.398   7.568 -0.4216 -0.3595  0.8096
   63MOL    C8931213   2.767   0.384   7.466 -0.0914 -0.2656 -0.6878
   63MOL    H9031214   2.752   7.915   7.143 -1.5322  0.7340  2.2723
   63MOL    H9131215   2.695   7.810   7.021 -0.6497  0.0460  1.5734
   63MOL    H9231216   2.430   7.957   6.941  1.1526 -0.2846 -0.5571
   63MOL    H9331217   2.335   7.917   7.081 -1.8284 -0.6127 -2.1773
   63MOL    H9431218   2.421   7.787   7.008  0.1677 -0.2442  0.8446
   63MOL    H9531219   2.631   0.323   7.233  1.2937  1.1209  0.5226
   63MOL    H9631220   2.541   0.242   7.367 -1.1030  2.3225 -2.4665
   63MOL    H9731221   2.814   0.048   7.408 -1.4151  0.5121 -0.2601
   63MOL    H9831222   2.986   0.081   7.569 -0.1717 -1.0682 -0.5006
   63MOL    H9931223   3.017   0.304   7.680  0.2491  0.5039 -0.8125
   63MOL   H10031224   2.866   0.492   7.621  0.0471  0.6887 -1.0392
   63MOL   H10131225   2.693   0.459   7.442 -1.1433 -1.6170 -1.7210
   63MOL   C10231226   2.552   7.847   7.252 -0.3068  0.9652  0.1248
   63MOL   C10331227   2.436   7.821   7.365  0.3146  0.0104 -0.0604
   63MOL   C10431228   2.400   7.959   7.420 -0.2941 -0.1092 -0.2405
   63MOL   C10531229   2.524   7.753   7.475 -0.3108  0.1099 -0.9966
   63MOL   O10631230   2.546   7.813   7.583 -0.1869  0.1976  0.1983
   63MOL   O10731231   2.582   7.638   7.435  0.5697 -0.2829  0.1307
   63MOL   C10831232   2.689   7.580   7.496 -0.6323  0.7087 -0.4287
   63MOL   C10931233   2.817   7.615   7.418 -0.1317  0.5388  0.2191
   63MOL   C11031234   2.851   7.559   7.289 -0.3470  0.3008 -0.4038
   63MOL   C11131235   2.972   7.598   7.226 -0.0769 -0.8500 -0.1248
   63MOL   C11231236   3.060   7.692   7.292 -0.2658  1.0230  0.1312
   63MOL   C11331237   3.027   7.743   7.418  0.1886  0.5698 -0.5810
   63MOL   C11431238   2.908   7.700   7.483 -0.4693 -0.0543  1.1824
   63MOL   H11531239   2.644   7.867   7.307  0.7957  0.1500 -1.4049
   63MOL   H11631240   2.562   7.748   7.207 -3.3579 -0.2760  1.9331
   63MOL   H11731241   2.335   8.006   7.346  0.2516 -1.5084 -1.6379
   63MOL   H11831242   2.488   0.013   7.435 -0.1344 -0.5727  0.7461
   63MOL   H11931243   2.340   7.966   7.511  0.8994  4.4052  0.3025
   63MOL   H12031244   2.694   7.615   7.599  0.6981  1.3493 -0.7007
   63MOL   H12131245   2.678   7.471   7.501  2.9002  0.2996 -0.7106
   63MOL   H12231246   2.787   7.486   7.242 -0.2279  1.1529 -1.9187
   63MOL   H12331247   3.002   7.560   7.130  1.6390  0.4904 -0.1515
   63MOL   H12431248   3.150   7.728   7.243 -1.0766  0.1232 -2.1175
   63MOL   H12531249   3.092   7.818   7.462 -0.2647 -0.6904  2.3612
   63MOL   H12631250   2.877   7.738   7.579 -1.5490  1.7687  0.1577
   63MOL   C12731251   2.313   7.744   7.307 -0.4644  0.1240 -0.0671
   63MOL   C12831252   2.206   7.672   7.399  0.5223 -0.0465  0.3645
   63MOL   C12931253   2.159   7.774   7.509  0.2864  0.3640  0.7895
   63MOL   C13031254   2.278   7.551   7.459  0.1597  0.6782  0.2406
   63MOL   O13131255   2.333   7.470   7.388 -0.0551 -0.4403  0.4301
   63MOL   O13231256   2.292   7.549   7.596  0.2322  0.6003  0.3026
   63MOL   C13331257   2.388   7.470   7.653 -0.2865 -0.5261  0.4534
   63MOL   C13431258   2.329   7.335   7.704 -0.7863 -0.5483 -0.5380
   63MOL   C13531259   2.309   7.226   7.616  0.3761 -0.0723  0.5889
   63MOL   C13631260   2.275   7.101   7.667 -0.4863  0.2125 -0.5627
   63MOL   C13731261   2.245   7.084   7.802  0.7166  0.3857  0.0806
   63MOL   C13831262   2.262   7.188   7.888 -0.7091 -0.3928 -0.8170
   63MOL   C13931263   2.314   7.312   7.843 -0.2549 -0.4851 -0.5079
   63MOL   H14031264   2.359   7.673   7.238  1.9624 -0.0186  1.6235
   63MOL   H14131265   2.254   7.820   7.257  0.7403  0.5247 -0.9191
   63MOL   H14231266   2.077   7.740   7.572 -2.9020  1.4052 -2.6710
   63MOL   H14331267   2.115   7.866   7.470 -0.6853 -0.8588 -1.0227
   63MOL   H14431268   2.232   7.808   7.583  3.1970 -1.5134 -1.1213
   63MOL   H14531269   2.477   7.451   7.593 -0.1828  2.6438 -0.4870
   63MOL   H14631270   2.424   7.526   7.740 -0.1410  0.1646 -0.0497
   63MOL   H14731271   2.338   7.244   7.514  2.3862  0.8717  1.2974
   63MOL   H14831272   2.256   7.014   7.605  0.4902 -0.9607  0.7444
   63MOL   H14931273   2.199   6.992   7.834  1.1390  0.2032  0.1608
   63MOL   H15031274   2.241   7.174   7.993  0.6100 -0.3411 -0.5416
   63MOL   H15131275   2.327   7.393   7.913 -0.6088 -0.3790 -0.5645
   63MOL   C15231276   2.093   7.628   7.300  0.1563 -0.1174 -0.4546
   63MOL   C15331277   1.976   7.534   7.347  0.6080 -0.2476  0.4643
   63MOL   C15431278   2.009   7.385   7.297  0.3601  0.2968  1.1056
   63MOL   C15531279   1.853   7.578   7.266  0.2627  0.1986  0.0292
   63MOL   O15631280   1.758   7.631   7.319 -0.4471  0.6522  0.3961
   63MOL   O15731281   1.863   7.548   7.140  0.3057 -0.4581  0.1893
   63MOL   C15831282   1.762   7.579   7.051  0.4644 -0.5164 -0.3093
   63MOL   C15931283   1.714   7.454   6.987 -0.3076 -0.4157 -0.0963
   63MOL   C16031284   1.633   7.369   7.062  0.2993  0.7324 -0.9866
   63MOL   C16131285   1.583   7.246   7.012 -0.0982 -0.0465  1.1401
   63MOL   C16231286   1.621   7.223   6.874  0.2680 -0.5918  0.2205
   63MOL   C16331287   1.711   7.298   6.804 -0.0273 -1.0980  0.2241
   63MOL   C16431288   1.755   7.418   6.858  0.2422 -0.5524  0.1161
   63MOL   H16531289   2.131   7.581   7.209  0.7147 -0.0241 -0.2702
   63MOL   H16631290   2.051   7.720   7.260 -2.4400 -0.9605  0.2600
   63MOL   H16731291   2.098   7.356   7.354  1.2976  0.3366 -0.3062
   63MOL   H16831292   2.032   7.374   7.191 -2.2900  2.2052  0.2804
   63MOL   H16931293   1.925   7.317   7.313 -0.4518  1.6079  2.5998
   63MOL   H17031294   1.678   7.640   7.083 -0.0569 -1.5344  0.2547
   63MOL   H17131295   1.804   7.635   6.967 -0.8675 -0.2589 -0.8148
   63MOL   H17231296   1.605   7.396   7.163 -0.1633 -0.6940 -0.7316
   63MOL   H17331297   1.525   7.174   7.067  1.3091 -1.2030  1.1309
   63MOL   H17431298   1.590   7.132   6.825 -0.9715 -1.0535  1.8000
   63MOL   H17531299   1.725   7.272   6.700 -4.0735  1.1028 -0.9738
   63MOL   H17631300   1.819   7.479   6.796  2.6369 -1.4861  1.5908
   63MOL   C17731301   1.938   7.537   7.497 -0.9394 -0.3810 -0.0614
   63MOL   C17831302   1.858   7.430   7.586 -0.2501  0.1782 -0.0328
   63MOL   C17931303   1.950   7.302   7.604  0.9258 -0.4395 -0.1653
   63MOL   C18031304   1.725   7.400   7.514 -0.9637  0.1724 -0.2091
   63MOL   O18131305   1.706   7.292   7.452 -0.5342  0.3677 -0.3322
   63MOL   O18231306   1.630   7.484   7.532 -0.0681  0.1370 -0.0136
   63MOL   C18331307   1.503   7.454   7.480  0.1361  0.5514 -0.2004
   63MOL   C18431308   1.408   7.570   7.484 -0.1005  0.2712  0.2855
   63MOL   C18531309   1.445   7.705   7.446  0.1946 -0.2507 -0.1045
   63MOL   C18631310   1.352   7.806   7.436 -0.2414  0.3059 -0.6515
   63MOL   C18731311   1.219   7.780   7.471  0.0110 -0.8880 -0.6512
   63MOL   C18831312   1.177   7.648   7.514  0.0376  0.3456  0.1321
   63MOL   C18931313   1.269   7.537   7.518 -0.1174 -0.5778  0.5279
   63MOL   H19031314   1.894   7.631   7.529  0.3362  0.0757  0.3826
   63MOL   H19131315   2.034   7.534   7.550 -0.1998  0.1917 -1.3380
   63MOL   H19231316   1.954   7.233   7.520  1.6355 -1.4429  0.6846
   63MOL   H19331317   1.914   7.248   7.692 -0.6317 -0.1368 -0.6127
   63MOL   H19431318   2.053   7.334   7.621  1.3410 -2.2216  0.7359
   63MOL   H19531319   1.504   7.419   7.377  1.4314  0.1803 -0.0701
   63MOL   H19631320   1.463   7.375   7.545 -1.2775  0.3274 -1.3163
   63MOL   H19731321   1.544   7.731   7.411  0.8052 -1.6339  0.5322
   63MOL   H19831322   1.368   7.908   7.406 -0.8304  0.1689 -1.4418
   63MOL   H19931323   1.145   7.857   7.456 -0.3531 -0.6196  2.1437
   63MOL   H20031324   1.072   7.623   7.521  0.0393 -0.1237 -1.3445
   63MOL   H20131325   1.243   7.435   7.541 -0.2796  0.1434  3.6514
   63MOL   C20231326   1.825   7.502   7.728 -0.0504  0.6317 -0.2777
   63MOL   C20331327   1.739   7.449   7.853  0.0653  0.3859  0.1220
   63MOL   C20431328   1.778   7.549   7.961 -0.2629 -0.1342  0.5066
   63MOL   C20531329   1.783   7.311   7.902 -0.7659 -0.2392  0.7377
   63MOL   O20631330   1.739   7.204   7.859 -0.3210  0.3400  0.1001
   63MOL   O20731331   1.884   7.315   7.987  0.0658 -0.3500 -0.3419
   63MOL   C20831332   1.918   7.207   0.069  0.5257  0.5333  0.4360
   63MOL   C20931333   1.892   7.243   0.214 -0.5714 -0.5667  0.1818
   63MOL   C21031334   1.789   7.180   0.282 -0.3420 -0.2507  0.7355
   63MOL   C21131335   1.757   7.216   0.416  0.0021 -0.4858 -0.3660
   63MOL   C21231336   1.823   7.327   0.474 -0.1585  0.3473  0.4677
   63MOL   C21331337   1.928   7.392   0.401  0.4217  0.4623  0.3013
   63MOL   C21431338   1.964   7.350   0.272 -0.2258 -0.7686  0.0028
   63MOL   H21531339   1.771   7.592   7.699 -0.9818  0.9038  2.1942
   63MOL   H21631340   1.922   7.536   7.764  0.3316  0.1273 -0.8196
   63MOL   H21731341   1.739   7.651   7.966  0.4422  0.2026 -0.9407
   63MOL   H21831342   1.885   7.557   7.980  0.0429 -2.5318 -0.1452
   63MOL   H21931343   1.747   7.517   0.054  0.4102 -0.0784  0.7390
   63MOL   H22031344   1.861   7.118   0.043 -1.3310  0.9994  2.7542
   63MOL   H22131345   2.024   7.183   0.059  0.2029 -0.9491  0.4238
   63MOL   H22231346   1.729   7.105   0.232 -0.0076  0.2426 -0.4222
   63MOL   H22331347   1.663   7.177   0.453  0.0425  0.2644  0.5427
   63MOL   H22431348   1.778   7.375   0.560  0.1257  1.7067 -0.1323
   63MOL   H22531349   1.974   7.483   0.434 -0.7579  0.8802  0.8280
   63MOL   H22631350   2.043   7.396   0.214  1.1165 -0.4342  2.0346
   63MOL   C22731351   1.586   7.457   7.823 -0.2360 -0.1959 -0.1591
   63MOL   C22831352   1.474   7.463   7.934  0.7577 -0.2652 -0.1403
   63MOL   C22931353   1.456   7.603   7.994 -0.0875  0.3313  0.2135
   63MOL   C23031354   1.495   7.350   0.032 -0.1120  0.7000 -0.2591
   63MOL   O23131355   1.499   7.380   0.157  0.0151  0.4228  0.3965
   63MOL   O23231356   1.513   7.220   7.993 -0.4065  0.4430 -0.1900
   63MOL   C23331357   1.516   7.104   0.067 -0.2123 -0.2498  0.1408
   63MOL   C23431358   1.417   7.004   0.004  0.3861  0.1448  0.6152
   63MOL   C23531359   1.302   6.985   0.076  0.2750  0.1352 -0.5454
   63MOL   C23631360   1.210   6.891   0.018  0.0377 -0.3269  0.0466
   63MOL   C23731361   1.236   6.823   7.908  0.0792  0.0699 -0.2935
   63MOL   C23831362   1.360   6.846   7.841  0.5370  0.1457  0.1890
   63MOL   C23931363   1.452   6.933   7.897  0.6569 -0.1513 -0.8129
   63MOL   H24031364   1.566   7.369   7.762  0.5504 -1.5077  1.4239
   63MOL   H24131365   1.572   7.546   7.762  1.6889 -0.5974 -1.2336
   63MOL   H24231366   1.356   7.616   0.028 -0.1451  2.4290 -0.5251
   63MOL   H24331367   1.455   7.681   7.917 -0.5358 -2.8117 -3.0829
   63MOL   H24431368   1.531   7.612   0.066  1.9031 -1.7026 -1.3789
   63MOL   H24531369   1.617   7.065   0.075 -0.0024 -0.6870 -3.8153
   63MOL   H24631370   1.478   7.117   0.169  0.7719  1.6161  0.2915
   63MOL   H24731371   1.278   7.044   0.163 -0.2396  1.4673 -1.5688
   63MOL   H24831372   1.121   6.889   0.080 -2.2402  2.1887 -2.9917
   63MOL   H24931373   1.176   6.741   7.872 -0.8111  1.0905 -1.1581
   63MOL   H25031374   1.389   6.785   7.757  0.7039  0.8003 -0.2289
   63MOL   H25131375   1.550   6.949   7.855  0.3552  3.6762 -0.3082
   63MOL   C25231376   1.347   7.411   7.856  0.4326 -0.4687  0.6260
   63MOL   C25331377   1.196   7.416   7.914  0.2927  0.2210  0.5009
   63MOL   C25431378   1.188   7.375   0.055 -0.1226 -0.7905  0.6445
   63MOL   C25531379   1.114   7.311   7.835 -0.0684  0.4394  1.0025
   63MOL   O25631380   1.128   7.287   7.712  0.3740 -0.2172 -0.5943
   63MOL   O25731381   1.024   7.248   7.913 -0.1032  0.3966  0.1051
   63MOL   C25831382   0.956   7.130   7.867 -0.5097 -0.0716  0.5539
   63MOL   C25931383   0.859   7.060   7.963  0.3178  0.0327 -0.5973
   63MOL   C26031384   0.814   6.933   7.941 -1.0783  0.8803  0.3449
   63MOL   C26131385   0.714   6.876   0.016 -0.2507  0.3463  0.7265
   63MOL   C26231386   0.654   6.952   0.123 -0.5703  0.1284  0.7179
   63MOL   C26331387   0.696   7.077   0.147 -0.4612 -0.0319 -0.1063
   63MOL   C26431388   0.799   7.138   0.066  0.0433  0.3851  0.0355
   63MOL   H26531389   1.369   7.311   7.818 -0.7761 -0.2334 -0.6927
   63MOL   H26631390   1.342   7.458   7.758  1.4518 -2.0697 -0.2312
   63MOL   H26731391   1.225   7.273   0.057  0.7342 -0.4849  0.7136
   63MOL   H26831392   1.086   7.359   0.090 -1.3424  1.1882 -1.7681
   63MOL   H26931393   1.240   7.451   0.114  2.5606 -1.1106 -1.2031
   63MOL   H27031394   0.894   7.151   7.780  0.1579  0.1795  0.1346
   63MOL   H27131395   1.037   7.066   7.831  0.9501  2.3380 -0.5879
   63MOL   H27231396   0.853   6.877   7.857 -0.2252  0.2796  1.1268
   63MOL   H27331397   0.691   6.771   0.001  0.1184  0.1924  1.2091
   63MOL   H27431398   0.579   6.904   0.185  0.8348 -0.6395  1.8698
   63MOL   H27531399   0.650   7.138   0.223  1.9589  2.4723 -0.5604
   63MOL   H27631400   0.819   7.243   0.080  1.1862  0.6194 -2.9050
   63MOL   C27731401   1.141   7.565   7.876  0.4140 -0.1231 -0.9761
   63MOL   C27831402   1.038   7.644   7.965  0.5369 -0.3095 -0.8403
   63MOL   C27931403   1.087   7.684   0.099  0.0227  0.5864  0.5793
   63MOL   C28031404   0.911   7.558   7.988  0.6530  1.0485  0.5916
   63MOL   O28131405   0.865   7.539   0.097  0.4996  0.0374  0.2164
   63MOL   O28231406   0.850   7.516   7.879  0.0800 -0.2201 -0.0608
   63MOL   C28331407   0.726   7.449   7.882 -0.1672 -0.3253 -0.2782
   63MOL   C28431408   0.682   7.419   7.733  0.0422  0.2801 -0.1238
   63MOL   C28531409   0.663   7.282   7.701 -0.5047  0.5235 -0.2944
   63MOL   C28631410   0.654   7.238   7.572 -0.4528 -0.7589 -0.9463
   63MOL   C28731411   0.644   7.331   7.472 -0.2981 -1.1589  0.1528
   63MOL   C28831412   0.670   7.465   7.495  0.2895 -0.4139  0.3449
   63MOL   C28931413   0.693   7.511   7.628 -0.2524  0.4292 -1.0266
   63MOL   H29031414   1.102   7.563   7.774 -0.3125 -3.3896 -0.6966
   63MOL   H29131415   1.229   7.630   7.874 -0.6536  1.4744  1.1960
   63MOL   H29231416   1.179   7.742   0.102  1.0653 -1.0326  0.7021
   63MOL   H29331417   1.098   7.596   0.162 -1.1974 -0.6379 -0.8614
   63MOL   H29431418   1.013   7.751   0.142  1.0164  2.0827 -0.0038
   63MOL   H29531419   0.737   7.355   7.936 -0.2194  0.1232  0.5313
   63MOL   H29631420   0.643   7.496   7.935  0.2089 -1.8969  1.7419
   63MOL   H29731421   0.659   7.215   7.786 -1.1642  1.9546  0.8213
   63MOL   H29831422   0.646   7.131   7.564  1.4221 -0.9130 -0.9709
   63MOL   H29931423   0.637   7.303   7.368  0.2089 -2.8907  0.5872
   63MOL   H30031424   0.679   7.531   7.410 -1.2836 -0.7828 -0.0997
   63MOL   H30131425   0.712   7.614   7.654  1.3605  0.0427 -0.6356
   63MOL   C30231426   0.971   7.764   7.886 -0.3971 -0.0434 -0.2473
   63MOL   C30331427   1.028   7.911   7.867  0.2406 -0.4898 -0.9394
   63MOL   C30431428   1.021   7.984   8.005  0.3113  0.4016  0.2415
   63MOL   C30531429   0.931   7.987   7.775  0.7455  0.4122 -0.5332
   63MOL   O30631430   0.862   0.074   7.817  0.1716 -0.4299  0.1467
   63MOL   O30731431   0.924   7.944   7.647 -0.0802  0.1506 -0.7675
   63MOL   C30831432   0.856   0.015   7.553 -0.6416  0.1696  0.4272
   63MOL   C30931433   0.885   7.974   7.405  0.1876  0.1161  0.4885
   63MOL   C31031434   0.905   0.054   7.295  0.1988 -0.4522  0.4987
   63MOL   C31131435   0.952   0.001   7.169 -0.2189 -0.4651  0.3602
   63MOL   C31231436   0.963   7.870   7.149 -0.4458  0.0136 -0.1265
   63MOL   C31331437   0.938   7.782   7.254 -0.4954  0.1232  0.1234
   63MOL   C31431438   0.887   7.833   7.373  0.4755  0.3790  0.2937
   63MOL   H31531439   0.879   7.786   7.941  0.7679  0.4380  1.5706
   63MOL   H31631440   0.964   7.713   7.790 -0.0737 -0.0710 -0.2590
   63MOL   H31731441   1.004   0.085   7.998 -0.1643  0.3024 -0.1776
   63MOL   H31831442   1.115   7.964   0.049 -0.2807 -1.8304  0.4811
   63MOL   H31931443   0.940   7.958   0.066  1.2747  0.8742  1.5947
   63MOL   H32031444   0.751   0.022   7.581 -0.2563 -0.3108  2.0625
   63MOL   H32131445   0.898   0.116   7.553  0.5740 -0.3111 -1.9461
   63MOL   H32231446   0.891   0.159   7.313  1.6500 -0.4569  1.6715
   63MOL   H32331447   0.976   0.062   7.083  1.4166  0.0598  1.1639
   63MOL   H32431448   0.999   7.843   7.050  0.5344  1.2865 -0.1344
   63MOL   H32531449   0.977   7.681   7.243  2.0693  0.9169  1.6115
   63MOL   H32631450   0.871   7.767   7.457  0.6268  0.3101  0.2668
   63MOL   C32731451   1.174   7.907   7.823  0.1439  0.1355 -0.1674
   63MOL   C32831452   1.265   0.027   7.803  0.1486 -0.4010  0.0861
   63MOL   C32931453   1.284   0.111   7.930  0.4622 -0.4779 -0.2192
   63MOL   C33031454   1.217   0.112   7.685 -0.3512 -0.3977 -0.5103
   63MOL   O33131455   1.235   0.069   7.569 -0.5310  0.3116 -0.1166
   63MOL   O33231456   1.160   0.226   7.717  0.2556  0.5445 -0.1275
   63MOL   C33331457   1.099   0.309   7.614 -1.0536  0.2547 -0.1164
   63MOL   C33431458   0.990   0.395   7.669 -1.2810  0.3420  0.6443
   63MOL   C33531459   0.901   0.463   7.586 -0.1512 -0.1890 -0.5075
   63MOL   C33631460   0.803   0.545   7.637  0.4327  0.4659  0.6301
   63MOL   C33731461   0.787   0.558   7.774  0.5603 -0.6019 -0.1394
   63MOL   C33831462   0.868   0.486   7.860  0.8577 -0.0998 -0.1808
   63MOL   C33931463   0.970   0.400   7.810  0.7638  0.2240  0.0770
   63MOL   H34031464   1.166   7.855   7.728  1.3257  0.4146 -0.4245
   63MOL   H34131465   1.224   7.839   7.892  2.0245  3.4118  1.8127
   63MOL   H34231466   1.348   0.194   7.901 -1.1311  1.5552  1.8496
   63MOL   H34331467   1.336   0.072   0.010  1.2908  0.9348 -0.0577
   63MOL   H34431468   1.192   0.160   7.963 -0.2788 -1.8591 -0.2101
   63MOL   H34531469   1.177   0.375   7.574  0.6843 -1.6749  0.0428
   63MOL   H34631470   1.061   0.248   7.532 -2.0465 -1.4318  1.5806
   63MOL   H34731471   0.916   0.457   7.479  0.6014  1.4789 -0.5083
   63MOL   H34831472   0.739   0.609   7.578  0.6724  0.1105 -0.0259
   63MOL   H34931473   0.718   0.633   7.811  2.9644  2.1898 -1.1343
   63MOL   H35031474   0.854   0.490   7.967 -1.1300  1.0756 -0.4657
   63MOL   H35131475   1.028   0.344   7.881 -1.7847 -0.2725  1.8147
   63MOL   C35231476   1.406   7.968   7.774 -0.6512 -0.1491  0.4918
   63MOL   C35331477   1.547   0.030   7.757  0.2270 -0.3850  0.3253
   63MOL   C35431478   1.636   7.914   7.721  1.5430 -0.2517 -0.0194
   63MOL   C35531479   1.591   0.083   7.897 -0.4684  0.0896 -0.2276
   63MOL   O35631480   1.606   0.202   7.926 -0.0995  0.2188  0.6488
   63MOL   O35731481   1.594   7.993   7.990 -0.4677  0.2128  0.5065
   63MOL   C35831482   1.656   0.015   0.105 -0.4712  0.0363 -0.0110
   63MOL   C35931483   1.687   7.903   0.188 -0.1324  0.1288  0.1227
   63MOL   C36031484   1.584   7.834   0.260  0.5925  0.0207 -0.2710
   63MOL   C36131485   1.613   7.718   0.333 -0.5522 -0.6787 -0.6658
   63MOL   C36231486   1.751   7.683   0.345 -0.2249  0.0342  0.2225
   63MOL   C36331487   1.856   7.761   0.285  0.1522  0.3506 -0.3352
   63MOL   C36431488   1.822   7.865   0.198 -0.0350  0.3347  0.3902
   63MOL   H36531489   1.382   7.917   7.680 -1.0260  1.4155 -0.2867
   63MOL   H36631490   1.422   7.881   7.837 -3.3200 -2.4284 -1.8174
   63MOL   H36731491   1.617   7.878   7.620 -0.1041  0.4941 -0.0059
   63MOL   H36831492   1.621   7.831   7.791 -0.8787  0.7848  0.7549
   63MOL   H36931493   1.743   7.934   7.717  1.4643  0.1980  0.1278
   63MOL   H37031494   1.738   0.087   0.101  0.8057 -1.3421  0.7915
   63MOL   H37131495   1.578   0.070   0.158  0.5044 -1.3152  2.8757
   63MOL   H37231496   1.478   7.856   0.253  0.3768 -1.1239 -0.7299
   63MOL   H37331497   1.536   7.652   0.370  0.3910 -1.3429  0.1342
   63MOL   H37431498   1.774   7.595   0.404  2.7532  1.7622  1.7905
   63MOL   H37531499   1.959   7.732   0.301  0.1096  1.7787  2.8436
   63MOL   H37631500   1.900   7.914   0.143 -1.5230  1.9587 -0.3333
   63MOL   C37731501   1.548   0.140   7.635  0.0695 -1.3218  1.0469
   63MOL   C37831502   1.674   0.194   7.567 -0.1717 -0.3693  0.6005
   63MOL   C37931503   1.628   0.311   7.481 -0.4833  0.4857  0.1752
   63MOL   C38031504   1.731   0.080   7.477 -0.3727 -0.0689 -0.4502
   63MOL   O38131505   1.821   0.006   7.512 -0.0784 -0.5617 -0.2316
   63MOL   O38231506   1.676   0.070   7.358 -0.3785  0.2547  0.5079
   63MOL   C38331507   1.683   7.957   7.276  0.0556 -0.7748  0.5188
   63MOL   C38431508   1.807   7.949   7.177  0.1451  0.5060 -0.1622
   63MOL   C38531509   1.938   7.981   7.225 -0.0005 -0.4033  1.4631
   63MOL   C38631510   2.049   7.976   7.136  0.0295 -0.2731  0.1700
   63MOL   C38731511   2.029   7.929   7.001 -0.4691  0.5777 -0.2880
   63MOL   C38831512   1.906   7.890   6.954  0.0919 -0.0040 -0.1165
   63MOL   C38931513   1.797   7.897   7.048  0.0468  0.0472  1.1807
   63MOL   H39031514   1.483   0.221   7.667  0.6973 -1.1118  1.8077
   63MOL   H39131515   1.488   0.098   7.554  0.1794 -0.8611  0.7242
   63MOL   H39231516   1.705   0.334   7.407 -0.1906 -1.4412 -0.1428
   63MOL   H39331517   1.612   0.394   7.550 -1.0170 -0.1729  0.8568
   63MOL   H39431518   1.535   0.294   7.427  0.7877 -0.9010 -1.6619
   63MOL   H39531519   1.681   7.863   7.332  1.4602 -1.0942  0.0561
   63MOL   H39631520   1.595   7.956   7.212  0.3246 -1.3136  0.1561
   63MOL   H39731521   1.969   0.006   7.323 -0.6681  2.0507  0.9174
   63MOL   H39831522   2.144   0.004   7.174  0.1772  0.1699 -0.5783
   63MOL   H39931523   2.109   7.905   6.933 -1.6276 -0.8402 -1.1716
   63MOL   H40031524   1.887   7.836   6.863 -2.2018  1.4964 -0.5877
   63MOL   H40131525   1.701   7.865   7.010  0.4683 -1.2743  1.2125
   63MOL   C40231526   1.771   0.242   7.675 -0.9179 -0.1272  0.2438
   63MOL   C40331527   1.898   0.340   7.641  0.7961  0.5363  0.4125
   63MOL   C40431528   1.965   0.331   7.780 -0.2045  0.6185 -0.0637
   63MOL   C40531529   1.850   0.481   7.617  0.2497 -0.7859  0.1658
   63MOL   O40631530   1.858   0.527   7.502 -0.2528 -0.2250  0.2221
   63MOL   O40731531   1.793   0.537   7.733 -0.2676 -0.4081  0.0149
   63MOL   C40831532   1.719   0.657   7.721  0.5105  0.8523 -0.0864
   63MOL   C40931533   1.572   0.623   7.708 -0.2059 -0.1055  0.4308
   63MOL   C41031534   1.504   0.672   7.594 -0.8484  0.4548  0.1235
   63MOL   C41131535   1.367   0.654   7.581 -0.3283  0.5148  0.1993
   63MOL   C41231536   1.301   0.588   7.687 -0.0160 -0.1971 -0.5322
   63MOL   C41331537   1.367   0.520   7.788 -1.0110  0.0397 -0.2391
   63MOL   C41431538   1.505   0.546   7.805  0.1805  0.1557  0.0353
   63MOL   H41531539   1.804   0.152   7.728  0.2558  0.1225 -0.0469
   63MOL   H41631540   1.709   0.303   7.740  0.1121  2.5561 -1.2015
   63MOL   H41731541   2.013   0.234   7.783 -1.2069  0.0696 -1.3751
   63MOL   H41831542   1.894   0.336   7.863 -0.6847  1.3763 -0.5147
   63MOL   H41931543   2.035   0.412   7.804  1.0716 -0.2211 -0.9183
   63MOL   H42031544   1.738   0.722   7.806 -1.6987 -0.4068  1.3894
   63MOL   H42131545   1.754   0.713   7.634 -0.5331 -0.9016 -1.6667
   63MOL   H42231546   1.565   0.723   7.520 -0.3907 -3.6928 -2.5274
   63MOL   H42331547   1.308   0.699   7.503 -0.7846  0.1809  0.3507
   63MOL   H42431548   1.194   0.577   7.674 -0.1434  0.8406 -0.4570
   63MOL   H42531549   1.305   0.464   7.857 -1.4109  1.4079  0.5398
   63MOL   H42631550   1.562   0.506   7.887  0.3858 -0.6380 -0.4900
   63MOL   C42731551   2.003   0.284   7.533  0.5742  0.0037  0.4761
   63MOL   C42831552   2.148   0.330   7.515 -0.4783 -0.8494 -0.2515
   63MOL   C42931553   2.194   0.253   7.389  0.0321 -0.6717 -0.5613
   63MOL   C43031554   2.233   0.291   7.634 -0.1062  0.2960  0.2292
   63MOL   O43131555   2.312   0.360   7.694 -0.3881 -0.6419  0.0261
   63MOL   O43231556   2.213   0.163   7.660 -0.1596 -0.2175  0.3027
   63MOL   C43331557   2.284   0.099   7.766 -0.3809 -0.2216  0.2022
   63MOL   C43431558   2.229   7.968   7.807  0.3740 -0.8582 -0.0667
   63MOL   C43531559   2.314   7.866   7.850 -0.0264  0.9306 -0.2881
   63MOL   C43631560   2.259   7.749   7.898  0.3702 -0.9920  0.0526
   63MOL   C43731561   2.119   7.728   7.904  0.8307  0.1258  0.1611
   63MOL   C43831562   2.033   7.831   7.859 -0.7135  0.3124 -0.5256
   63MOL   C43931563   2.090   7.953   7.806  0.8487 -0.4232  0.6084
   63MOL   H44031564   1.960   0.288   7.433  3.3784 -1.4826 -0.8243
   63MOL   H44131565   2.000   0.176   7.546 -0.1272 -0.0003  0.3261
   63MOL   H44231566   2.158   0.150   7.386  1.1847 -1.1593  1.2794
   63MOL   H44331567   2.301   0.232   7.391  0.3546  0.7732 -1.7499
   63MOL   H44431568   2.171   0.304   7.296  0.4958 -1.4386 -1.1008
   63MOL   H44531569   2.381   0.078   7.722  0.0234  0.3618  0.8026
   63MOL   H44631570   2.288   0.160   7.856 -1.3645 -0.7660  0.6216
   63MOL   H44731571   2.422   7.871   7.846  0.0484  0.2588  0.7239
   63MOL   H44831572   2.335   7.673   7.913 -1.7417 -2.8308  1.9121
   63MOL   H44931573   2.083   7.635   7.946  3.6482 -1.2521 -0.3735
   63MOL   H45031574   1.926   7.817   7.852 -0.8030  1.6777 -2.3946
   63MOL   H45131575   2.025   0.025   7.772  0.3770 -1.8339 -1.8814
   63MOL   C45231576   2.147   0.485   7.481  0.3115  0.3538  0.0415
   63MOL   C45331577   2.285   0.556   7.436 -0.0148  0.3403 -0.5995
   63MOL   C45431578   2.406   0.462   7.407 -0.0936 -0.5396  0.3295
   63MOL   C45531579   2.325   0.652   7.554  0.8667 -0.1971 -0.5337
   63MOL   O45631580   2.436   0.640   7.608 -0.1074  0.3178  0.0212
   63MOL   O45731581   2.232   0.742   7.595 -0.4820 -0.5760 -0.1691
   63MOL   C45831582   2.248   0.815   7.711  0.3132  0.2623  0.4863
   63MOL   C45931583   2.191   0.758   7.836  0.6092  0.1846  0.8088
   63MOL   C46031584   2.273   0.687   7.927 -0.1784  0.6023  0.1226
   63MOL   C46131585   2.216   0.627   0.037 -0.2600  0.4558 -0.0947
   63MOL   C46231586   2.082   0.663   0.066 -0.0792 -0.3107 -0.1042
   63MOL   C46331587   2.000   0.727   7.973  0.1747 -0.2099 -0.4338
   63MOL   C46431588   2.053   0.769   7.852 -0.5662 -0.2820 -0.1506
   63MOL   H46531589   2.107   0.536   7.568  0.7164 -0.4335  0.6914
   63MOL   H46631590   2.071   0.497   7.404 -0.3306 -0.2353  0.5867
   63MOL   H46731591   2.413   0.381   7.479  0.1630  0.1484  1.0757
   63MOL   H46831592   2.498   0.518   7.398  0.8854 -1.9953  1.0843
   63MOL   H46931593   2.384   0.416   7.310 -0.4705  2.6210 -1.1412
   63MOL   H47031594   2.350   0.849   7.730  0.0442  1.7784 -0.6624
   63MOL   H47131595   2.206   0.914   7.690 -1.5151 -0.9289 -1.6626
   63MOL   H47231596   2.377   0.665   7.906  0.1644  1.8749  0.4194
   63MOL   H47331597   2.270   0.568   0.110 -2.9550  0.1391  1.7327
   63MOL   H47431598   2.046   0.601   0.147  4.0503 -0.6895  1.5557
   63MOL   H47531599   1.892   0.723   7.983  0.1030 -1.7974 -1.6579
   63MOL   H47631600   1.993   0.809   7.771  1.1085  0.3331 -1.1158
   63MOL   C47731601   2.248   0.633   7.307 -0.7853  0.2532 -0.1031
   63MOL   C47831602   2.366   0.715   7.236 -0.1047  1.1732 -0.3673
   63MOL   C47931603   2.299   0.824   7.153 -1.0961  0.1700  0.0470
   63MOL   C48031604   2.447   0.626   7.147 -0.0701  0.2519  0.4221
   63MOL   O48131605   2.394   0.552   7.060 -0.0481  0.2017 -0.1361
   63MOL   O48231606   2.580   0.646   7.161 -0.1966  0.2321 -0.3256
   63MOL   C48331607   2.654   0.587   7.058 -0.2835  0.2181  0.3094
   63MOL   C48431608   2.802   0.588   7.073 -0.3808  0.2973 -0.4973
   63MOL   C48531609   2.854   0.631   7.199 -0.5810  0.0442 -0.3672
   63MOL   C48631610   2.993   0.642   7.215 -0.3059 -0.3316  0.7909
   63MOL   C48731611   3.079   0.592   7.108  0.0583 -0.4455 -0.5303
   63MOL   C48831612   3.022   0.557   6.986  0.2481 -0.5056 -0.2547
   63MOL   C48931613   2.885   0.551   6.970 -0.0032  0.0797  0.5400
   63MOL   H49031614   2.170   0.703   7.334  1.7908  3.7368 -1.3015
   63MOL   H49131615   2.191   0.566   7.243  0.2427  0.0135 -0.7838
   63MOL   H49231616   2.378   0.883   7.107  0.1250 -0.8909  0.7534
   63MOL   H49331617   2.249   0.896   7.217 -0.4860  1.6360 -1.1049
   63MOL   H49431618   2.233   0.781   7.078 -1.5153  0.8526  0.0220
   63MOL   H49531619   2.648   0.478   7.061  2.2931  0.0396 -0.1703
   63MOL   H49631620   2.628   0.624   6.959 -1.2407 -0.3362  0.3467
   63MOL   H49731621   2.787   0.666   7.276  1.2554  1.7187  0.5136
   63MOL   H49831622   3.033   0.663   7.313  0.1121 -0.2212  0.5964
   63MOL   H49931623   3.187   0.590   7.114  0.1231  3.4559  0.5528
   63MOL   H50031624   3.084   0.521   6.905 -0.5149 -1.9776 -0.1889
   63MOL   H50131625   2.836   0.509   6.883 -2.0361  1.5441  0.9336
   63MOL   H50231626   2.425   0.769   7.310  1.7601 -0.2809 -0.7478
   64MOL     C131627   0.284   6.132   4.465 -0.0874 -0.0693  0.3916
   64MOL     C231628   0.222   5.996   4.435  0.4244 -0.3664  0.0647
   64MOL     C331629   0.301   5.909   4.540 -0.2781 -0.4402  0.0848
   64MOL     C431630   0.270   5.944   4.295 -0.9901  0.1621 -0.0398
   64MOL     O531631   0.342   6.011   4.217 -0.2620  0.1900 -0.3066
   64MOL     O631632   0.208   5.822   4.278  0.0871  0.0511  0.0278
   64MOL     C731633   0.200   5.783   4.149 -0.3848 -0.0552  0.2705
   64MOL     C831634   0.077   5.699   4.131 -0.1428  0.3030  0.2134
   64MOL     C931635   7.971   5.762   4.071  0.2006 -0.3302 -0.0055
   64MOL    C1031636   7.845   5.692   4.057  0.0670  0.0361  0.4323
   64MOL    C1131637   7.824   5.561   4.110 -0.4206 -0.3418 -0.0521
   64MOL    C1231638   7.938   5.503   4.169 -0.2852  1.0331  0.8770
   64MOL    C1331639   0.054   5.567   4.180  0.2595  0.2124  0.3023
   64MOL    H1431640   0.389   6.123   4.492 -0.0830 -0.1257  0.3557
   64MOL    H1531641   0.280   6.198   4.378 -1.2351  0.1343  0.5956
   64MOL    H1631642   0.272   5.934   4.643  2.0079  1.9084  0.2160
   64MOL    H1731643   0.410   5.915   4.538 -0.1617 -2.7717 -2.3197
   64MOL    H1831644   0.271   5.807   4.518 -1.0140 -0.7723  2.4133
   64MOL    H1931645   0.193   5.874   4.090 -1.8064 -0.6123 -0.4327
   64MOL    H2031646   0.290   5.731   4.114 -0.6573 -0.2379 -0.1601
   64MOL    H2131647   7.973   5.866   4.044 -4.2063 -0.4686 -1.2890
   64MOL    H2231648   7.772   5.744   3.996 -1.4622  1.9280  3.7427
   64MOL    H2331649   7.724   5.520   4.104 -0.7802  0.2600  1.4110
   64MOL    H2431650   7.933   5.407   4.218  2.3719  0.7492  0.6343
   64MOL    H2531651   0.144   5.524   4.221 -1.2770  0.5377  4.2550
   64MOL    H2631652   0.239   6.196   4.541  0.7973  1.3428 -0.2462
   64MOL    C2731653   0.067   5.991   4.460 -0.0719 -0.1217 -0.0145
   64MOL    C2831654   7.964   6.079   4.385  0.3699 -0.6958  0.7857
   64MOL    C2931655   0.008   6.135   4.247 -0.1957  0.0893 -0.4314
   64MOL    C3031656   7.936   6.205   4.466  0.1474  0.2629 -0.1125
   64MOL    O3131657   7.987   6.222   4.578  0.2282 -0.1497  0.3319
   64MOL    O3231658   7.858   6.287   4.400 -0.5089 -0.3948 -0.5156
   64MOL    C3331659   7.821   6.418   4.445  0.5566  0.1641 -0.0664
   64MOL    C3431660   7.710   6.399   4.544 -0.7531  0.0918  0.5756
   64MOL    C3531661   7.739   6.379   4.681 -0.1007  0.3108 -0.0403
   64MOL    C3631662   7.623   6.365   4.766 -0.1724  0.2320  0.1681
   64MOL    C3731663   7.489   6.369   4.713 -0.5821  0.6053 -0.3751
   64MOL    C3831664   7.471   6.381   4.574 -0.5562  0.1838 -0.1890
   64MOL    C3931665   7.583   6.390   4.492 -0.5597  0.1800  0.0141
   64MOL    H4031666   0.056   5.971   4.567  2.3331 -1.1532  0.0783
   64MOL    H4131667   0.033   5.898   4.413 -2.7672  0.7103  0.2337
   64MOL    H4231668   7.946   6.206   4.203 -1.7457 -0.8935  0.3698
   64MOL    H4331669   0.037   6.055   4.178 -1.2012 -0.1921 -0.5385
   64MOL    H4431670   0.104   6.186   4.257  0.1082 -0.5229 -0.1279
   64MOL    H4531671   7.904   6.473   4.489 -0.1078 -1.5785  3.5626
   64MOL    H4631672   7.769   6.472   4.366 -0.8894  0.6643  1.1976
   64MOL    H4731673   7.837   6.388   4.725 -0.5107  0.8825  0.7742
   64MOL    H4831674   7.632   6.373   4.873  0.3170 -0.7042  0.2042
   64MOL    H4931675   7.402   6.352   4.775  0.7767  1.0531  1.7071
   64MOL    H5031676   7.374   6.386   4.527 -0.3438  0.9868 -0.5402
   64MOL    H5131677   7.581   6.405   4.385  0.8881  0.7798  0.0502
   64MOL    C5231678   7.835   6.000   4.346  1.2670  0.4726  0.4735
   64MOL    C5331679   7.740   5.927   4.460 -0.2782 -0.5393  0.6037
   64MOL    C5431680   7.644   6.035   4.522  0.5663  0.4580  0.2157
   64MOL    C5531681   7.820   5.868   4.580  0.5565 -0.9079  0.0443
   64MOL    O5631682   7.802   5.903   4.697  0.0014 -0.5275  0.0622
   64MOL    O5731683   7.890   5.761   4.547 -0.1550 -0.4776  0.1828
   64MOL    C5831684   7.965   5.693   4.642  0.4266 -0.1765  0.2394
   64MOL    C5931685   7.891   5.574   4.698  0.2085  1.1446  0.7779
   64MOL    C6031686   7.882   5.459   4.613  0.4568 -0.3921 -0.2822
   64MOL    C6131687   7.799   5.350   4.657  0.4818 -0.0340 -0.3011
   64MOL    C6231688   7.740   5.352   4.788  0.4898 -0.1004 -0.0391
   64MOL    C6331689   7.751   5.465   4.874  0.5077  0.8383  0.2943
   64MOL    C6431690   7.828   5.573   4.825  0.2746 -0.3745  0.3324
   64MOL    H6531691   7.868   5.914   4.288 -1.4118 -0.1647 -0.1800
   64MOL    H6631692   7.770   6.060   4.283  0.3207  0.1004  1.0900
   64MOL    H6731693   7.575   5.980   4.587 -1.1301  2.1839 -0.0848
   64MOL    H6831694   7.582   6.093   4.454 -1.1338 -0.1226  1.2259
   64MOL    H6931695   7.697   6.111   4.580  1.6819 -1.1630  1.3777
   64MOL    H7031696   0.057   5.667   4.604 -0.2858  1.1657 -2.6834
   64MOL    H7131697   7.991   5.757   4.726  1.9936 -1.0839  0.4702
   64MOL    H7231698   7.930   5.471   4.517 -2.1966 -1.9098 -1.8628
   64MOL    H7331699   7.781   5.267   4.591  0.9803 -1.7639  1.6735
   64MOL    H7431700   7.674   5.274   4.824  1.1362 -0.1738  1.0176
   64MOL    H7531701   7.695   5.465   4.967  2.0718 -0.1515  1.2646
   64MOL    H7631702   7.814   5.669   4.873 -2.6810  0.7049 -2.5014
   64MOL    C7731703   7.652   5.809   4.409 -0.2035  0.4337 -0.0513
   64MOL    C7831704   7.509   5.824   4.327 -0.5844 -1.0575 -0.6693
   64MOL    C7931705   7.529   5.912   4.205  0.1050 -0.1563 -0.8631
   64MOL    C8031706   7.399   5.887   4.413  0.1546 -0.1271 -0.1728
   64MOL    O8131707   7.346   5.833   4.511  0.3532 -0.3133  0.0470
   64MOL    O8231708   7.354   6.011   4.374 -0.1959  0.1545  0.1713
   64MOL    C8331709   7.236   6.069   4.434 -0.6960 -0.0374 -0.4599
   64MOL    C8431710   7.176   6.171   4.339  0.1594 -0.2989 -0.2958
   64MOL    C8531711   7.157   6.134   4.204  0.1433  0.1493  0.0577
   64MOL    C8631712   7.084   6.218   4.123  0.0590 -0.0178  1.0410
   64MOL    C8731713   7.038   6.346   4.168 -0.2090 -0.4013 -0.5124
   64MOL    C8831714   7.067   6.388   4.298  0.0602 -0.6270 -0.0336
   64MOL    C8931715   7.128   6.296   4.386  0.6505 -0.4595  0.0350
   64MOL    H9031716   7.626   5.745   4.494  1.1914 -0.8980 -0.6017
   64MOL    H9131717   7.717   5.743   4.350  0.7534  0.5535  0.8701
   64MOL    H9231718   7.604   5.866   4.141  0.0290 -0.8722 -0.4389
   64MOL    H9331719   7.553   6.016   4.229  1.4589 -0.1564 -2.1386
   64MOL    H9431720   7.434   5.915   4.151 -1.2554 -0.4298  1.4302
   64MOL    H9531721   7.169   5.986   4.458 -0.5554 -0.0200 -0.0051
   64MOL    H9631722   7.266   6.113   4.529 -0.6985 -1.5882  0.2867
   64MOL    H9731723   7.178   6.034   4.168 -2.1527 -0.0590 -0.8059
   64MOL    H9831724   7.070   6.185   4.021 -1.7742 -1.2351  1.6614
   64MOL    H9931725   6.969   6.404   4.110 -2.8407 -2.0320  0.8822
   64MOL   H10031726   7.047   6.486   4.338 -2.8992 -1.6574  1.1816
   64MOL   H10131727   7.153   6.340   4.481  0.5922  1.4693 -0.8278
   64MOL   C10231728   7.471   5.681   4.275  0.0948  0.7269 -0.5191
   64MOL   C10331729   7.364   5.653   4.168 -0.0329  0.4052 -0.3029
   64MOL   C10431730   7.430   5.671   4.026 -0.1746  0.2148  0.0690
   64MOL   C10531731   7.230   5.738   4.172 -0.5655  0.0488 -0.1807
   64MOL   O10631732   7.192   5.821   4.087 -0.3339 -0.0795 -0.2366
   64MOL   O10731733   7.171   5.730   4.289 -0.3512  0.0566  0.4038
   64MOL   C10831734   7.035   5.779   4.310 -0.3044 -0.8009  0.0229
   64MOL   C10931735   7.000   5.772   4.451  0.0231  0.9876  0.2605
   64MOL   C11031736   7.051   5.674   4.534  0.4189  0.3966  0.6184
   64MOL   C11131737   7.022   5.673   4.672  0.3387 -0.1861  0.1823
   64MOL   C11231738   6.947   5.779   4.722 -0.1033  0.8692  0.6189
   64MOL   C11331739   6.887   5.874   4.638 -0.1384 -0.0901 -0.1991
   64MOL   C11431740   6.913   5.869   4.503  0.5153 -0.2352  0.4273
   64MOL   H11531741   7.445   5.626   4.366  0.4169  0.9489 -0.2910
   64MOL   H11631742   7.561   5.624   4.253  0.8357  1.8624 -0.4315
   64MOL   H11731743   7.500   5.589   4.008 -0.6192  0.3209 -2.2580
   64MOL   H11831744   7.451   5.771   3.989 -2.7429  0.7784  0.0974
   64MOL   H11931745   7.363   5.646   3.945  0.1669 -0.9786  0.1342
   64MOL   H12031746   7.029   5.883   4.276  1.0156 -0.6006  0.3751
   64MOL   H12131747   6.959   5.734   4.246 -1.2718  0.8134  0.0267
   64MOL   H12231748   7.119   5.605   4.487 -0.7801 -0.7856  0.5711
   64MOL   H12331749   7.088   5.617   4.738 -0.2782  0.0329  0.9854
   64MOL   H12431750   6.922   5.784   4.827 -0.2046 -1.2253  0.7194
   64MOL   H12531751   6.827   5.953   4.681 -0.1109  0.0659 -0.4477
   64MOL   H12631752   6.872   5.951   4.445  0.6377 -1.0657 -0.8338
   64MOL   C12731753   7.332   5.502   4.195 -0.8363 -0.2537 -0.4237
   64MOL   C12831754   7.214   5.415   4.132  0.1293  0.4317  0.3407
   64MOL   C12931755   7.253   5.267   4.155  0.5879  0.1510 -0.9482
   64MOL   C13031756   7.213   5.433   3.978 -0.6916  0.0742 -0.1857
   64MOL   O13131757   7.126   5.495   3.917  0.2685  0.3282  0.3026
   64MOL   O13231758   7.311   5.375   3.918  0.3168  0.5501  0.4416
   64MOL   C13331759   7.313   5.376   3.776 -0.1731  0.2187 -0.0980
   64MOL   C13431760   7.449   5.351   3.717  0.8940 -0.0775  0.1519
   64MOL   C13531761   7.565   5.367   3.795 -0.9519  0.3183 -0.1832
   64MOL   C13631762   7.693   5.349   3.741  0.2838 -0.0166 -0.3308
   64MOL   C13731763   7.706   5.309   3.607  0.6863 -0.0200 -0.5258
   64MOL   C13831764   7.589   5.292   3.531 -0.0443 -0.0762  0.5655
   64MOL   C13931765   7.464   5.306   3.587  1.1233  0.4420  0.1082
   64MOL   H14031766   7.313   5.485   4.301  0.2292  2.2551  0.2003
   64MOL   H14131767   7.418   5.436   4.181 -0.4561  0.1228  0.1141
   64MOL   H14231768   7.185   5.192   4.114  0.4504 -0.0496 -0.3634
   64MOL   H14331769   7.256   5.247   4.262 -0.8723 -1.4130 -1.1727
   64MOL   H14431770   7.351   5.237   4.119  0.3328  0.6975 -2.1100
   64MOL   H14531771   7.253   5.295   3.734 -0.3979  0.7770 -0.8549
   64MOL   H14631772   7.285   5.471   3.732 -0.8434 -1.5745 -3.7726
   64MOL   H14731773   7.564   5.408   3.895 -0.7709  0.1159 -0.0992
   64MOL   H14831774   7.782   5.359   3.801  1.3064  0.6368 -1.8983
   64MOL   H14931775   7.804   5.295   3.565  0.5513 -2.2050 -0.1556
   64MOL   H15031776   7.589   5.265   3.426  2.5348  0.0090  0.5137
   64MOL   H15131777   7.374   5.280   3.533  1.3597 -0.4874  0.1670
   64MOL   C15231778   7.075   5.458   4.201 -0.1485  0.5946  0.3060
   64MOL   C15331779   6.951   5.357   4.225 -0.8629 -0.5717 -0.1365
   64MOL   C15431780   6.845   5.437   4.306  0.1212  0.3943 -0.0375
   64MOL   C15531781   6.985   5.237   4.315  0.0518 -0.3454 -0.3773
   64MOL   O15631782   6.975   5.123   4.277 -0.5174  0.2260 -0.0614
   64MOL   O15731783   7.038   5.275   4.439  0.1508  0.4077 -0.1033
   64MOL   C15831784   7.088   5.168   4.520 -0.6045  0.4148  0.5623
   64MOL   C15931785   7.199   5.207   4.619  0.1633 -0.9078 -0.3842
   64MOL   C16031786   7.253   5.340   4.634  0.3335  0.7643  0.1521
   64MOL   C16131787   7.346   5.374   4.737 -0.2028 -0.2357 -0.3269
   64MOL   C16231788   7.398   5.271   4.818 -0.1395  0.8445 -0.4407
   64MOL   C16331789   7.338   5.142   4.807  0.0528  0.2976 -0.3788
   64MOL   C16431790   7.242   5.112   4.715  0.0708  0.1014  0.3023
   64MOL   H16531791   7.035   5.543   4.146 -1.9773  0.6509  1.6465
   64MOL   H16631792   7.098   5.487   4.304  0.5749 -0.0603  0.3306
   64MOL   H16731793   6.895   5.473   4.396 -1.5327  0.7874  0.7479
   64MOL   H16831794   6.768   5.368   4.342  0.9181  0.1440  1.2184
   64MOL   H16931795   6.806   5.519   4.245 -0.7108  0.3323  0.4033
   64MOL   H17031796   7.006   5.116   4.569  0.1089  1.2199  2.6622
   64MOL   H17131797   7.139   5.100   4.450  0.8098 -0.0847  2.0481
   64MOL   H17231798   7.234   5.414   4.559  1.0569 -0.4103 -1.2107
   64MOL   H17331799   7.383   5.475   4.744  0.5652 -0.4695 -0.9231
   64MOL   H17431800   7.472   5.313   4.885  0.9646  2.2507 -2.4844
   64MOL   H17531801   7.356   5.068   4.884 -2.2234  1.2903  1.1536
   64MOL   H17631802   7.200   5.013   4.715 -1.1158  0.5972  0.4943
   64MOL   C17731803   6.895   5.324   4.084  0.0934  0.9719 -0.1344
   64MOL   C17831804   6.757   5.265   4.040  0.5296 -0.4440 -0.3062
   64MOL   C17931805   6.652   5.377   4.041  0.2567  0.6682 -0.0403
   64MOL   C18031806   6.702   5.155   4.135 -0.0512  0.1742  0.0196
   64MOL   O18131807   6.619   5.188   4.221 -0.4979  1.2618 -0.0658
   64MOL   O18231808   6.760   5.038   4.137  0.3773  0.0759 -0.4722
   64MOL   C18331809   6.732   4.950   4.244  0.4791  0.4843  0.1928
   64MOL   C18431810   6.638   4.837   4.196  0.7759  0.2336 -0.6288
   64MOL   C18531811   6.685   4.704   4.176 -0.2868 -0.2946 -0.4964
   64MOL   C18631812   6.588   4.606   4.138  0.2628  0.0545 -0.3159
   64MOL   C18731813   6.454   4.633   4.108 -0.3304 -0.0194  0.4561
   64MOL   C18831814   6.414   4.767   4.125 -1.4835  0.0188  0.7335
   64MOL   C18931815   6.503   4.868   4.171  0.5016 -0.1606  0.3912
   64MOL   H19031816   6.960   5.243   4.052 -1.5208  0.2323 -1.6089
   64MOL   H19131817   6.906   5.413   4.021  1.3304  1.3642  0.6176
   64MOL   H19231818   6.553   5.356   4.001  0.1505  1.3198 -0.1300
   64MOL   H19331819   6.676   5.465   3.981  0.8386 -0.6157 -1.7242
   64MOL   H19431820   6.626   5.424   4.137  2.3676 -0.4858  1.1275
   64MOL   H19531821   6.821   4.900   4.280  1.4231  0.3832 -2.2095
   64MOL   H19631822   6.680   4.993   4.329  0.3376 -1.0142  0.8724
   64MOL   H19731823   6.791   4.689   4.188 -0.7064 -0.8239  3.2944
   64MOL   H19831824   6.628   4.509   4.109  2.4369  0.9825 -0.5204
   64MOL   H19931825   6.383   4.568   4.059 -0.4130  0.6554 -0.3264
   64MOL   H20031826   6.316   4.797   4.091 -1.0786  0.9102  0.3611
   64MOL   H20131827   6.466   4.966   4.196  3.0928  1.4547 -1.9389
   64MOL   C20231828   6.783   5.214   3.892 -0.1074 -0.1855  0.4866
   64MOL   C20331829   6.677   5.151   3.789 -0.2755  0.5995  0.3809
   64MOL   C20431830   6.534   5.214   3.797 -0.3820 -0.2883  0.3663
   64MOL   C20531831   6.661   5.000   3.827 -0.3989 -0.4650 -0.0055
   64MOL   O20631832   6.548   4.957   3.868  0.2723 -0.0637  0.1847
   64MOL   O20731833   6.767   4.934   3.824  0.1705 -0.1984 -0.1587
   64MOL   C20831834   6.785   4.798   3.862 -0.1801  1.2167 -0.8451
   64MOL   C20931835   6.910   4.772   3.936  0.3749  0.1282  0.5006
   64MOL   C21031836   6.955   4.640   3.958  0.2861  0.0908 -0.3371
   64MOL   C21131837   7.081   4.613   4.019  0.3981  0.3636 -0.4259
   64MOL   C21231838   7.167   4.720   4.051  0.4588  0.0821 -0.7204
   64MOL   C21331839   7.128   4.848   4.022 -1.1524  0.3903 -0.1663
   64MOL   C21431840   6.998   4.877   3.975 -0.3032  0.4421  0.3403
   64MOL   H21531841   6.871   5.149   3.892 -0.4983 -0.7211  1.4683
   64MOL   H21631842   6.812   5.303   3.836  2.0955 -1.1879 -0.0418
   64MOL   H21731843   6.535   5.321   3.776 -2.7928 -0.5232 -1.1563
   64MOL   H21831844   6.483   5.211   3.894 -1.7882  4.1815 -0.1354
   64MOL   H21931845   6.460   5.177   3.726 -0.6960  1.7516 -0.4191
   64MOL   H22031846   6.695   4.764   3.914  0.6784  1.4362  0.8196
   64MOL   H22131847   6.780   4.738   3.772 -0.7556  0.8227 -0.5554
   64MOL   H22231848   6.893   4.555   3.933  0.2731 -0.6165  1.9167
   64MOL   H22331849   7.107   4.514   4.055 -0.4093  0.0634 -0.6652
   64MOL   H22431850   7.261   4.703   4.101  0.4883 -0.5133 -0.9682
   64MOL   H22531851   7.179   4.937   4.054 -1.1081 -0.3288  1.8225
   64MOL   H22631852   6.960   4.977   3.962 -0.2817  0.2618 -1.2638
   64MOL   C22731853   6.718   5.187   3.639  0.1125  0.2209 -0.3425
   64MOL   C22831854   6.722   5.078   3.514 -0.1219 -0.0274 -0.3108
   64MOL   C22931855   6.589   5.007   3.497 -0.1620  0.3052 -0.2800
   64MOL   C23031856   6.841   4.976   3.525 -0.1527 -0.6650  0.0903
   64MOL   O23131857   6.827   4.866   3.482 -0.0298 -0.5227  0.0722
   64MOL   O23231858   6.941   5.025   3.591  0.0509  0.5864 -0.6012
   64MOL   C23331859   7.048   4.944   3.635 -0.0801 -0.4383 -0.2278
   64MOL   C23431860   7.161   4.939   3.535 -0.3638  0.3505 -0.2361
   64MOL   C23531861   7.292   4.947   3.587  0.0010 -0.2582 -0.2642
   64MOL   C23631862   7.402   4.938   3.503  0.6044 -0.0873 -0.1375
   64MOL   C23731863   7.386   4.917   3.365 -0.5082 -0.1815 -0.0829
   64MOL   C23831864   7.259   4.923   3.309 -0.3047  0.1834 -0.0749
   64MOL   C23931865   7.145   4.923   3.390  0.8867  0.6121 -0.6552
   64MOL   H24031866   6.818   5.229   3.637 -0.0917  0.7860  1.0261
   64MOL   H24131867   6.656   5.270   3.605 -1.7624  0.0020  2.3828
   64MOL   H24231868   6.582   4.923   3.565  0.1225  0.8992  0.4945
   64MOL   H24331869   6.579   4.966   3.396  1.8583  2.1999 -1.3221
   64MOL   H24431870   6.506   5.075   3.513  0.4782  0.7863  1.1091
   64MOL   H24531871   7.077   4.968   3.737 -1.1570 -2.0002  0.4797
   64MOL   H24631872   7.016   4.841   3.647 -0.1697 -0.1096  2.6549
   64MOL   H24731873   7.310   4.948   3.693 -2.1980  1.1692  0.1378
   64MOL   H24831874   7.500   4.944   3.548  0.9797  0.3044 -1.0013
   64MOL   H24931875   7.479   4.892   3.316 -0.4969  3.4815 -2.0867
   64MOL   H25031876   7.251   4.913   3.202  0.0952 -1.8873  0.0769
   64MOL   H25131877   7.045   4.910   3.351  0.5027  2.3618 -0.3029
   64MOL   C25231878   6.741   5.154   3.376 -0.5425  0.1933 -0.2226
   64MOL   C25331879   6.842   5.265   3.339  0.2117  0.3871  0.4018
   64MOL   C25431880   6.987   5.217   3.352  0.0530  0.4689 -0.5064
   64MOL   C25531881   6.810   5.390   3.425  0.2579  0.2545 -0.2961
   64MOL   O25631882   6.895   5.434   3.503  0.3561 -0.3094 -0.0211
   64MOL   O25731883   6.688   5.439   3.410 -0.7162 -0.1558  0.2327
   64MOL   C25831884   6.640   5.546   3.484  0.3522 -0.0835 -0.2684
   64MOL   C25931885   6.523   5.621   3.409  0.4715  0.8663  0.3222
   64MOL   C26031886   6.547   5.700   3.297 -0.3446  0.7041 -0.4321
   64MOL   C26131887   6.448   5.783   3.234 -0.1828  0.3636 -0.1434
   64MOL   C26231888   6.312   5.778   3.287 -0.7728 -0.4538  0.0569
   64MOL   C26331889   6.288   5.699   3.402 -0.2623  0.3065  0.9287
   64MOL   C26431890   6.394   5.626   3.461  0.5080 -0.9200  0.3061
   64MOL   H26531891   6.644   5.202   3.368 -0.7474  0.1039  1.4725
   64MOL   H26631892   6.748   5.069   3.309  1.1781 -0.5287  0.8381
   64MOL   H26731893   7.004   5.116   3.315  2.8548  0.5475  0.4524
   64MOL   H26831894   7.014   5.200   3.457  0.5922  2.6209 -0.2775
   64MOL   H26931895   7.069   5.284   3.324 -0.5110  0.6285 -1.7946
   64MOL   H27031896   6.620   5.511   3.586 -0.3141 -1.5877 -0.9026
   64MOL   H27131897   6.718   5.621   3.495 -0.0628 -0.0591  3.3132
   64MOL   H27231898   6.648   5.711   3.260 -0.0687  0.4636  0.2536
   64MOL   H27331899   6.474   5.842   3.147  1.6623 -0.6361 -0.2742
   64MOL   H27431900   6.240   5.843   3.239 -1.0664 -1.6520 -1.1562
   64MOL   H27531901   6.190   5.685   3.447  0.3024 -0.7725  1.8539
   64MOL   H27631902   6.380   5.565   3.549  0.1892  0.3321  1.1340
   64MOL   C27731903   6.821   5.315   3.186 -0.1455 -0.2408 -0.0363
   64MOL   C27831904   6.878   5.240   3.061  0.4056 -0.2938 -0.2582
   64MOL   C27931905   6.823   5.089   3.054  0.4401 -0.6298 -0.2835
   64MOL   C28031906   7.031   5.237   3.054 -0.5849 -0.9725 -1.0839
   64MOL   O28131907   7.099   5.138   3.034  0.1952  0.2412  0.6393
   64MOL   O28231908   7.085   5.357   3.079  0.2337  0.2863 -0.6545
   64MOL   C28331909   7.225   5.375   3.095 -0.3316 -0.3570 -0.1817
   64MOL   C28431910   7.261   5.485   3.187  0.0750 -0.7439 -0.2542
   64MOL   C28531911   7.175   5.593   3.224 -0.1599  0.6844 -0.8121
   64MOL   C28631912   7.218   5.700   3.301  0.4829  0.2989 -0.3354
   64MOL   C28731913   7.352   5.712   3.333 -0.1061  0.1231 -0.3271
   64MOL   C28831914   7.444   5.608   3.301 -0.0260  0.6108 -0.0821
   64MOL   C28931915   7.397   5.498   3.230 -0.1447 -0.4630  0.2361
   64MOL   H29031916   6.861   5.417   3.187 -0.8250  0.1028 -2.9275
   64MOL   H29131917   6.714   5.315   3.168 -0.0581 -2.0311 -0.6357
   64MOL   H29231918   6.877   5.036   3.132 -1.2305 -1.1172  0.5638
   64MOL   H29331919   6.867   5.042   2.966 -0.3183 -0.4126 -0.7900
   64MOL   H29431920   6.714   5.090   3.065  0.5403 -1.1267  0.7676
   64MOL   H29531921   7.278   5.284   3.121 -0.7274 -0.8040 -0.9104
   64MOL   H29631922   7.262   5.403   2.996  1.6086  1.2280  0.9664
   64MOL   H29731923   7.078   5.597   3.176 -0.5236  1.2133 -0.0448
   64MOL   H29831924   7.157   5.782   3.338 -0.2591 -1.2471  1.9808
   64MOL   H29931925   7.395   5.796   3.386  1.0601  0.1857 -1.3531
   64MOL   H30031926   7.549   5.606   3.328  0.1842  0.7909 -0.8998
   64MOL   H30131927   7.466   5.424   3.193  1.2752  1.1587 -0.3878
   64MOL   C30231928   6.808   5.317   2.934  0.2533 -0.5717 -0.4608
   64MOL   C30331929   6.854   5.316   2.785 -0.7100 -0.4985  0.5842
   64MOL   C30431930   6.889   5.175   2.744 -0.3922  0.2584 -1.0408
   64MOL   C30531931   6.994   5.391   2.785  0.6291  0.3270 -0.2306
   64MOL   O30631932   7.101   5.330   2.777 -0.5325 -0.6869 -0.0698
   64MOL   O30731933   6.983   5.527   2.799 -0.6216  0.6059  0.5050
   64MOL   C30831934   7.099   5.604   2.782  0.3448  0.1710  0.5584
   64MOL   C30931935   7.069   5.757   2.755  0.1194 -0.2009  0.3841
   64MOL   C31031936   6.955   5.790   2.679 -0.3241  0.3548 -0.6054
   64MOL   C31131937   6.938   5.920   2.623  0.1410 -0.0203  0.7541
   64MOL   C31231938   7.034   6.024   2.658  0.7605 -0.1244  0.3522
   64MOL   C31331939   7.144   5.987   2.741 -0.2437 -0.9017  0.0570
   64MOL   C31431940   7.167   5.855   2.786  0.8972 -0.3164  0.6957
   64MOL   H31531941   6.792   5.423   2.951  2.5380  0.1003 -2.2734
   64MOL   H31631942   6.706   5.280   2.925  0.1488 -0.6721  0.9766
   64MOL   H31731943   6.804   5.109   2.766 -0.6978  0.6011 -1.1933
   64MOL   H31831944   6.973   5.132   2.800 -0.4899  0.5162 -0.6949
   64MOL   H31931945   6.920   5.162   2.641  3.0243 -1.4254  0.1311
   64MOL   H32031946   7.167   5.598   2.866 -0.2706 -2.2637  0.9108
   64MOL   H32131947   7.151   5.586   2.688 -2.3239  0.4389 -1.0355
   64MOL   H32231948   6.883   5.713   2.655 -0.7374  1.3373 -2.6189
   64MOL   H32331949   6.846   5.946   2.572  0.0754  0.5353  1.1540
   64MOL   H32431950   7.028   6.127   2.627  0.3888  0.1396  1.2976
   64MOL   H32531951   7.216   6.065   2.759 -1.2653  0.7070 -2.5328
   64MOL   H32631952   7.257   5.838   2.842  0.6160 -0.7444  1.0184
   64MOL   C32731953   6.757   5.393   2.682 -0.3453  0.0219 -0.2315
   64MOL   C32831954   6.770   5.393   2.524 -0.4039 -0.1573 -0.0498
   64MOL   C32931955   6.709   5.266   2.473 -0.5897 -0.3805  0.0204
   64MOL   C33031956   6.915   5.403   2.472 -0.2060 -0.2417  0.0145
   64MOL   O33131957   6.970   5.517   2.466  0.0965  1.2393  0.3862
   64MOL   O33231958   6.979   5.293   2.454  0.1009  0.1453  0.2196
   64MOL   C33331959   7.118   5.294   2.416  0.0094 -0.0883  0.1947
   64MOL   C33431960   7.146   5.190   2.312 -0.2288  0.4809 -0.3255
   64MOL   C33531961   7.195   5.060   2.351  0.4086  0.1339 -0.7019
   64MOL   C33631962   7.239   4.962   2.254 -0.3194 -0.4534 -1.2264
   64MOL   C33731963   7.213   4.995   2.118  0.4219  0.5046  0.1259
   64MOL   C33831964   7.156   5.117   2.081  0.1377 -0.2395 -0.2384
   64MOL   C33931965   7.122   5.214   2.179  0.6172 -0.0537  0.4224
   64MOL   H34031966   6.744   5.496   2.716  1.3209 -0.4526  1.9484
   64MOL   H34131967   6.662   5.345   2.704 -0.5635  0.9602  0.9013
   64MOL   H34231968   6.739   5.247   2.370  1.8623 -1.5781  0.9122
   64MOL   H34331969   6.601   5.260   2.488 -1.0964 -0.2235 -3.0909
   64MOL   H34431970   6.748   5.179   2.526 -2.3726 -0.8263  0.6490
   64MOL   H34531971   7.159   5.388   2.378 -2.4068  1.5912  1.5594
   64MOL   H34631972   7.180   5.274   2.503 -0.1566  0.5887  0.4789
   64MOL   H34731973   7.197   5.034   2.456 -1.5855 -1.4140 -1.0014
   64MOL   H34831974   7.281   4.867   2.282 -0.3443 -0.0132  0.3553
   64MOL   H34931975   7.225   4.929   2.033 -1.3357  0.5461 -0.1599
   64MOL   H35031976   7.135   5.137   1.977  1.7468 -1.4923 -0.8197
   64MOL   H35131977   7.071   5.303   2.147 -1.1505 -1.0340  0.4735
   64MOL   C35231978   6.682   5.507   2.474  0.6468  0.2617  0.4199
   64MOL   C35331979   6.615   5.523   2.334 -0.5567 -0.4487 -0.5570
   64MOL   C35431980   6.484   5.438   2.335 -0.3047  0.4693  0.2653
   64MOL   C35531981   6.696   5.470   2.213 -0.2878  0.1354 -0.6008
   64MOL   O35631982   6.657   5.375   2.140 -0.3684  0.1697  0.2696
   64MOL   O35731983   6.815   5.529   2.199 -0.0802 -0.6566 -0.0790
   64MOL   C35831984   6.909   5.493   2.098 -0.4113  0.3198 -0.4124
   64MOL   C35931985   6.906   5.586   1.979  0.8132 -0.5769 -0.2601
   64MOL   C36031986   6.782   5.612   1.913  0.7946 -0.3495  0.3316
   64MOL   C36131987   6.776   5.689   1.795 -0.1374 -0.1288  0.1614
   64MOL   C36231988   6.891   5.751   1.752  0.3721 -0.5649 -0.3856
   64MOL   C36331989   7.015   5.739   1.827  1.0008 -0.0084 -0.3125
   64MOL   C36431990   7.024   5.655   1.939  0.0064 -0.2888 -0.4870
   64MOL   H36531991   6.743   5.594   2.498  0.6881 -0.4366  2.9953
   64MOL   H36631992   6.604   5.533   2.545  1.1685  0.5812  0.8898
   64MOL   H36731993   6.442   5.442   2.436 -0.1689 -0.2014  0.3521
   64MOL   H36831994   6.513   5.333   2.335 -1.6081  0.0852  1.8107
   64MOL   H36931995   6.425   5.467   2.248  0.7470  0.1175 -0.5626
   64MOL   H37031996   7.008   5.496   2.143 -0.5544  1.9333 -0.1765
   64MOL   H37131997   6.891   5.391   2.065 -0.9069  0.2510  0.0703
   64MOL   H37231998   6.696   5.549   1.931  0.0987  0.6970  0.6819
   64MOL   H37331999   6.679   5.704   1.750 -0.4473 -0.7173  0.6251
   64MOL   H37432000   6.886   5.813   1.664 -0.4208  1.5445  1.1119
   64MOL   H37532001   7.098   5.801   1.796  0.2351  0.5503 -1.2490
   64MOL   H37632002   7.119   5.640   1.987 -1.0196  2.0214  2.4390
   64MOL   C37732003   6.598   5.676   2.297  0.5697 -0.1980  0.7481
   64MOL   C37832004   6.488   5.769   2.360  0.4009  0.3296 -0.2934
   64MOL   C37932005   6.501   5.759   2.516  0.1495 -0.1290 -0.6596
   64MOL   C38032006   6.347   5.729   2.317  0.2464  0.3139 -0.2679
   64MOL   O38132007   6.262   5.692   2.396 -0.2657 -0.0255 -0.2562
   64MOL   O38232008   6.330   5.733   2.182 -0.1141 -0.3427  0.2484
   64MOL   C38332009   6.204   5.720   2.122  0.3788 -0.3411  0.3158
   64MOL   C38432010   6.227   5.700   1.976  0.1564 -0.5443 -0.4992
   64MOL   C38532011   6.332   5.615   1.932 -0.5852 -0.0717  0.1154
   64MOL   C38632012   6.359   5.596   1.797  0.5570 -1.4256  0.0902
   64MOL   C38732013   6.266   5.648   1.706 -0.0274 -0.4623  0.1616
   64MOL   C38832014   6.153   5.729   1.750  0.6064 -0.0322 -0.2970
   64MOL   C38932015   6.131   5.749   1.888  0.0989  0.3278  0.6735
   64MOL   H39032016   6.583   5.697   2.191  2.3114  1.9663  0.8828
   64MOL   H39132017   6.698   5.713   2.321  0.3984  1.5894 -1.1141
   64MOL   H39232018   6.449   5.674   2.558  0.6318  0.5229  1.2824
   64MOL   H39332019   6.449   5.840   2.567 -0.3999 -1.1896  0.4728
   64MOL   H39432020   6.606   5.761   2.543 -0.0375  1.4434  0.0134
   64MOL   H39532021   6.139   5.639   2.154  0.1592 -0.0724  0.5542
   64MOL   H39632022   6.162   5.819   2.135 -1.3800 -0.9920 -0.2265
   64MOL   H39732023   6.412   5.574   1.993  0.1929 -0.3061 -1.0438
   64MOL   H39832024   6.439   5.531   1.763  1.3809 -0.2966 -0.1735
   64MOL   H39932025   6.277   5.630   1.601 -4.5340 -1.6349 -0.1738
   64MOL   H40032026   6.091   5.772   1.673  0.2948 -1.9878 -1.1929
   64MOL   H40132027   6.042   5.796   1.927 -1.3455 -1.8182  0.0434
   64MOL   C40232028   6.521   5.916   2.313 -0.4489  0.1684  0.1733
   64MOL   C40332029   6.448   6.043   2.370 -0.2301  0.0127 -0.1034
   64MOL   C40432030   6.539   6.081   2.487 -0.0969 -0.5675 -0.1761
   64MOL   C40532031   6.296   6.020   2.416  0.1686 -0.5906  0.6611
   64MOL   O40632032   6.266   6.015   2.535  0.2353 -0.0267  0.2816
   64MOL   O40732033   6.208   6.000   2.313  0.7952  0.7148 -0.3317
   64MOL   C40832034   6.071   5.992   2.349  0.0345 -0.1045  0.6184
   64MOL   C40932035   5.983   6.042   2.237 -0.5319 -0.0886  0.1801
   64MOL   C41032036   5.864   5.967   2.209 -0.1591 -0.1144  0.2963
   64MOL   C41132037   5.770   6.008   2.116 -0.4148 -0.4128  0.1450
   64MOL   C41232038   5.795   6.128   2.050 -0.3822 -0.8137  0.8589
   64MOL   C41332039   5.914   6.202   2.066  0.0071 -0.0023  0.5887
   64MOL   C41432040   6.002   6.164   2.174 -0.9782  0.0232 -0.4142
   64MOL   H41532041   6.510   5.911   2.205  0.1226  1.5793  0.0270
   64MOL   H41632042   6.628   5.938   2.323 -0.2566 -0.5735 -0.2638
   64MOL   H41732043   6.635   6.111   2.445  0.2313  1.0380  1.6646
   64MOL   H41832044   6.565   6.002   2.558  0.9135  0.4649  0.6293
   64MOL   H41932045   6.488   6.162   2.539  1.1327  0.4160 -0.4739
   64MOL   H42032046   6.036   5.896   2.386  1.4080 -0.9004 -0.1266
   64MOL   H42132047   6.048   6.053   2.436 -0.2500 -0.0156  0.4843
   64MOL   H42232048   5.852   5.883   2.276 -0.3187  1.5949  2.4665
   64MOL   H42332049   5.678   5.951   2.111  0.3492 -1.6534 -0.2008
   64MOL   H42432050   5.724   6.165   1.978 -0.5703  1.2457  2.0546
   64MOL   H42532051   5.929   6.296   2.016  1.8225 -0.5296  0.0913
   64MOL   H42632052   6.089   6.223   2.200 -1.7055  2.0866 -2.4527
   64MOL   C42732053   6.452   6.155   2.256 -0.6020  0.1490 -0.0902
   64MOL   C42832054   6.422   6.310   2.277  0.6755  0.6693  0.0790
   64MOL   C42932055   6.316   6.340   2.382 -0.4630  0.6460 -0.3277
   64MOL   C43032056   6.380   6.366   2.141  0.1315 -0.4659 -0.4247
   64MOL   O43132057   6.271   6.418   2.119 -0.1872  0.4164 -0.0600
   64MOL   O43232058   6.470   6.341   2.041 -0.1629  0.0721 -0.3252
   64MOL   C43332059   6.458   6.395   1.905  0.1902  0.4976 -0.1249
   64MOL   C43432060   6.423   6.289   1.794 -0.1444 -0.1315 -0.1191
   64MOL   C43532061   6.354   6.171   1.824 -0.3704  0.0533 -0.1226
   64MOL   C43632062   6.321   6.081   1.727 -0.3144 -1.0704 -0.7304
   64MOL   C43732063   6.368   6.092   1.596 -0.3002 -0.2724  0.0716
   64MOL   C43832064   6.439   6.209   1.555 -0.5338 -0.0462  0.0461
   64MOL   C43932065   6.469   6.302   1.656 -0.1529 -0.3159 -0.0290
   64MOL   H44032066   6.379   6.117   2.185  0.5645 -1.2906 -0.5396
   64MOL   H44132067   6.544   6.150   2.198 -1.6644  2.0197 -2.0328
   64MOL   H44232068   6.340   6.299   2.480  2.8608 -1.6497 -2.0126
   64MOL   H44332069   6.215   6.304   2.364 -0.2155  0.2148 -0.8444
   64MOL   H44432070   6.286   6.444   2.395 -0.3957  0.4217  1.9684
   64MOL   H44532071   6.365   6.453   1.904  0.9001  1.6551 -0.5864
   64MOL   H44632072   6.529   6.470   1.868  1.8753 -1.7021 -1.4990
   64MOL   H44732073   6.320   6.148   1.924 -0.0494  1.2679  0.2795
   64MOL   H44832074   6.266   5.991   1.754  0.5190 -1.6026 -0.7938
   64MOL   H44932075   6.345   6.016   1.523  2.4782  1.3911 -2.6399
   64MOL   H45032076   6.465   6.222   1.451 -0.3097  2.2910  0.3728
   64MOL   H45132077   6.523   6.392   1.631  1.4431 -0.0980  3.8810
   64MOL   C45232078   6.551   6.385   2.319 -0.4720  0.0477  0.0164
   64MOL   C45332079   6.553   6.538   2.359  1.1742  0.5717  0.2628
   64MOL   C45432080   6.700   6.574   2.352 -0.3785  0.0053 -0.0370
   64MOL   C45532081   6.523   6.555   2.515  0.7018  1.0658 -0.5129
   64MOL   O45632082   6.545   6.473   2.606 -0.0334 -0.1678 -0.5356
   64MOL   O45732083   6.452   6.663   2.543 -0.0681 -0.1002  0.1528
   64MOL   C45832084   6.399   6.686   2.670 -0.3178 -0.1102 -0.2220
   64MOL   C45932085   6.264   6.757   2.674  0.1791 -0.3194 -0.1813
   64MOL   C46032086   6.214   6.831   2.564  0.1688 -0.2233  0.2442
   64MOL   C46132087   6.083   6.887   2.576  0.1160 -0.7199  0.0115
   64MOL   C46232088   6.014   6.881   2.700 -0.2645  0.0074  0.4931
   64MOL   C46332089   6.076   6.811   2.805  0.0553  0.8047 -0.0632
   64MOL   C46432090   6.199   6.746   2.795 -0.3252  0.2052  0.4675
   64MOL   H46532091   6.611   6.372   2.229  0.1590 -2.1651  0.7147
   64MOL   H46632092   6.604   6.333   2.399  0.2543 -0.2886 -0.6777
   64MOL   H46732093   6.726   6.568   2.246  0.3663  2.9392 -0.0489
   64MOL   H46832094   6.760   6.502   2.407 -1.6460 -0.6088  0.5594
   64MOL   H46932095   6.718   6.676   2.387  0.2181 -0.5109  1.1811
   64MOL   H47032096   6.385   6.590   2.718  3.2616 -0.1616  0.8724
   64MOL   H47132097   6.466   6.740   2.737 -0.6458  2.0685 -1.6010
   64MOL   H47232098   6.262   6.838   2.468 -0.7959  0.6917 -0.1879
   64MOL   H47332099   6.038   6.943   2.495 -0.0344  0.0794  0.6416
   64MOL   H47432100   5.920   6.934   2.705 -0.1471  0.6422 -2.8958
   64MOL   H47532101   6.015   6.799   2.894  0.0492 -0.3937 -0.2207
   64MOL   H47632102   6.240   6.708   2.888  0.6515  1.0019  0.3693
   64MOL   C47732103   6.468   6.627   2.262 -0.0092 -1.1761 -0.8927
   64MOL   C47832104   6.485   6.784   2.261  0.0520  0.0203 -0.3546
   64MOL   C47932105   6.347   6.846   2.208 -0.3321 -0.1691  0.6077
   64MOL   C48032106   6.601   6.833   2.172  0.6095  0.5721  0.6959
   64MOL   O48132107   6.696   6.895   2.225 -0.0398  0.1132  0.1419
   64MOL   O48232108   6.592   6.801   2.041 -0.5925 -0.2739 -0.2146
   64MOL   C48332109   6.679   6.850   1.943 -0.0565 -0.3005  0.5808
   64MOL   C48432110   6.726   6.737   1.859 -0.3793 -0.1071  0.0141
   64MOL   C48532111   6.745   6.603   1.905  0.4637 -0.5760 -0.2402
   64MOL   C48632112   6.778   6.499   1.815  0.3950  0.6778  0.2085
   64MOL   C48732113   6.802   6.524   1.678  0.0568 -0.3733 -0.2197
   64MOL   C48832114   6.783   6.650   1.632  0.9439 -0.7834  0.7461
   64MOL   C48932115   6.755   6.754   1.720 -0.6537 -0.3099 -0.0341
   64MOL   H49032116   6.362   6.608   2.282  0.1705 -1.6195 -0.3259
   64MOL   H49132117   6.484   6.603   2.157 -1.9317 -0.6569 -1.3283
   64MOL   H49232118   6.257   6.797   2.246  0.5916 -1.6811  0.8847
   64MOL   H49332119   6.350   6.836   2.100 -0.0271 -0.9668  0.6857
   64MOL   H49432120   6.344   6.955   2.220  0.6207 -0.1504  0.7087
   64MOL   H49532121   6.625   6.913   1.872 -3.7341 -2.5956  1.1979
   64MOL   H49632122   6.757   6.920   1.973 -0.3035  0.6113 -0.8434
   64MOL   H49732123   6.716   6.574   2.005  0.6371  1.4815  0.4316
   64MOL   H49832124   6.787   6.399   1.855 -0.2486  1.4114  2.2787
   64MOL   H49932125   6.822   6.437   1.617  0.4459  0.0329 -0.6808
   64MOL   H50032126   6.780   6.666   1.525 -0.3481 -0.5582  0.8097
   64MOL   H50132127   6.732   6.848   1.673  0.9494 -0.6837 -1.6560
   64MOL   H50232128   6.500   6.824   2.361 -2.5759 -0.3412  0.2074
   65MOL     C132129   4.917   0.527   4.898  0.6116  0.8580  0.2992
   65MOL     C232130   5.040   0.477   4.806  0.3230  0.0513  0.9495
   65MOL     C332131   5.000   0.337   4.749  0.1210  0.0979 -0.3414
   65MOL     C432132   5.169   0.457   4.885  0.0903 -0.0709 -0.5588
   65MOL     O532133   5.166   0.460   5.006 -0.1290  0.0802 -0.5192
   65MOL     O632134   5.275   0.436   4.804 -0.2641 -0.6702  0.5115
   65MOL     C732135   5.396   0.391   4.873  0.0869  0.9240 -0.0989
   65MOL     C832136   5.411   0.238   4.878 -0.7661 -0.4491  0.2712
   65MOL     C932137   5.536   0.181   4.842  0.0709 -0.4870 -0.4718
   65MOL    C1032138   5.561   0.044   4.851 -0.0156 -0.8807 -0.1822
   65MOL    C1132139   5.462   7.970   4.907 -0.1396  0.5454  0.0330
   65MOL    C1232140   5.331   0.015   4.932  0.4075 -0.1345  0.0346
   65MOL    C1332141   5.307   0.154   4.914 -0.2557  0.8811  0.1485
   65MOL    H1432142   4.822   0.554   4.852 -1.1958 -1.4986  2.5304
   65MOL    H1532143   4.868   0.454   4.963  1.1586  0.4078  0.2136
   65MOL    H1632144   5.071   0.299   4.675 -1.3092 -1.7123 -0.8469
   65MOL    H1732145   4.902   0.329   4.701  0.5897 -1.5995 -1.0612
   65MOL    H1832146   5.002   0.254   4.820 -0.5859  1.4858  1.3147
   65MOL    H1932147   5.485   0.442   4.837  0.6995 -0.3905 -0.5130
   65MOL    H2032148   5.397   0.418   4.979 -2.6612 -0.2045  0.2537
   65MOL    H2132149   5.619   0.239   4.802  0.2668 -0.7228 -0.4076
   65MOL    H2232150   5.655   8.005   4.822  0.1780 -0.6525  0.0835
   65MOL    H2332151   5.468   7.863   4.924 -3.6146  0.2224 -0.5231
   65MOL    H2432152   5.253   7.954   4.961 -2.0977  2.5762 -0.1433
   65MOL    H2532153   5.212   0.198   4.938 -0.7842  0.3076 -0.8516
   65MOL    H2632154   4.940   0.602   4.974  0.8471  1.6693 -0.5677
   65MOL    C2732155   5.066   0.573   4.682  0.5242  0.6255  0.5554
   65MOL    C2832156   5.057   0.732   4.684 -0.1131  0.0086  0.4757
   65MOL    C2932157   5.128   0.785   4.810 -0.6575 -0.2990  0.4169
   65MOL    C3032158   4.914   0.791   4.689  0.4136 -0.0242 -1.0270
   65MOL    O3132159   4.822   0.716   4.656  0.0482  0.0310  0.1229
   65MOL    O3232160   4.900   0.912   4.735 -0.5603 -0.1329  0.6638
   65MOL    C3332161   4.798   0.993   4.683 -0.8962 -0.0978 -0.7011
   65MOL    C3432162   4.836   1.139   4.686 -0.0334 -1.0291  0.3106
   65MOL    C3532163   4.727   1.236   4.674  0.4779 -0.4514 -0.2127
   65MOL    C3632164   4.759   1.372   4.652 -0.1522  0.6652  0.1290
   65MOL    C3732165   4.894   1.408   4.638 -0.5480  0.7614  0.9125
   65MOL    C3832166   4.995   1.319   4.648  0.3356 -0.3942  0.1614
   65MOL    C3932167   4.974   1.184   4.676  0.1241  0.6546 -0.2249
   65MOL    H4032168   5.008   0.544   4.595 -0.1573 -0.3588  1.3261
   65MOL    H4132169   5.161   0.545   4.636 -0.0436  2.1667 -1.6270
   65MOL    H4232170   5.155   0.891   4.809  0.9311 -0.6589  2.1705
   65MOL    H4332171   5.230   0.747   4.817 -0.1657  0.6858 -1.2005
   65MOL    H4432172   5.080   0.761   4.905 -1.0223 -0.0256  0.3034
   65MOL    H4532173   4.785   0.969   4.578  2.2425 -0.1968 -1.1139
   65MOL    H4632174   4.705   0.979   4.739  0.8974  0.8048  2.6110
   65MOL    H4732175   4.624   1.204   4.678  0.7598 -1.3807 -0.4000
   65MOL    H4832176   4.681   1.446   4.640 -1.4526 -0.6274  0.3819
   65MOL    H4932177   4.912   1.513   4.619 -1.7002  0.4985 -1.9733
   65MOL    H5032178   5.096   1.359   4.640  0.1074  0.4614  1.3255
   65MOL    H5132179   5.062   1.121   4.679  2.0506  3.2162 -0.8751
   65MOL    C5232180   5.145   0.795   4.567  0.1921 -0.0425 -0.8620
   65MOL    C5332181   5.115   0.795   4.411  0.6763 -0.7441  0.1984
   65MOL    C5432182   4.975   0.873   4.383 -0.4976  0.7168 -0.5216
   65MOL    C5532183   5.105   0.651   4.359 -0.8107 -0.0888 -0.2729
   65MOL    O5632184   5.180   0.560   4.394  0.1303 -0.4956  0.1854
   65MOL    O5732185   5.022   0.644   4.257  0.4328 -0.2098  0.0129
   65MOL    C5832186   5.005   0.538   4.171 -0.7072  0.0094 -0.3213
   65MOL    C5932187   4.859   0.523   4.146 -0.4278 -0.6427 -0.5237
   65MOL    C6032188   4.759   0.556   4.246 -0.7590 -0.6843  0.7004
   65MOL    C6132189   4.624   0.539   4.208  0.3158  0.7453  0.2845
   65MOL    C6232190   4.589   0.498   4.081 -0.3778 -0.1843  0.2230
   65MOL    C6332191   4.687   0.463   3.984  0.2266 -0.5768  1.2031
   65MOL    C6432192   4.822   0.479   4.017 -0.3993 -1.2620 -0.2167
   65MOL    H6532193   5.246   0.755   4.579  0.6954  1.2195 -0.7828
   65MOL    H6632194   5.149   0.901   4.593 -3.1650 -0.0420 -0.1492
   65MOL    H6732195   4.888   0.838   4.438  0.8474  0.2092  1.3414
   65MOL    H6832196   4.933   0.865   4.283 -1.4558  0.9979 -0.1524
   65MOL    H6932197   4.997   0.978   4.404  2.3880  0.1862 -0.6599
   65MOL    H7032198   5.056   0.535   4.074 -3.2661 -1.0176 -1.7042
   65MOL    H7132199   5.039   0.444   4.215 -1.2732 -1.3898 -2.7622
   65MOL    H7232200   4.790   0.597   4.341 -2.2695  0.4010  0.7413
   65MOL    H7332201   4.543   0.568   4.273  0.0571  1.7884 -0.4762
   65MOL    H7432202   4.485   0.491   4.056  0.3605 -1.1931 -2.7903
   65MOL    H7532203   4.655   0.413   3.894  3.2229 -2.1027  0.9091
   65MOL    H7632204   4.893   0.445   3.943 -0.6864  1.0214 -1.5895
   65MOL    C7732205   5.235   0.855   4.329  0.5480 -0.3966 -0.5438
   65MOL    C7832206   5.243   1.007   4.291 -0.3963  0.2465 -0.4912
   65MOL    C7932207   5.253   1.108   4.411 -0.1549  0.0353  0.0923
   65MOL    C8032208   5.129   1.049   4.192 -0.4455 -0.1204  0.3274
   65MOL    O8132209   5.070   1.158   4.195  0.1259  0.1050 -0.0792
   65MOL    O8232210   5.104   0.953   4.096  0.1546  0.1388  0.2606
   65MOL    C8332211   5.023   0.983   3.981  0.5903  0.0298  0.2849
   65MOL    C8432212   5.060   0.885   3.867  0.0005 -0.2379  0.2454
   65MOL    C8532213   5.005   0.756   3.868  0.1054 -0.4997  0.3215
   65MOL    C8632214   5.029   0.661   3.759 -0.0156 -0.5470  0.8073
   65MOL    C8732215   5.114   0.699   3.651 -0.2137 -0.0657  0.3639
   65MOL    C8832216   5.176   0.827   3.651  0.0017 -0.7822 -0.7390
   65MOL    C8932217   5.146   0.921   3.759 -0.2054  0.4895  0.6718
   65MOL    H9032218   5.248   0.792   4.241  2.4159  1.3132 -1.5225
   65MOL    H9132219   5.329   0.831   4.377 -0.1621  0.3258  1.2509
   65MOL    H9232220   5.339   1.094   4.476 -1.2105  0.4208  1.6058
   65MOL    H9332221   5.171   1.085   4.479  0.1342  0.4370  0.5778
   65MOL    H9432222   5.243   1.214   4.385  2.5163  0.3170  0.0635
   65MOL    H9532223   4.917   0.966   4.000  1.0383  1.6358  4.5940
   65MOL    H9632224   5.022   1.088   3.950 -1.6762  0.2649  1.0393
   65MOL    H9732225   4.948   0.723   3.953  0.8103 -1.6596  0.3683
   65MOL    H9832226   4.981   0.564   3.759 -2.0157  0.3907 -1.9662
   65MOL    H9932227   5.118   0.633   3.566  0.4259  0.7581 -0.2589
   65MOL   H10032228   5.233   0.862   3.566  0.5527  1.7866  0.6260
   65MOL   H10132229   5.196   1.016   3.759 -0.1647  0.5002  3.6288
   65MOL   C10232230   5.381   1.020   4.211 -0.0318 -0.0629  0.3887
   65MOL   C10332231   5.438   1.141   4.132 -0.2563  0.5271 -0.0580
   65MOL   C10432232   5.335   1.170   4.009 -0.7387  0.1030  0.3989
   65MOL   C10532233   5.576   1.092   4.064  0.6868 -0.2581  0.2484
   65MOL   O10632234   5.594   1.109   3.945 -0.0670  0.0295  0.0463
   65MOL   O10732235   5.658   1.032   4.146  0.2169  0.3080 -0.1281
   65MOL   C10832236   5.745   0.926   4.098  0.1816  0.6120  0.0613
   65MOL   C10932237   5.667   0.797   4.106  0.3035  0.4969 -0.3379
   65MOL   C11032238   5.650   0.716   3.992 -0.6270 -0.2661 -0.5863
   65MOL   C11132239   5.555   0.613   3.991 -0.4134 -0.4958  0.3456
   65MOL   C11232240   5.486   0.574   4.106 -0.4452  0.5673  0.0643
   65MOL   C11332241   5.519   0.643   4.222 -0.1084 -0.2543  0.2541
   65MOL   C11432242   5.603   0.758   4.229 -0.3663  0.1933 -0.0808
   65MOL   H11532243   5.374   0.936   4.142  0.2001 -0.3783  0.7466
   65MOL   H11632244   5.457   0.986   4.282 -0.3128 -1.5544 -0.0038
   65MOL   H11732245   5.306   1.092   3.940 -2.1282  1.8774 -1.0832
   65MOL   H11832246   5.373   1.239   3.933  0.7790 -0.0508  0.9857
   65MOL   H11932247   5.249   1.226   4.045 -0.9486 -0.4995  0.8393
   65MOL   H12032248   5.770   0.946   3.994  2.8688 -3.6669 -0.2268
   65MOL   H12132249   5.836   0.929   4.158  0.8212  0.2174 -0.8723
   65MOL   H12232250   5.691   0.751   3.899 -0.6058 -3.8820 -2.0276
   65MOL   H12332251   5.534   0.565   3.896 -0.7107 -1.6471  0.9845
   65MOL   H12432252   5.412   0.495   4.103 -0.2476  0.4623 -3.2835
   65MOL   H12532253   5.472   0.615   4.315  0.7282 -0.1269  0.7187
   65MOL   H12632254   5.613   0.819   4.318  1.5005 -0.1403 -0.0304
   65MOL   C12732255   5.464   1.278   4.222  0.1197 -0.4089 -0.1274
   65MOL   C12832256   5.572   1.384   4.188  0.7141 -0.0532 -0.5022
   65MOL   C12932257   5.579   1.433   4.042  0.1022  0.2479  0.3660
   65MOL   C13032258   5.712   1.324   4.231 -0.3334 -0.1136 -0.3038
   65MOL   O13132259   5.719   1.248   4.326 -0.4411 -0.1618 -0.1183
   65MOL   O13232260   5.815   1.374   4.158  0.5935 -0.0367  0.3997
   65MOL   C13332261   5.953   1.341   4.176 -0.4441 -0.7619  0.8921
   65MOL   C13432262   6.035   1.464   4.200  0.1877 -0.0687 -0.3696
   65MOL   C13532263   6.003   1.556   4.303 -0.4002 -0.0568  0.1549
   65MOL   C13632264   6.096   1.662   4.328  0.6050  0.5200 -0.3850
   65MOL   C13732265   6.220   1.674   4.260  0.0847 -0.5324 -0.1966
   65MOL   C13832266   6.248   1.577   4.162  0.2071 -0.4101 -0.9163
   65MOL   C13932267   6.158   1.474   4.132 -1.1857  0.0168 -0.6398
   65MOL   H14032268   5.482   1.252   4.326  1.7187  1.9639  0.2106
   65MOL   H14132269   5.362   1.318   4.216  0.4050  0.4324  0.5784
   65MOL   H14232270   5.480   1.471   4.015 -0.3756 -2.1091 -1.2581
   65MOL   H14332271   5.610   1.354   3.975  0.3020  0.5729  0.0747
   65MOL   H14432272   5.656   1.508   4.024  2.2043 -2.5329 -2.7374
   65MOL   H14532273   5.974   1.269   4.255  1.5018 -0.0370  1.0593
   65MOL   H14632274   5.988   1.282   4.091  1.1318  0.1384  0.8960
   65MOL   H14732275   5.912   1.547   4.361  0.1785 -2.5711  0.7477
   65MOL   H14832276   6.073   1.730   4.409  1.2141  0.1484  0.1020
   65MOL   H14932277   6.287   1.755   4.284 -0.3214 -0.7767  1.8522
   65MOL   H15032278   6.338   1.579   4.102  0.8542  2.7035  0.0766
   65MOL   H15132279   6.190   1.408   4.053  0.1412  1.5847 -1.4494
   65MOL   C15232280   5.548   1.521   4.271  0.2519  0.4242  0.4376
   65MOL   C15332281   5.502   1.532   4.424  0.6317  0.1292 -0.0339
   65MOL   C15432282   5.593   1.446   4.511  0.9371  0.5405 -0.6189
   65MOL   C15532283   5.356   1.487   4.437 -0.2652 -0.1341  0.0273
   65MOL   O15632284   5.323   1.397   4.514  0.0938 -0.4673  0.8106
   65MOL   O15732285   5.277   1.541   4.347 -0.1578 -0.6707 -0.5232
   65MOL   C15832286   5.147   1.500   4.322  0.7501  0.2946 -0.2521
   65MOL   C15932287   5.076   1.611   4.245  0.4393  0.1966  0.4036
   65MOL   C16032288   4.974   1.694   4.304 -0.3490  0.2628 -0.2870
   65MOL   C16132289   4.908   1.786   4.229 -0.4662 -0.3670  0.1357
   65MOL   C16232290   4.955   1.819   4.100 -1.2521  0.4257 -0.7853
   65MOL   C16332291   5.056   1.740   4.046 -0.1748  0.3258  0.1663
   65MOL   C16432292   5.117   1.631   4.113 -0.5236 -0.7371  0.0126
   65MOL   H16532293   5.487   1.593   4.217  1.9029 -1.2886 -3.9461
   65MOL   H16632294   5.648   1.563   4.267  0.1405  0.6005 -0.5455
   65MOL   H16732295   5.695   1.440   4.474  1.5483 -0.1434  1.0850
   65MOL   H16832296   5.562   1.342   4.521  0.1179  0.9282  1.2114
   65MOL   H16932297   5.583   1.481   4.614  1.9183  1.7272 -0.9141
   65MOL   H17032298   5.153   1.412   4.258 -1.7275  1.1344 -1.7464
   65MOL   H17132299   5.095   1.482   4.416  0.9795  0.9115 -0.0073
   65MOL   H17232300   4.957   1.676   4.409 -1.4217  0.4691 -0.4183
   65MOL   H17332301   4.832   1.846   4.276 -0.3617  0.0412 -0.2126
   65MOL   H17432302   4.895   1.882   4.036  0.6612  0.9926 -2.0804
   65MOL   H17532303   5.091   1.750   3.945  0.5066 -0.6605  0.2923
   65MOL   H17632304   5.200   1.577   4.070 -2.0488 -2.9152 -0.2582
   65MOL   C17732305   5.516   1.688   4.465  0.2007 -0.0098 -0.1254
   65MOL   C17832306   5.418   1.781   4.547 -0.6772 -0.4818 -0.0868
   65MOL   C17932307   5.345   1.708   4.663  0.1688 -0.1369  0.8202
   65MOL   C18032308   5.304   1.844   4.453  0.1547  0.0325 -0.0304
   65MOL   O18132309   5.307   1.840   4.327 -0.0193  0.1354 -0.5236
   65MOL   O18232310   5.209   1.911   4.525  0.4689 -0.5866 -0.0990
   65MOL   C18332311   5.126   2.010   4.464 -0.0580 -0.5199 -0.4125
   65MOL   C18432312   5.170   2.156   4.497 -0.6152  0.5870  0.1849
   65MOL   C18532313   5.184   2.197   4.630  0.0477 -0.5151 -0.3074
   65MOL   C18632314   5.238   2.319   4.669 -0.3492 -0.2315 -0.2472
   65MOL   C18732315   5.308   2.392   4.566  0.5189  0.0916  0.1134
   65MOL   C18832316   5.285   2.357   4.432 -0.1247 -0.1090 -0.6499
   65MOL   C18932317   5.222   2.239   4.396 -1.2403  1.0441 -0.5043
   65MOL   H19032318   5.540   1.736   4.370  0.7925  0.6946  0.3650
   65MOL   H19132319   5.610   1.692   4.521 -0.9628  1.1075  1.8112
   65MOL   H19232320   5.416   1.646   4.718  0.5950  0.8949  1.4469
   65MOL   H19332321   5.263   1.644   4.630  0.4042  1.0952 -2.3536
   65MOL   H19432322   5.298   1.783   4.725 -0.4558 -1.2775  1.7418
   65MOL   H19532323   5.118   2.003   4.356  0.1622  0.9767 -0.5400
   65MOL   H19632324   5.033   1.996   4.519  0.4871 -1.1024  0.3660
   65MOL   H19732325   5.163   2.129   4.711  0.3818 -0.9709 -0.6002
   65MOL   H19832326   5.247   2.347   4.773 -1.3682  1.2427 -0.5301
   65MOL   H19932327   5.365   2.481   4.589  0.6851 -0.1077  0.4756
   65MOL   H20032328   5.332   2.420   4.359 -0.9343 -0.7551 -1.7482
   65MOL   H20132329   5.223   2.204   4.294  1.7191  0.6015 -0.3686
   65MOL   C20232330   5.497   1.896   4.615 -0.3967  0.0857 -0.3342
   65MOL   C20332331   5.617   1.989   4.554  0.4279 -0.4037  0.1890
   65MOL   C20432332   5.571   2.029   4.419  0.1023  0.1404 -0.0782
   65MOL   C20532333   5.753   1.912   4.550 -0.1072  0.8088  0.4635
   65MOL   O20632334   5.827   1.905   4.448  0.5812  0.4239 -0.0916
   65MOL   O20732335   5.775   1.866   4.671  0.3480  0.0940 -0.1390
   65MOL   C20832336   5.900   1.809   4.695 -0.2304 -0.4989 -0.2290
   65MOL   C20932337   5.932   1.794   4.834 -0.5130 -0.1706 -0.3697
   65MOL   C21032338   5.907   1.677   4.907  0.7887 -0.3780 -0.2762
   65MOL   C21132339   5.928   1.684   5.051 -0.3142  0.1569  0.0736
   65MOL   C21232340   5.982   1.795   5.121  0.3756 -0.8102  0.6434
   65MOL   C21332341   5.999   1.909   5.041  0.0975  0.3160  0.1217
   65MOL   C21432342   5.974   1.912   4.899  0.2338 -0.7751 -0.3857
   65MOL   H21532343   5.535   1.853   4.707  0.8806  0.7129 -0.5599
   65MOL   H21632344   5.427   1.970   4.653 -4.0377 -3.9334  1.2393
   65MOL   H21732345   5.562   1.938   4.359 -3.8555  0.2886  0.1026
   65MOL   H21832346   5.650   2.083   4.369 -1.1088  1.0283 -1.0660
   65MOL   H21932347   5.477   2.085   4.419  0.5254  0.8669 -0.6404
   65MOL   H22032348   5.909   1.724   4.626 -3.6295  1.0001 -2.6339
   65MOL   H22132349   5.971   1.879   4.652 -1.9232 -0.0173 -2.3435
   65MOL   H22232350   5.867   1.592   4.853 -0.4810  1.3899 -2.1690
   65MOL   H22332351   5.898   1.600   5.113  1.7334  0.8022  2.0172
   65MOL   H22432352   5.998   1.800   5.227 -0.3744  1.2267  0.6894
   65MOL   H22532353   6.036   1.999   5.088 -2.1641  0.9905  0.6453
   65MOL   H22632354   5.991   2.007   4.849  0.7275 -0.2709  0.7208
   65MOL   C22732355   5.630   2.110   4.655 -0.6485 -0.2838 -0.4338
   65MOL   C22832356   5.736   2.237   4.650  0.5733  0.0817 -1.0333
   65MOL   C22932357   5.675   2.355   4.567  0.0687 -0.7571 -0.7093
   65MOL   C23032358   5.869   2.203   4.580 -0.0432 -0.3335  0.7066
   65MOL   O23132359   5.971   2.182   4.641  0.5098  0.3302 -0.3947
   65MOL   O23232360   5.859   2.208   4.448  0.3557  0.4973 -0.0682
   65MOL   C23332361   5.963   2.170   4.359 -0.6109  0.4953 -0.1433
   65MOL   C23432362   6.033   2.287   4.291  0.3068  0.2454 -0.2204
   65MOL   C23532363   6.033   2.285   4.150  0.5368  0.5444 -0.4592
   65MOL   C23632364   6.093   2.390   4.080 -0.2750  0.6157  0.4646
   65MOL   C23732365   6.169   2.486   4.149 -0.3485 -0.4965  0.6421
   65MOL   C23832366   6.162   2.489   4.289  0.3040  0.4050  0.2039
   65MOL   C23932367   6.096   2.389   4.364  0.0273  0.1993 -0.3612
   65MOL   H24032368   5.636   2.055   4.749 -0.4836 -1.2288 -0.9875
   65MOL   H24132369   5.528   2.148   4.653 -0.4744  0.2420  0.3545
   65MOL   H24232370   5.618   2.325   4.480 -1.1769 -0.8745  0.1414
   65MOL   H24332371   5.744   2.436   4.544 -1.1806  0.2647 -0.9004
   65MOL   H24432372   5.591   2.408   4.612 -0.6305 -1.9454 -0.6002
   65MOL   H24532373   6.034   2.103   4.407 -1.0696 -0.1548 -0.3753
   65MOL   H24632374   5.924   2.113   4.274 -0.8494  2.4353 -1.3742
   65MOL   H24732375   5.985   2.214   4.085 -3.7836  1.5895  1.4062
   65MOL   H24832376   6.080   2.399   3.973 -1.8840  1.0443  0.6830
   65MOL   H24932377   6.207   2.575   4.101  0.6478 -1.7055 -0.8598
   65MOL   H25032378   6.204   2.570   4.345 -1.9644  0.7203  1.5319
   65MOL   H25132379   6.089   2.389   4.471  1.1511 -0.6044 -0.2794
   65MOL   C25232380   5.769   2.275   4.797 -0.1320  0.6388  0.2847
   65MOL   C25332381   5.674   2.356   4.892  0.2024 -0.6004 -0.0255
   65MOL   C25432382   5.531   2.301   4.875  0.7603  0.3534  0.0315
   65MOL   C25532383   5.676   2.507   4.852  0.6640 -0.7251 -0.3840
   65MOL   O25632384   5.576   2.561   4.808  0.2704 -0.1953 -0.6632
   65MOL   O25732385   5.791   2.569   4.876 -0.3678 -0.1221  0.0755
   65MOL   C25832386   5.814   2.688   4.809 -0.4389 -0.0693  0.0050
   65MOL   C25932387   5.960   2.696   4.777  0.0500  0.1674  0.4158
   65MOL   C26032388   6.031   2.803   4.835  0.2400 -0.2414  0.1895
   65MOL   C26132389   6.164   2.820   4.805  1.5043  0.5201  0.2067
   65MOL   C26232390   6.228   2.733   4.708  0.5783  0.1736 -0.3588
   65MOL   C26332391   6.154   2.630   4.654 -0.3973  0.7879  1.5001
   65MOL   C26432392   6.018   2.615   4.682 -0.3243 -0.2918  0.3712
   65MOL   H26532393   5.862   2.332   4.787 -0.5731  1.2491 -0.3694
   65MOL   H26632394   5.801   2.183   4.846  2.8300  1.0882 -0.6580
   65MOL   H26732395   5.492   2.313   4.774  3.3464  0.7105 -0.9630
   65MOL   H26832396   5.463   2.370   4.925 -0.1765  1.1941 -2.3695
   65MOL   H26932397   5.525   2.196   4.906  1.1380 -0.3401 -2.1515
   65MOL   H27032398   5.763   2.696   4.713  1.2149 -1.5177 -1.0370
   65MOL   H27132399   5.777   2.767   4.874 -0.2451  0.7088 -0.8239
   65MOL   H27232400   5.993   2.875   4.906 -1.1542 -2.4429  1.7509
   65MOL   H27332401   6.230   2.892   4.851  0.0370  0.2855  2.8046
   65MOL   H27432402   6.335   2.738   4.694  0.8226 -0.7924  1.0254
   65MOL   H27532403   6.206   2.561   4.590 -1.4084 -1.1008  2.6727
   65MOL   H27632404   5.959   2.530   4.651 -1.5079  0.6854 -0.0713
   65MOL   C27732405   5.730   2.334   5.040 -0.4616  0.2145  0.2575
   65MOL   C27832406   5.659   2.361   5.178  0.4765  0.1414  0.3619
   65MOL   C27932407   5.535   2.273   5.202 -0.0192 -0.4939  0.0897
   65MOL   C28032408   5.608   2.509   5.183 -0.3055 -0.6913  0.2172
   65MOL   O28132409   5.492   2.547   5.209  0.2879 -0.1145 -0.6521
   65MOL   O28232410   5.712   2.595   5.159 -0.6999  0.2604  0.0681
   65MOL   C28332411   5.684   2.736   5.139 -0.8430  0.4217 -0.1823
   65MOL   C28432412   5.727   2.808   5.265 -0.0490  0.8436  0.3935
   65MOL   C28532413   5.853   2.858   5.272  0.4269  0.5826 -0.0596
   65MOL   C28632414   5.888   2.922   5.389  0.2105  0.4844  0.3585
   65MOL   C28732415   5.804   2.923   5.500  0.1757  0.4696  0.3154
   65MOL   C28832416   5.681   2.859   5.499 -0.4475  0.0648 -0.2433
   65MOL   C28932417   5.636   2.811   5.377 -0.3826 -0.9149  0.6172
   65MOL   H29032418   5.831   2.375   5.043  0.8015 -2.9106  2.0952
   65MOL   H29132419   5.740   2.226   5.040 -1.7078  0.0933  0.4615
   65MOL   H29232420   5.438   2.295   5.156 -0.5683 -0.1300  1.4067
   65MOL   H29332421   5.505   2.279   5.306 -1.1897 -0.8388 -0.2167
   65MOL   H29432422   5.570   2.172   5.178 -1.4074 -0.7132 -1.1036
   65MOL   H29532423   5.747   2.769   5.057  1.2707 -1.6395  0.5650
   65MOL   H29632424   5.581   2.758   5.111 -0.6271  1.6058 -0.0829
   65MOL   H29732425   5.915   2.852   5.184  1.4468 -0.3559  0.7180
   65MOL   H29832426   5.988   2.958   5.409  0.4440  1.2060 -1.9289
   65MOL   H29932427   5.848   2.973   5.585 -0.5639  2.0111 -0.1745
   65MOL   H30032428   5.621   2.846   5.588 -0.2191  0.9836  0.0547
   65MOL   H30132429   5.540   2.761   5.377 -0.2086 -1.2495  1.9318
   65MOL   C30232430   5.768   2.363   5.293  0.0371 -0.7183 -0.0655
   65MOL   C30332431   5.817   2.232   5.365 -0.1039  0.0419  0.0143
   65MOL   C30432432   5.860   2.134   5.265  0.2122 -0.5439  0.0316
   65MOL   C30532433   5.700   2.184   5.449  0.0358  0.5872 -0.6801
   65MOL   O30632434   5.655   2.071   5.449  0.4353 -0.0253 -0.3541
   65MOL   O30732435   5.639   2.279   5.530 -0.4119  0.3977 -0.2505
   65MOL   C30832436   5.515   2.255   5.585 -0.0975 -0.7748  0.0591
   65MOL   C30932437   5.456   2.382   5.649  0.0228  0.1099  0.0570
   65MOL   C31032438   5.400   2.372   5.778  0.4229 -0.4633  0.5195
   65MOL   C31132439   5.351   2.490   5.839  0.1666  0.7205  0.4485
   65MOL   C31232440   5.364   2.613   5.775 -0.7881  0.1660  1.2797
   65MOL   C31332441   5.409   2.621   5.641  0.2072 -0.3573 -0.0156
   65MOL   C31432442   5.458   2.507   5.574  0.8428 -0.0275 -0.5715
   65MOL   H31532443   5.739   2.429   5.375  1.4927 -1.0089  0.7057
   65MOL   H31632444   5.857   2.417   5.262 -1.2285  1.7581  0.4108
   65MOL   H31732445   5.777   2.082   5.216 -0.7902  0.1143  1.0068
   65MOL   H31832446   5.920   2.053   5.304  0.0167  0.1899  1.9147
   65MOL   H31932447   5.924   2.173   5.185  0.3854  0.7328  0.7881
   65MOL   H32032448   5.458   2.212   5.503  0.9870 -2.6542  0.2527
   65MOL   H32132449   5.524   2.177   5.661 -0.1231  2.2347  3.3064
   65MOL   H32232450   5.393   2.274   5.823 -0.9834 -0.7150 -0.1978
   65MOL   H32332451   5.313   2.479   5.939 -0.5015 -1.9953 -0.0503
   65MOL   H32432452   5.323   2.703   5.818 -1.2865  1.1052 -1.1256
   65MOL   H32532453   5.392   2.712   5.587  0.0497  0.6398  1.6856
   65MOL   H32632454   5.481   2.509   5.469  1.0658  0.3212 -0.5181
   65MOL   C32732455   5.942   2.282   5.453  0.6561 -0.3064 -0.4216
   65MOL   C32832456   5.993   2.213   5.576 -0.5202 -0.3828 -0.2540
   65MOL   C32932457   6.019   2.060   5.542 -0.4317  0.2733 -0.8123
   65MOL   C33032458   5.900   2.211   5.707  0.7608  0.1053  0.3776
   65MOL   O33132459   5.854   2.105   5.753  0.7501 -0.3639  0.5007
   65MOL   O33232460   5.864   2.333   5.748  0.0707 -0.2331 -0.6229
   65MOL   C33332461   5.760   2.340   5.848 -1.1667  0.4996 -0.1180
   65MOL   C33432462   5.770   2.469   5.921 -0.1056  0.5059  0.4550
   65MOL   C33532463   5.789   2.588   5.856  0.2939 -0.0872  0.2980
   65MOL   C33632464   5.801   2.709   5.919  1.0394 -0.2903  0.4378
   65MOL   C33732465   5.799   2.710   6.057 -0.3952 -0.5072 -0.0454
   65MOL   C33832466   5.761   2.597   6.127  0.0897 -0.6069 -0.0172
   65MOL   C33932467   5.742   2.472   6.055  0.5874 -0.1415  0.1412
   65MOL   H34032468   5.919   2.384   5.484 -0.6557 -0.7484  0.1020
   65MOL   H34132469   6.027   2.290   5.386 -0.3999 -0.4618 -1.8029
   65MOL   H34232470   6.045   2.005   5.633  0.0802  0.7050 -0.6912
   65MOL   H34332471   6.096   2.046   5.466 -0.3543  0.1440 -0.7103
   65MOL   H34432472   5.926   2.016   5.507 -0.1619  0.2573 -1.5177
   65MOL   H34532473   5.667   2.338   5.792 -0.6879  2.2996 -0.9968
   65MOL   H34632474   5.761   2.258   5.920 -1.2118  0.1127 -0.5529
   65MOL   H34732475   5.789   2.586   5.748  0.2567 -1.8089  0.3163
   65MOL   H34832476   5.819   2.804   5.870  1.4607 -0.0539  1.0403
   65MOL   H34932477   5.802   2.803   6.110  0.7477  0.1180 -1.1770
   65MOL   H35032478   5.747   2.608   6.234 -1.8710  1.1229 -0.4168
   65MOL   H35132479   5.705   2.386   6.109 -0.5420  0.0359 -0.3414
   65MOL   C35232480   6.144   2.264   5.620  0.2026 -0.0423 -0.3940
   65MOL   C35332481   6.182   2.419   5.628  0.1334  0.7154 -0.2398
   65MOL   C35432482   6.078   2.501   5.706  0.2875  0.1805  0.5269
   65MOL   C35532483   6.194   2.483   5.488  0.3313  0.1427  0.5141
   65MOL   O35632484   6.177   2.600   5.471  0.0629 -0.5185  0.0487
   65MOL   O35732485   6.235   2.410   5.382 -0.6846 -0.1915  0.7241
   65MOL   C35832486   6.242   2.474   5.254  0.2356 -0.5991  0.7323
   65MOL   C35932487   6.260   2.371   5.147  0.1858  0.0804 -0.9395
   65MOL   C36032488   6.152   2.340   5.064 -0.3692  0.5801 -0.0181
   65MOL   C36132489   6.168   2.252   4.957  0.3854  0.5094 -0.7415
   65MOL   C36232490   6.291   2.191   4.941  0.6778 -0.0797  0.8003
   65MOL   C36332491   6.403   2.229   5.024  0.2416  0.4098 -0.5490
   65MOL   C36432492   6.384   2.313   5.133 -0.2903 -0.9536 -0.2154
   65MOL   H36532493   6.217   2.215   5.556 -0.9738  0.5632 -2.2128
   65MOL   H36632494   6.172   2.225   5.719 -0.2414  0.2231 -0.1642
   65MOL   H36732495   6.117   2.602   5.718  0.0641  0.4442 -0.8194
   65MOL   H36832496   6.058   2.452   5.800 -0.8219 -1.1270 -0.3757
   65MOL   H36932497   5.982   2.513   5.655 -0.4603 -1.0024  1.6498
   65MOL   H37032498   6.151   2.532   5.241 -0.7762 -2.2565  0.3178
   65MOL   H37132499   6.335   2.530   5.257  1.6981 -2.9574  0.6603
   65MOL   H37232500   6.059   2.395   5.064 -0.6051  0.1904  0.2733
   65MOL   H37332501   6.091   2.221   4.888 -0.9736 -1.1809  1.4557
   65MOL   H37432502   6.300   2.117   4.863  0.3167  0.6904  0.0253
   65MOL   H37532503   6.492   2.175   4.996 -0.7665 -0.4242 -2.2777
   65MOL   H37632504   6.463   2.335   5.204  2.0775  0.4681 -3.2080
   65MOL   C37732505   6.315   2.434   5.714 -0.6618 -0.0482 -0.1042
   65MOL   C37832506   6.461   2.394   5.673 -0.0012  0.8592  0.2636
   65MOL   C37932507   6.515   2.499   5.575 -0.5955  0.3271 -0.0791
   65MOL   C38032508   6.469   2.252   5.604  0.4261  0.3442 -0.1642
   65MOL   O38132509   6.511   2.232   5.490 -0.3898  0.1085  0.4400
   65MOL   O38232510   6.438   2.153   5.691  0.0683  0.4325 -0.0535
   65MOL   C38332511   6.451   2.020   5.656  0.1648 -0.3084  0.0427
   65MOL   C38432512   6.447   1.930   5.775  0.0103 -0.2961 -0.8467
   65MOL   C38532513   6.380   1.807   5.757 -0.1611 -0.1387 -0.5726
   65MOL   C38632514   6.376   1.715   5.864 -0.0259  0.1117 -0.2485
   65MOL   C38732515   6.433   1.752   5.986 -0.1912  0.4441 -0.8243
   65MOL   C38832516   6.497   1.873   6.008 -1.3328 -0.3579  0.0367
   65MOL   C38932517   6.498   1.966   5.897  0.0895 -0.4932 -0.1412
   65MOL   H39032518   6.290   2.392   5.811 -0.7322  0.0949 -0.0602
   65MOL   H39132519   6.312   2.538   5.747 -1.9917 -0.5846  1.5687
   65MOL   H39232520   6.461   2.497   5.480  0.5852 -1.6102 -0.7379
   65MOL   H39332521   6.619   2.479   5.549 -0.0194  1.1270  1.5837
   65MOL   H39432522   6.501   2.593   5.628 -0.2856  0.4878 -0.2825
   65MOL   H39532523   6.372   1.992   5.585 -1.5168  1.2271  1.2526
   65MOL   H39632524   6.549   2.003   5.612  0.2310  0.8946 -0.2816
   65MOL   H39732525   6.344   1.775   5.661  1.2862  1.5957 -1.7275
   65MOL   H39832526   6.326   1.620   5.850 -0.3933  0.2784 -0.0573
   65MOL   H39932527   6.425   1.680   6.066 -0.2963  0.6396 -0.6613
   65MOL   H40032528   6.538   1.879   6.108 -0.2397 -0.4616 -0.3946
   65MOL   H40132529   6.550   2.060   5.904 -0.5800 -0.1333 -0.0549
   65MOL   C40232530   6.544   2.416   5.807 -0.0343 -0.4666  0.2512
   65MOL   C40332531   6.701   2.429   5.811 -0.4523  0.2757 -0.0061
   65MOL   C40432532   6.743   2.579   5.774 -0.0114  0.1149 -0.2816
   65MOL   C40532533   6.770   2.323   5.721 -0.9423 -0.3783 -1.2361
   65MOL   O40632534   6.836   2.359   5.626  0.1695 -0.2858  0.2091
   65MOL   O40732535   6.776   2.198   5.771  0.0261  0.4098 -0.3641
   65MOL   C40832536   6.836   2.090   5.703 -0.7943  0.3785  0.1486
   65MOL   C40932537   6.976   2.062   5.752 -0.0341 -0.6129 -0.7476
   65MOL   C41032538   7.093   2.106   5.678 -0.4055 -0.5556 -0.8048
   65MOL   C41132539   7.218   2.079   5.741  0.1710  0.1498 -0.4234
   65MOL   C41232540   7.232   2.022   5.869 -0.4035  1.4916 -0.4145
   65MOL   C41332541   7.120   1.976   5.935 -0.3670 -0.0898 -0.0016
   65MOL   C41432542   6.993   1.994   5.876 -0.1738  0.0155 -0.6845
   65MOL   H41532543   6.518   2.336   5.877 -1.3501  0.5633  0.9562
   65MOL   H41632544   6.509   2.510   5.848  0.2753 -0.5815  0.7861
   65MOL   H41732545   6.851   2.595   5.772 -0.2837  2.5279  2.0426
   65MOL   H41832546   6.704   2.653   5.844 -1.8512 -0.4850 -0.6420
   65MOL   H41932547   6.720   2.619   5.675 -0.7639  1.5598  0.4711
   65MOL   H42032548   6.771   2.002   5.698 -0.8720  0.3978  0.7348
   65MOL   H42132549   6.851   2.125   5.602 -0.7992 -1.5373 -0.5475
   65MOL   H42232550   7.080   2.140   5.576  0.5342 -1.1354 -1.1238
   65MOL   H42332551   7.306   2.111   5.687 -0.3707  0.0711 -1.3774
   65MOL   H42432552   7.322   2.006   5.926 -0.4594 -0.2146 -0.7832
   65MOL   H42532553   7.134   1.931   6.032 -1.4157  0.0096  0.1988
   65MOL   H42632554   6.904   1.968   5.932 -2.5270  1.6194 -3.4970
   65MOL   C42732555   6.733   2.402   5.959  0.2161  0.1795  0.2538
   65MOL   C42832556   6.871   2.430   6.038 -0.2550 -0.0523 -0.1849
   65MOL   C42932557   6.981   2.369   5.954  1.0152  0.4643  0.8536
   65MOL   C43032558   6.871   2.351   6.169 -0.3605  0.1210 -0.7840
   65MOL   O43132559   6.767   2.308   6.225  0.1747 -0.3307  0.5195
   65MOL   O43232560   6.992   2.329   6.226  0.3517 -0.0203  0.0248
   65MOL   C43332561   6.990   2.284   6.361 -0.2526  0.3370 -0.2302
   65MOL   C43432562   7.126   2.270   6.421 -0.7271 -0.0611 -0.4172
   65MOL   C43532563   7.229   2.218   6.338 -0.7521 -0.3669  0.1151
   65MOL   C43632564   7.358   2.209   6.393 -0.3335  0.3280 -0.4978
   65MOL   C43732565   7.378   2.238   6.530  0.0095 -0.4437 -0.2180
   65MOL   C43832566   7.279   2.290   6.611  0.4715  0.1982 -0.1590
   65MOL   C43932567   7.150   2.311   6.553  0.5133 -0.2710  0.6506
   65MOL   H44032568   6.713   2.296   5.976  0.6688  0.0693  0.0926
   65MOL   H44132569   6.648   2.429   6.022 -0.4714 -1.6165  0.1328
   65MOL   H44232570   6.976   2.262   5.934 -0.3217  0.8673 -1.0290
   65MOL   H44332571   7.074   2.375   6.011  1.7198  0.1084 -0.2360
   65MOL   H44432572   6.991   2.430   5.865 -0.3648 -0.7924 -0.1900
   65MOL   H44532573   6.929   2.352   6.420 -1.1919 -0.9399  0.3260
   65MOL   H44632574   6.948   2.183   6.352  0.4708 -0.1619  1.6731
   65MOL   H44732575   7.220   2.195   6.233  1.3462  1.6547 -0.5509
   65MOL   H44832576   7.452   2.186   6.345  0.4783 -0.0692  1.2456
   65MOL   H44932577   7.475   2.225   6.578 -0.9015 -3.6419  0.9101
   65MOL   H45032578   7.300   2.312   6.715  0.4233  2.4131 -0.5926
   65MOL   H45132579   7.071   2.350   6.616  0.6949  0.6728  0.3012
   65MOL   C45232580   6.900   2.586   6.059  0.6061 -0.5329 -0.4556
   65MOL   C45332581   6.826   2.681   6.167  0.3268  0.2405 -0.0181
   65MOL   C45432582   6.672   2.644   6.170  0.2155  0.3485 -0.0801
   65MOL   C45532583   6.831   2.824   6.115 -0.6166  0.8864 -0.4567
   65MOL   O45632584   6.884   2.913   6.184 -0.2385 -0.3250 -0.3162
   65MOL   O45732585   6.758   2.845   6.008  0.5613 -0.3117  0.4993
   65MOL   C45832586   6.765   2.970   5.934 -0.1266 -0.0470  0.6932
   65MOL   C45932587   6.678   2.975   5.815 -0.0866 -0.0656 -0.3285
   65MOL   C46032588   6.566   3.051   5.821 -0.2418  0.5260 -0.1943
   65MOL   C46132589   6.483   3.053   5.707 -0.3611 -0.2332 -0.0363
   65MOL   C46232590   6.514   2.984   5.597  0.4176  0.6652 -0.0409
   65MOL   C46332591   6.624   2.893   5.600 -0.4783 -0.1195  0.2635
   65MOL   C46432592   6.709   2.892   5.710  0.4546 -0.3165  0.0862
   65MOL   H46532593   6.886   2.630   5.961 -1.5982  1.3628  0.6649
   65MOL   H46632594   7.007   2.590   6.076  0.5348 -0.3014 -0.0633
   65MOL   H46732595   6.659   2.544   6.211 -0.0352 -0.5229 -2.1996
   65MOL   H46832596   6.624   2.644   6.072  0.4817 -0.3213 -0.2076
   65MOL   H46932597   6.617   2.719   6.228 -1.8021  0.2706 -1.8177
   65MOL   H47032598   6.731   3.041   6.009 -0.2713 -2.5892  3.1408
   65MOL   H47132599   6.866   2.985   5.895  0.6761 -2.8451  1.5293
   65MOL   H47232600   6.534   3.114   5.903  1.0597  0.2811  0.5096
   65MOL   H47332601   6.401   3.123   5.707  1.5708  2.0773 -0.5472
   65MOL   H47432602   6.441   2.987   5.518 -0.1713 -2.2586  0.3419
   65MOL   H47532603   6.630   2.821   5.519  0.2589 -0.5890  0.7310
   65MOL   H47632604   6.794   2.826   5.719 -0.4601 -1.5144  0.1196
   65MOL   C47732605   6.904   2.658   6.301 -0.0430  0.5703  0.6218
   65MOL   C47832606   6.845   2.725   6.427 -0.8821 -0.2318  0.2908
   65MOL   C47932607   6.960   2.702   6.530  0.2571  0.3309  0.7002
   65MOL   C48032608   6.710   2.672   6.479  0.4987  0.2703  0.6830
   65MOL   O48132609   6.620   2.746   6.511 -0.3973  0.3848  0.1653
   65MOL   O48232610   6.712   2.543   6.476  0.0761  0.3902 -0.8727
   65MOL   C48332611   6.590   2.468   6.500  0.5217 -0.1702  0.1474
   65MOL   C48432612   6.619   2.322   6.520  0.8983 -0.6465 -0.4041
   65MOL   C48532613   6.728   2.281   6.601  0.3755  0.0451  0.0081
   65MOL   C48632614   6.755   2.141   6.610  0.4305  1.2656 -0.1126
   65MOL   C48732615   6.666   2.041   6.555 -0.0162 -0.3219 -0.1343
   65MOL   C48832616   6.559   2.085   6.471 -0.5815  0.4424 -0.5850
   65MOL   C48932617   6.538   2.224   6.455  0.5943 -0.4459  0.3114
   65MOL   H49032618   7.011   2.668   6.284 -0.1468  0.0149 -0.3693
   65MOL   H49132619   6.891   2.551   6.319 -0.0224  0.2045 -1.3930
   65MOL   H49232620   7.053   2.741   6.489  0.3114  1.8409  2.1670
   65MOL   H49332621   6.971   2.595   6.545  0.4404  0.1403 -0.7257
   65MOL   H49432622   6.944   2.755   6.624  0.0140 -0.3214  1.0278
   65MOL   H49532623   6.539   2.500   6.591 -0.3654 -1.4989  0.1211
   65MOL   H49632624   6.515   2.480   6.421 -1.1815 -1.1703  1.5723
   65MOL   H49732625   6.790   2.356   6.649 -0.3766  0.8961 -0.3377
   65MOL   H49832626   6.834   2.114   6.678  0.4904 -0.4579 -0.8423
   65MOL   H49932627   6.682   1.934   6.551 -0.1528 -0.3459 -0.0423
   65MOL   H50032628   6.499   2.016   6.412  0.4950 -1.1767  0.1676
   65MOL   H50132629   6.459   2.259   6.390  1.0607  0.2792  0.1319
   65MOL   H50232630   6.833   2.832   6.409 -4.3928 -0.5903  0.1475
   66MOL     C132631   0.408   0.711   1.719 -0.0701 -0.1347  0.3297
   66MOL     C232632   0.487   0.587   1.769  0.2846  0.5737  0.5537
   66MOL     C332633   0.395   0.547   1.892 -0.2081  0.3957  0.7277
   66MOL     C432634   0.630   0.620   1.821  0.8350 -0.5041 -0.3557
   66MOL     O532635   0.657   0.610   1.942 -0.2141 -0.6127 -0.5591
   66MOL     O632636   0.706   0.683   1.729  0.0511  0.4885  0.3362
   66MOL     C732637   0.842   0.717   1.754 -0.3139 -0.5435 -0.0826
   66MOL     C832638   0.864   0.848   1.827  0.0686  0.4251 -0.4615
   66MOL     C932639   0.794   0.959   1.788  0.1990  0.1523  0.1327
   66MOL    C1032640   0.808   1.077   1.860  0.1452 -0.4898 -0.1466
   66MOL    C1132641   0.909   1.087   1.958  0.6920 -0.4467 -0.0580
   66MOL    C1232642   0.984   0.977   1.994  0.4641 -0.0199  0.2248
   66MOL    C1332643   0.963   0.858   1.927 -0.2970  0.4927 -0.1483
   66MOL    H1432644   0.322   0.673   1.665  1.0565 -3.2957  0.6683
   66MOL    H1532645   0.374   0.775   1.800  0.2353  3.3067 -2.1322
   66MOL    H1632646   0.426   0.464   1.955 -1.0618 -0.2587  0.2889
   66MOL    H1732647   0.291   0.541   1.858  0.3128 -0.0041 -0.8179
   66MOL    H1832648   0.403   0.625   1.968 -0.1168  0.0462  1.0727
   66MOL    H1932649   0.895   0.642   1.812  0.2317  0.4197  0.6801
   66MOL    H2032650   0.890   0.722   1.657 -0.9573  1.8107 -0.3087
   66MOL    H2132651   0.724   0.947   1.707 -0.5459 -2.1228  1.0781
   66MOL    H2232652   0.755   1.165   1.827 -2.7497 -2.7196 -1.6486
   66MOL    H2332653   0.933   1.186   1.995 -0.7296 -0.2468  0.3670
   66MOL    H2432654   1.047   0.977   2.082  0.4939 -0.3519  0.2033
   66MOL    H2532655   1.020   0.776   1.967 -1.6034 -0.8158 -0.9299
   66MOL    H2632656   0.473   0.768   1.652 -0.1847  0.1558  0.4617
   66MOL    C2732657   0.488   0.476   1.652  0.4379 -0.1482 -0.0280
   66MOL    C2832658   0.549   0.334   1.659  0.4334 -0.2628 -0.4615
   66MOL    C2932659   0.541   0.280   1.803  0.4946  0.3221 -0.0728
   66MOL    C3032660   0.705   0.330   1.618  0.7956 -0.1300 -0.2830
   66MOL    O3132661   0.767   0.223   1.623  0.2472 -0.1020 -0.0810
   66MOL    O3232662   0.757   0.442   1.568 -0.3647 -0.0314 -0.3663
   66MOL    C3332663   0.893   0.446   1.521  0.0470  0.1897 -0.4747
   66MOL    C3432664   0.923   0.551   1.410  0.2371 -0.2019 -0.7406
   66MOL    C3532665   1.051   0.564   1.356 -0.7603 -0.1369 -0.0282
   66MOL    C3632666   1.079   0.669   1.262 -0.2326 -0.1226  0.2678
   66MOL    C3732667   0.974   0.742   1.219  0.9144  0.5531 -0.3073
   66MOL    C3832668   0.850   0.736   1.278 -0.0358 -0.1671  0.0810
   66MOL    C3932669   0.823   0.642   1.383  0.4516  0.0532  0.3131
   66MOL    H4032670   0.517   0.522   1.557  1.2372 -0.3771  0.0999
   66MOL    H4132671   0.380   0.467   1.642  0.3083  0.8043  0.4084
   66MOL    H4232672   0.583   0.179   1.797  0.7506  0.3867  0.5524
   66MOL    H4332673   0.437   0.254   1.822  0.4546  0.9523  0.5550
   66MOL    H4432674   0.594   0.335   1.881 -0.7628  0.5220  0.6590
   66MOL    H4532675   0.965   0.465   1.602  2.2004  1.2659 -2.5882
   66MOL    H4632676   0.908   0.346   1.479 -1.2389  0.0786 -0.6915
   66MOL    H4732677   1.131   0.504   1.398 -0.9490 -0.0986  0.3809
   66MOL    H4832678   1.172   0.684   1.209  1.3324 -2.0257  2.3747
   66MOL    H4932679   1.001   0.813   1.142 -1.7559  1.5381 -0.3937
   66MOL    H5032680   0.779   0.813   1.252  2.3084  1.6058 -1.2174
   66MOL    H5132681   0.738   0.649   1.449  0.2553  2.5640 -0.1593
   66MOL    C5232682   0.467   0.236   1.572 -0.0596 -0.1921  0.0889
   66MOL    C5332683   0.429   0.247   1.418  0.4126 -0.1352 -0.1722
   66MOL    C5432684   0.563   0.270   1.345 -0.1822 -0.4284  0.0482
   66MOL    C5532685   0.324   0.353   1.384 -0.5675  0.1503 -0.2386
   66MOL    O5632686   0.227   0.368   1.458 -0.5563 -0.2317  0.3286
   66MOL    O5732687   0.341   0.407   1.266  0.3618 -0.2339 -0.3159
   66MOL    C5832688   0.246   0.480   1.199  0.1947  0.3028 -0.1083
   66MOL    C5932689   0.255   0.627   1.243  0.2079  0.0633  0.0056
   66MOL    C6032690   0.155   0.722   1.218 -0.0269  0.7584  0.5831
   66MOL    C6132691   0.153   0.849   1.272 -0.2671 -0.3146  0.6284
   66MOL    C6232692   0.263   0.892   1.349 -0.4460  0.9401  0.6953
   66MOL    C6332693   0.368   0.803   1.368 -0.5258  0.5596  0.6263
   66MOL    C6432694   0.368   0.672   1.310  0.3572  0.3950  0.2661
   66MOL    H6532695   0.367   0.234   1.614  0.3844  0.7634  1.2076
   66MOL    H6632696   0.512   0.137   1.582  0.7369  0.3960  2.4024
   66MOL    H6732697   0.540   0.284   1.239 -0.6192 -1.3843  0.0122
   66MOL    H6832698   0.619   0.177   1.349 -0.1287 -0.3210  3.3651
   66MOL    H6932699   0.626   0.354   1.375  1.2736 -1.3535 -0.3766
   66MOL    H7032700   0.251   0.476   1.090 -0.3410 -0.1030 -0.1168
   66MOL    H7132701   0.149   0.439   1.224  0.1830 -0.1128 -0.8263
   66MOL    H7232702   0.075   0.695   1.150  0.9417 -0.3247 -0.1488
   66MOL    H7332703   0.072   0.916   1.248  0.5017 -0.4006 -2.4594
   66MOL    H7432704   0.267   0.997   1.374  2.0594  1.0584 -0.0354
   66MOL    H7532705   0.457   0.831   1.422 -0.9046  1.6479  0.7148
   66MOL    H7632706   0.452   0.605   1.307 -1.0597 -1.3671 -0.9174
   66MOL    C7732707   0.368   0.101   1.382  0.0987  0.5165 -0.7987
   66MOL    C7832708   0.317   0.049   1.244 -0.1791 -0.7240 -0.1081
   66MOL    C7932709   0.434   0.060   1.142 -0.3062 -0.0527  0.5150
   66MOL    C8032710   0.197   0.118   1.180  0.3864  0.6012 -0.2406
   66MOL    O8132711   0.125   0.191   1.245  0.5723  0.1643  0.7002
   66MOL    O8232712   0.178   0.085   1.055 -0.3809 -0.2502  0.3858
   66MOL    C8332713   0.060   0.121   0.987  0.1624  0.0083  0.2417
   66MOL    C8432714   7.974   0.001   0.978 -0.5700 -0.2173  0.2576
   66MOL    C8532715   7.841   0.024   0.970 -0.4439  0.5709 -0.3547
   66MOL    C8632716   7.748   7.926   0.980 -0.0047 -0.1738  0.9992
   66MOL    C8732717   7.792   7.790   0.989 -0.1272 -0.6391 -0.8691
   66MOL    C8832718   7.932   7.764   0.990  0.5966  0.4990 -0.0622
   66MOL    C8932719   0.014   7.879   0.978  0.0091 -0.7661 -0.2721
   66MOL    H9032720   0.283   0.097   1.450  0.3102  0.7342 -0.5146
   66MOL    H9132721   0.447   0.035   1.420 -0.0042  1.2542  0.7496
   66MOL    H9232722   0.456   0.157   1.098  1.0937 -0.3576  0.5361
   66MOL    H9332723   0.408   8.005   1.056 -0.3556 -0.6571  0.9532
   66MOL    H9432724   0.527   0.023   1.186  0.9660  0.4943 -1.6767
   66MOL    H9532725   0.012   0.206   1.036  0.9404  1.1083 -0.8596
   66MOL    H9632726   0.089   0.159   0.890  1.9537 -0.7533  0.4490
   66MOL    H9732727   7.809   0.125   0.950 -0.5931  0.3925 -1.0251
   66MOL    H9832728   7.641   7.940   0.976 -0.2833 -1.6933  2.6919
   66MOL    H9932729   7.726   7.706   1.004  0.5833 -0.8386  1.4302
   66MOL   H10032730   7.971   7.664   0.998 -1.1944 -0.0389  2.5837
   66MOL   H10132731   0.119   7.861   0.960  0.2768 -0.8479  1.3095
   66MOL   C10232732   0.285   7.900   1.255 -0.2751 -0.0965 -0.2914
   66MOL   C10332733   0.190   7.843   1.374 -0.0908  0.2389  0.3740
   66MOL   C10432734   0.059   7.925   1.393  0.8031  0.0809  0.1250
   66MOL   C10532735   0.265   7.838   1.504 -0.2908 -0.0018  0.1722
   66MOL   O10632736   0.219   7.875   1.610  0.5648 -0.1962  0.8563
   66MOL   O10732737   0.389   7.786   1.494  0.0198 -0.6617  0.1530
   66MOL   C10832738   0.486   7.792   1.601 -0.1698 -0.1605  0.4599
   66MOL   C10932739   0.635   7.788   1.550  0.2248  0.2843  0.0180
   66MOL   C11032740   0.730   7.858   1.623  0.0383  0.0122 -0.0121
   66MOL   C11132741   0.857   7.873   1.576  0.1360 -0.5582  0.1102
   66MOL   C11232742   0.886   7.819   1.446 -1.1411 -0.3785 -0.8628
   66MOL   C11332743   0.791   7.753   1.374 -0.5234  0.1393  0.2443
   66MOL   C11432744   0.663   7.727   1.422  0.2039  0.1585 -0.5583
   66MOL   H11532745   0.379   7.845   1.254  0.0285  0.3937  0.5610
   66MOL   H11632746   0.247   7.873   1.156  0.7213  3.0106 -1.6277
   66MOL   H11732747   0.005   7.884   1.478  2.0815 -2.0465 -0.0462
   66MOL   H11832748   0.001   7.921   1.301  1.9011  2.4064 -0.7187
   66MOL   H11932749   0.073   0.024   1.413  1.1718  0.0037  0.2874
   66MOL   H12032750   0.471   7.878   1.666  0.5776 -1.3398  2.2348
   66MOL   H12132751   0.467   7.700   1.656  0.5957 -2.1930 -2.5259
   66MOL   H12232752   0.701   7.903   1.717 -1.6209 -1.5893  0.2729
   66MOL   H12332753   0.930   7.928   1.634  0.9595  0.4020 -1.7790
   66MOL   H12432754   0.984   7.836   1.403 -0.2881 -0.2937  1.0442
   66MOL   H12532755   0.819   7.709   1.280  2.6699 -0.3075  1.3746
   66MOL   H12632756   0.585   7.686   1.359 -1.1346  1.6680  0.1057
   66MOL   C12732757   0.147   7.701   1.339 -0.5405 -0.0661  0.2294
   66MOL   C12832758   0.088   7.588   1.432 -0.2117 -0.2423 -0.8123
   66MOL   C12932759   0.206   7.524   1.511 -0.5744  0.1727  0.6868
   66MOL   C13032760   0.043   7.478   1.332 -0.2598  0.5743 -0.3533
   66MOL   O13132761   0.104   7.371   1.323  0.0758 -0.1453 -0.6282
   66MOL   O13232762   7.932   7.492   1.266  0.4000  0.0790 -0.0954
   66MOL   C13332763   7.893   7.391   1.178  0.2574 -0.0959 -0.0210
   66MOL   C13432764   7.748   7.417   1.131 -0.1757  0.3540  0.4633
   66MOL   C13532765   7.646   7.450   1.229  0.0050  0.6263 -0.2986
   66MOL   C13632766   7.511   7.473   1.189 -1.3725 -0.5578 -0.2071
   66MOL   C13732767   7.479   7.466   1.050 -0.3271  0.5817  0.8059
   66MOL   C13832768   7.577   7.427   0.958 -0.2879  0.4430  0.2704
   66MOL   C13932769   7.711   7.411   0.998  0.0063  0.8442  0.4173
   66MOL   H14032770   0.233   7.660   1.287 -0.2885  2.1126 -1.1466
   66MOL   H14132771   0.070   7.712   1.263  0.1100  2.5491 -0.0814
   66MOL   H14232772   0.214   7.572   1.609 -0.3477 -0.1742  0.8387
   66MOL   H14332773   0.307   7.534   1.472 -0.8541 -1.2972 -0.4540
   66MOL   H14432774   0.179   7.426   1.552  1.8892 -0.8103  0.0410
   66MOL   H14532775   7.946   7.394   1.084 -1.4955  0.1565 -1.0280
   66MOL   H14632776   7.894   7.297   1.234 -0.7878 -0.6605 -0.9195
   66MOL   H14732777   7.672   7.461   1.334 -1.4756 -0.7370  0.2285
   66MOL   H14832778   7.449   7.502   1.273  1.1303  1.7472  0.9160
   66MOL   H14932779   7.378   7.467   1.013 -0.1695 -0.4456  0.3385
   66MOL   H15032780   7.548   7.416   0.855  0.9173 -0.3197  0.0081
   66MOL   H15132781   7.786   7.371   0.931 -1.5900 -1.9819  0.2500
   66MOL   C15232782   7.979   7.633   1.521  0.5845  0.1974 -0.1299
   66MOL   C15332783   7.918   7.552   1.636  0.2296  0.6320 -0.6572
   66MOL   C15432784   7.906   7.402   1.595  0.6107  0.0499  0.1319
   66MOL   C15532785   7.772   7.608   1.660 -0.0052  0.1342  0.4095
   66MOL   O15632786   7.676   7.530   1.656  0.1282  0.1757  0.4845
   66MOL   O15732787   7.764   7.737   1.672 -0.7323 -0.1057 -0.2100
   66MOL   C15832788   7.635   7.799   1.685 -0.6794 -0.3851  0.4265
   66MOL   C15932789   7.629   7.941   1.646 -0.0804 -0.8533  0.1311
   66MOL   C16032790   7.713   7.989   1.549  0.4293 -0.6273  0.8394
   66MOL   C16132791   7.715   0.123   1.517 -0.0380 -0.3827 -0.2297
   66MOL   C16232792   7.628   0.213   1.583  0.3892 -0.2220  0.5905
   66MOL   C16332793   7.547   0.167   1.685 -0.0752  1.0772  0.0111
   66MOL   C16432794   7.549   0.028   1.713  0.4326  0.5499  0.0275
   66MOL   H16532795   7.894   7.656   1.456  1.0921 -0.6969 -1.1167
   66MOL   H16632796   8.002   7.720   1.584 -1.0899 -0.1383  0.9843
   66MOL   H16732797   7.999   7.348   1.582  1.2247  0.9333  0.8131
   66MOL   H16832798   7.850   7.393   1.502 -1.5006  3.7494  0.9205
   66MOL   H16932799   7.851   7.345   1.670  1.0279  1.4047  1.4894
   66MOL   H17032800   7.566   7.749   1.617 -0.6395 -1.7255  1.3534
   66MOL   H17132801   7.593   7.776   1.783 -2.3088  1.7374  0.2649
   66MOL   H17232802   7.780   7.925   1.492 -2.4980 -1.9241 -1.2916
   66MOL   H17332803   7.778   0.151   1.433  0.1075 -0.0462 -0.0117
   66MOL   H17432804   7.625   0.320   1.569 -1.1275 -0.2808  0.3837
   66MOL   H17532805   7.483   0.229   1.746 -1.4236 -0.9088  0.6336
   66MOL   H17632806   7.492   7.987   1.791  0.8122 -1.0606 -0.6500
   66MOL   C17732807   0.000   7.556   1.767  0.1039  0.5173 -0.4094
   66MOL   C17832808   7.943   7.534   1.915  0.2792 -0.3346  0.1794
   66MOL   C17932809   7.859   7.403   1.914 -0.4040 -0.9767  0.0753
   66MOL   C18032810   7.852   7.654   1.970  0.2476 -0.2823 -0.5188
   66MOL   O18132811   7.754   7.629   2.037  0.7204 -0.5514  0.6861
   66MOL   O18232812   7.889   7.777   1.927 -0.4598 -0.0269  0.2266
   66MOL   C18332813   7.825   7.896   1.972  0.7091  0.5166  0.2645
   66MOL   C18432814   7.892   0.014   1.917  0.0483 -0.2032  0.3954
   66MOL   C18532815   7.996   8.007   1.822 -0.0763  0.0588  0.3399
   66MOL   C18632816   0.060   0.105   1.770  0.8181 -0.5303  0.1439
   66MOL   C18732817   0.033   0.232   1.810 -0.5846 -0.4079  0.0031
   66MOL   C18832818   7.936   0.257   1.905  0.4651 -0.4785  0.7868
   66MOL   C18932819   7.861   0.146   1.954  0.6021  0.0420 -0.3998
   66MOL   H19032820   0.062   7.646   1.773  1.3101 -0.4411  2.4122
   66MOL   H19132821   0.078   7.479   1.766 -0.1174  0.3012 -1.3722
   66MOL   H19232822   7.843   7.366   2.016 -0.7442  1.2701  0.8743
   66MOL   H19332823   7.912   7.323   1.864  0.3206 -0.0271 -0.6982
   66MOL   H19432824   7.760   7.410   1.868  0.3445 -2.3307 -1.8043
   66MOL   H19532825   7.722   7.900   1.939  1.2215 -2.3752 -1.9489
   66MOL   H19632826   7.826   7.900   2.081 -1.0630 -0.4628  0.3424
   66MOL   H19732827   0.024   7.910   1.792  2.1357  1.0052 -0.2356
   66MOL   H19832828   0.142   0.082   1.703  0.7379 -1.1273  0.2442
   66MOL   H19932829   0.098   0.307   1.767 -1.3948  0.3914  0.1702
   66MOL   H20032830   7.918   0.362   1.921 -0.6727 -0.1601 -2.1745
   66MOL   H20132831   7.779   0.172   2.021  0.5266  0.7544 -0.7551
   66MOL   C20232832   0.043   7.501   2.020  0.7379 -0.4337  0.2116
   66MOL   C20332833   0.180   7.578   2.047 -0.4251 -0.5074 -0.1902
   66MOL   C20432834   0.149   7.731   2.057 -0.5871  0.6608  0.6628
   66MOL   C20532835   0.282   7.544   1.940  0.3896 -0.2975  0.6048
   66MOL   O20632836   0.356   7.628   1.882 -0.3760  0.7584 -0.2877
   66MOL   O20732837   0.290   7.406   1.920 -0.2692  0.0476  0.1299
   66MOL   C20832838   0.363   7.345   1.815 -0.0237 -0.2269 -1.0413
   66MOL   C20932839   0.338   7.197   1.807 -0.1776 -0.3321 -0.2799
   66MOL   C21032840   0.205   7.155   1.800 -0.2808 -0.4639 -0.3121
   66MOL   C21132841   0.172   7.017   1.791 -0.2591 -0.5022  0.0667
   66MOL   C21232842   0.281   6.924   1.800 -0.8004  0.6787  0.3146
   66MOL   C21332843   0.420   6.966   1.813 -0.4557 -0.2056 -0.0583
   66MOL   C21432844   0.444   7.104   1.806  0.3330 -0.1875 -1.1581
   66MOL   H21532845   0.059   7.393   2.013  0.3779 -0.5467  1.1739
   66MOL   H21632846   7.996   7.509   2.113 -0.1966  0.9503 -0.4440
   66MOL   H21732847   0.234   7.779   2.105  0.9702 -2.6787  1.3724
   66MOL   H21832848   0.062   7.747   2.120 -1.4629  0.5784 -0.5016
   66MOL   H21932849   0.135   7.766   1.955  1.2263 -0.0361  0.1652
   66MOL   H22032850   0.345   7.395   1.721  1.8340 -2.9934 -2.9667
   66MOL   H22132851   0.469   7.354   1.839 -0.6693 -0.8504  2.3806
   66MOL   H22232852   0.129   7.231   1.808  2.6303  2.4716  0.6484
   66MOL   H22332853   0.071   6.978   1.780 -1.0338  1.4817 -0.1336
   66MOL   H22432854   0.257   6.819   1.811  2.4751  0.0899  2.4448
   66MOL   H22532855   0.497   6.895   1.837  0.1894  0.1942 -0.9457
   66MOL   H22632856   0.544   7.143   1.814  0.5725 -1.1549  1.0735
   66MOL   C22732857   0.221   7.528   2.189  0.2788 -0.2259  0.1373
   66MOL   C22832858   0.364   7.542   2.262 -0.2452 -0.2574 -0.3950
   66MOL   C22932859   0.431   7.680   2.233  0.7635 -1.0133 -0.1891
   66MOL   C23032860   0.451   7.434   2.201  0.5082 -0.2169  0.4237
   66MOL   O23132861   0.561   7.446   2.139  0.2636  0.0316 -0.2045
   66MOL   O23232862   0.400   7.310   2.224  0.6295  0.7800 -0.2013
   66MOL   C23332863   0.474   7.193   2.174  0.1551  0.4379  0.1889
   66MOL   C23432864   0.438   7.060   2.235 -0.4504 -0.4724  0.1001
   66MOL   C23532865   0.339   6.981   2.175  0.7199  0.1209 -0.3330
   66MOL   C23632866   0.308   6.853   2.229 -0.0973 -0.5359 -0.7864
   66MOL   C23732867   0.381   6.801   2.337  0.1001 -0.3756 -0.3741
   66MOL   C23832868   0.478   6.882   2.396 -0.9044  0.6184 -0.0717
   66MOL   C23932869   0.498   7.014   2.353 -0.7418  0.0922 -0.1760
   66MOL   H24032870   0.189   7.424   2.189 -0.5915  0.0169  2.1682
   66MOL   H24132871   0.152   7.582   2.254  0.6280  0.7846 -0.3167
   66MOL   H24232872   0.375   7.767   2.267  1.9332 -0.2340 -0.2031
   66MOL   H24332873   0.454   7.700   2.128 -1.6175  1.6362 -0.2601
   66MOL   H24432874   0.523   7.695   2.290  0.4006  0.8151 -0.0386
   66MOL   H24532875   0.446   7.185   2.068 -2.2438  0.5555  0.7850
   66MOL   H24632876   0.576   7.224   2.194  0.4163 -0.3194  0.0635
   66MOL   H24732877   0.300   7.011   2.079 -0.6834 -1.4953 -0.2882
   66MOL   H24832878   0.235   6.783   2.189  0.0805 -0.7336 -0.7677
   66MOL   H24932879   0.368   6.697   2.365  1.1560 -0.3375  0.3126
   66MOL   H25032880   0.515   6.852   2.493  0.1034 -0.2589 -0.7200
   66MOL   H25132881   0.568   7.076   2.407 -1.9541  1.8068 -0.5427
   66MOL   C25232882   0.355   7.517   2.415 -0.2960  0.1013  0.8004
   66MOL   C25332883   0.239   7.563   2.507 -0.0899  0.5836  0.3924
   66MOL   C25432884   0.117   7.464   2.491  0.1926  0.5006  0.4317
   66MOL   C25532885   0.196   7.713   2.494  0.5586 -0.5070  0.1712
   66MOL   O25632886   0.078   7.736   2.483 -0.2884 -0.2429  0.2870
   66MOL   O25732887   0.291   7.795   2.515  0.4883 -0.8317  0.8695
   66MOL   C25832888   0.272   7.936   2.493 -0.2273 -0.3335 -0.5814
   66MOL   C25932889   0.329   0.006   2.605 -0.1513  0.3064  0.3035
   66MOL   C26032890   0.252   0.085   2.694  0.2524 -0.2902 -0.0118
   66MOL   C26132891   0.319   0.157   2.789 -0.4065 -0.5048 -0.6465
   66MOL   C26232892   0.459   0.151   2.792 -0.7361  0.4866  0.0451
   66MOL   C26332893   0.534   0.073   2.702 -0.2274  1.0244  0.4827
   66MOL   C26432894   0.471   0.000   2.608  0.4120  0.4092  0.1014
   66MOL   H26532895   0.453   7.552   2.448  0.8363 -0.9806 -1.3410
   66MOL   H26632896   0.368   7.411   2.432 -0.2611  0.4756  3.4027
   66MOL   H26732897   0.063   7.454   2.398  1.0550 -0.7496  0.0531
   66MOL   H26832898   0.040   7.505   2.558 -0.1250 -0.4158  0.6323
   66MOL   H26932899   0.150   7.365   2.522  1.5924  0.4240 -1.2247
   66MOL   H27032900   0.318   7.975   2.402 -0.6843  0.5932 -0.4219
   66MOL   H27132901   0.165   7.955   2.486 -0.5755 -1.5739  1.0597
   66MOL   H27232902   0.144   0.090   2.692  0.2287 -0.3082  0.8994
   66MOL   H27332903   0.257   0.213   2.858 -0.4256 -0.1848 -0.9242
   66MOL   H27432904   0.520   0.194   2.869 -2.1587  1.0327  0.8717
   66MOL   H27532905   0.641   0.058   2.696 -0.1053  1.5441  1.3158
   66MOL   H27632906   0.513   7.941   2.535 -1.2476  0.1262 -0.6255
   66MOL   C27732907   0.309   7.532   2.645  0.3402 -0.4317  0.0159
   66MOL   C27832908   0.232   7.541   2.790 -0.8158 -0.1152  0.3327
   66MOL   C27932909   0.348   7.504   2.889 -0.9831  0.3968 -0.2168
   66MOL   C28032910   0.133   7.424   2.792 -0.1135  0.6246  0.3371
   66MOL   O28132911   0.009   7.446   2.783  0.3873 -0.0192  0.2653
   66MOL   O28232912   0.187   7.307   2.806  0.2240 -0.5248  0.2105
   66MOL   C28332913   0.110   7.187   2.809  0.3112  0.0804  0.4773
   66MOL   C28432914   0.187   7.072   2.872  0.0143  0.5528  0.1182
   66MOL   C28532915   0.226   6.961   2.791  0.3183  0.4780  0.0177
   66MOL   C28632916   0.295   6.851   2.848 -1.0316 -0.0482  0.4446
   66MOL   C28732917   0.334   6.851   2.983  0.0675 -0.7690  0.4328
   66MOL   C28832918   0.295   6.963   3.060  0.1005 -0.3090 -0.0131
   66MOL   C28932919   0.221   7.067   3.004 -0.1430  0.5930 -0.0352
   66MOL   H29032920   0.394   7.599   2.654 -0.9425  1.2021  0.0542
   66MOL   H29132921   0.358   7.434   2.642  0.7786 -0.2340  0.7283
   66MOL   H29232922   0.412   7.422   2.855 -0.5560  0.6945 -0.1239
   66MOL   H29332923   0.310   7.472   2.986  0.7254  0.1852  0.3988
   66MOL   H29432924   0.423   7.580   2.911  1.1028 -1.8623  0.7503
   66MOL   H29532925   0.017   7.196   2.866  1.2730  0.7203  1.9736
   66MOL   H29632926   0.086   7.152   2.709 -1.0047 -1.6444  1.3622
   66MOL   H29732927   0.200   6.969   2.686 -1.4819  3.0075  0.6030
   66MOL   H29832928   0.316   6.764   2.788 -0.9047 -0.5870  1.2552
   66MOL   H29932929   0.384   6.765   3.025  2.1593  0.0175 -0.3753
   66MOL   H30032930   0.320   6.964   3.165 -0.6782  0.1100  0.1742
   66MOL   H30132931   0.190   7.152   3.063 -0.8080 -1.1360  2.1736
   66MOL   C30232932   0.174   7.683   2.818 -0.7161  0.1090  0.3085
   66MOL   C30332933   0.114   7.743   2.961 -0.5195  0.3972  0.1591
   66MOL   C30432934   0.233   7.746   3.063  0.3004 -0.3455  0.0688
   66MOL   C30532935   0.015   7.642   3.017 -0.2753  0.3877 -0.7403
   66MOL   O30632936   7.901   7.644   2.997  0.6629 -0.4873  0.2619
   66MOL   O30732937   0.075   7.537   3.083  0.2883 -0.6717  0.4332
   66MOL   C30832938   7.995   7.438   3.129 -0.5231 -0.0153  0.4020
   66MOL   C30932939   0.067   7.340   3.228  0.2879 -0.4278  0.0898
   66MOL   C31032940   0.014   7.216   3.252 -0.5613  0.3045  0.0415
   66MOL   C31132941   0.072   7.127   3.346  1.6718  0.9765  0.3744
   66MOL   C31232942   0.192   7.166   3.413 -1.3592 -0.2552  0.1042
   66MOL   C31332943   0.254   7.291   3.379  0.2226  0.4816 -0.5468
   66MOL   C31432944   0.188   7.382   3.293 -0.8464  0.1768  0.5969
   66MOL   H31532945   0.090   7.688   2.749  0.6856  0.8028 -1.3957
   66MOL   H31632946   0.247   7.755   2.781  0.9862 -2.2563 -1.1673
   66MOL   H31732947   0.311   7.808   3.019  1.5635 -2.7043 -1.0534
   66MOL   H31832948   0.288   7.653   3.075  3.5409  1.6793  1.4980
   66MOL   H31932949   0.198   7.795   3.154 -0.0010  0.6557 -0.5769
   66MOL   H32032950   7.917   7.491   3.184  0.0983  1.0023  0.3013
   66MOL   H32132951   7.954   7.372   3.053 -1.4362 -1.4539  2.0928
   66MOL   H32232952   7.928   7.182   3.207 -0.7279  0.1018  0.5363
   66MOL   H32332953   0.022   7.035   3.372  0.5776  1.7319  0.9818
   66MOL   H32432954   0.241   7.098   3.480 -2.2372  0.0453  1.0633
   66MOL   H32532955   0.344   7.315   3.434 -0.2644 -1.4195  1.1399
   66MOL   H32632956   0.239   7.474   3.269 -1.3590 -0.1692 -1.9170
   66MOL   C32732957   0.065   7.887   2.932 -0.4144 -0.9112  0.2849
   66MOL   C32832958   7.957   7.971   3.008 -0.3780  0.0531  0.5706
   66MOL   C32932959   7.980   7.958   3.161 -0.1171  0.0868 -0.0334
   66MOL   C33032960   7.818   7.927   2.953 -0.1771  0.3203  0.2316
   66MOL   O33132961   7.782   7.908   2.836  0.2282  0.3016  0.7229
   66MOL   O33232962   7.728   7.903   3.055 -0.1146 -0.0998 -0.0829
   66MOL   C33332963   7.596   7.876   3.020  0.6002 -0.6694  0.2097
   66MOL   C33432964   7.515   7.870   3.146  0.7189  0.4610  0.2510
   66MOL   C33532965   7.506   7.981   3.228 -0.1036  0.1804  0.0144
   66MOL   C33632966   7.433   7.980   3.346 -0.0922  0.5831 -0.6585
   66MOL   C33732967   7.355   7.865   3.374 -1.4058 -0.4692  0.1605
   66MOL   C33832968   7.368   7.752   3.295  0.3211 -0.6815 -0.4755
   66MOL   C33932969   7.448   7.756   3.181 -0.2011  0.5559  0.0946
   66MOL   H34032970   0.034   7.878   2.828  0.2072 -1.8525  0.1691
   66MOL   H34132971   0.156   7.947   2.923 -0.2800 -1.1586 -0.0470
   66MOL   H34232972   7.899   7.994   3.224 -1.1367 -2.1986  0.0018
   66MOL   H34332973   0.069   8.000   3.189 -0.6104  1.9751 -1.0354
   66MOL   H34432974   7.989   7.855   3.194 -0.9759  0.4631  1.4007
   66MOL   H34532975   7.563   7.952   2.948  0.9907 -0.6926  0.0028
   66MOL   H34632976   7.589   7.796   2.946 -2.1695 -1.0383  0.8038
   66MOL   H34732977   7.573   0.056   3.205 -0.4996  0.5524  0.1677
   66MOL   H34832978   7.416   0.053   3.417 -0.2752 -0.0228 -0.0127
   66MOL   H34932979   7.275   7.873   3.447 -2.4108  2.2129 -1.1603
   66MOL   H35032980   7.302   7.668   3.311 -0.8764  0.2921 -0.3073
   66MOL   H35132981   7.455   7.666   3.122 -2.8642  0.0771  0.4569
   66MOL   C35232982   7.992   0.116   2.979 -0.2102  0.5890 -0.1350
   66MOL   C35332983   7.897   0.238   3.002 -0.2701 -0.0719 -0.6819
   66MOL   C35432984   7.836   0.221   3.146  0.5211  0.0905  0.2836
   66MOL   C35532985   7.782   0.242   2.897 -0.1966 -0.2453 -0.4494
   66MOL   O35632986   7.663   0.264   2.927  0.3601  0.4461 -0.3463
   66MOL   O35732987   7.828   0.229   2.777 -0.3494  0.5433 -0.0018
   66MOL   C35832988   7.746   0.225   2.660  0.5850 -0.3818  0.2917
   66MOL   C35932989   7.828   0.178   2.538 -0.6338 -0.5461 -0.4124
   66MOL   C36032990   7.918   0.261   2.480 -0.3576 -0.3822  0.1157
   66MOL   C36132991   7.979   0.218   2.359 -0.2893 -0.4102 -0.4120
   66MOL   C36232992   7.952   0.090   2.308 -0.2656  0.4262  0.7057
   66MOL   C36332993   7.864   0.004   2.374 -0.5273 -0.7918 -0.1546
   66MOL   C36432994   7.803   0.050   2.487 -0.1100  0.1975 -0.2303
   66MOL   H36532995   0.004   0.123   2.872 -1.2234 -3.7925 -0.6945
   66MOL   H36632996   0.080   0.150   3.019 -0.0812  0.7582 -0.5773
   66MOL   H36732997   7.765   0.138   3.148  1.0198 -0.3119  1.0318
   66MOL   H36832998   7.767   0.301   3.173  0.2526  0.6940 -2.0355
   66MOL   H36932999   7.910   0.218   3.225  0.9061  2.1379  0.0183
   66MOL   H37033000   7.660   0.160   2.676  0.5863 -1.2610 -2.9370
   66MOL   H37133001   7.703   0.323   2.637  0.5572  0.0328  2.0216
   66MOL   H37233002   7.936   0.361   2.515 -0.4524 -0.5937  0.7739
   66MOL   H37333003   0.046   0.278   2.308  1.5479 -1.0411  1.4483
   66MOL   H37433004   0.004   0.051   2.226  0.1484  0.4832  0.9703
   66MOL   H37533005   7.836   7.918   2.327 -1.7769 -0.8335  0.6667
   66MOL   H37633006   7.723   7.997   2.530  0.1135 -0.7333 -1.0906
   66MOL   C37733007   7.987   0.368   2.977 -0.0401 -0.0904 -0.1417
   66MOL   C37833008   7.929   0.515   3.018 -0.3293 -0.1874 -0.5443
   66MOL   C37933009   7.949   0.527   3.171 -0.1753  0.4021  0.0096
   66MOL   C38033010   7.781   0.545   2.979 -0.5234  0.2912  0.6074
   66MOL   O38133011   7.742   0.556   2.859  0.4326 -0.5790 -0.4509
   66MOL   O38233012   7.695   0.577   3.086 -0.1558  0.2896 -0.2698
   66MOL   C38333013   7.553   0.584   3.056  0.1252  0.1934  0.8571
   66MOL   C38433014   7.471   0.478   3.132  0.5738 -0.3839 -1.1927
   66MOL   C38533015   7.493   0.446   3.269 -0.6477  0.3155 -0.1211
   66MOL   C38633016   7.404   0.358   3.333  0.3116  0.0170  0.1147
   66MOL   C38733017   7.291   0.298   3.269  0.4337 -0.1388 -0.4503
   66MOL   C38833018   7.266   0.326   3.134 -0.3857 -0.2085  0.0899
   66MOL   C38933019   7.355   0.420   3.067 -0.8029  0.1640  0.3063
   66MOL   H39033020   8.000   0.367   2.869  0.6193 -0.6264 -0.0627
   66MOL   H39133021   0.076   0.353   3.027 -0.2262  1.5808  0.7520
   66MOL   H39233022   0.046   0.520   3.203 -0.2440  0.3126  0.2141
   66MOL   H39333023   7.889   0.456   3.227  0.3447 -0.9804 -1.1711
   66MOL   H39433024   7.928   0.625   3.214  1.8093  1.6518 -1.7331
   66MOL   H39533025   7.527   0.687   3.080  3.7225  1.8907 -1.9398
   66MOL   H39633026   7.524   0.571   2.952 -0.1068 -0.5790  1.0218
   66MOL   H39733027   7.568   0.496   3.329  0.0540 -0.6972 -0.1460
   66MOL   H39833028   7.417   0.341   3.439  1.0807 -1.7721 -0.2450
   66MOL   H39933029   7.228   0.229   3.323 -2.5892  2.7608 -0.0862
   66MOL   H40033030   7.186   0.281   3.078  0.4331 -0.2704 -1.0644
   66MOL   H40133031   7.331   0.438   2.963  0.4076  1.9089  0.3059
   66MOL   C40233032   0.022   0.630   2.957 -0.1636  0.2902  0.4564
   66MOL   C40333033   0.078   0.633   2.808  0.4761  0.0242  0.0710
   66MOL   C40433034   7.990   0.575   2.694  0.4126 -0.1571 -0.0473
   66MOL   C40533035   0.207   0.544   2.804 -0.6230  0.3288  0.2359
   66MOL   O40633036   0.257   0.493   2.906  0.3807 -0.5910  0.5336
   66MOL   O40733037   0.258   0.538   2.671 -0.2262 -0.0214  0.1618
   66MOL   C40833038   0.388   0.473   2.649  0.2627  0.2626 -0.2045
   66MOL   C40933039   0.502   0.574   2.647 -0.4206 -0.0380 -0.2421
   66MOL   C41033040   0.486   0.703   2.600  0.4911  0.3237 -0.7747
   66MOL   C41133041   0.597   0.784   2.573 -0.1281 -0.7146  0.4751
   66MOL   C41233042   0.727   0.743   2.608  0.4417 -0.0524 -0.5129
   66MOL   C41333043   0.742   0.617   2.666  0.6889 -0.0736  0.3413
   66MOL   C41433044   0.632   0.528   2.684 -0.0930  0.1934 -0.6258
   66MOL   H41533045   0.112   0.620   3.017 -0.8036 -1.9701  1.0950
   66MOL   H41633046   7.976   0.723   2.978 -0.1686  0.0632  1.4847
   66MOL   H41733047   7.943   0.479   2.716  1.4090 -1.0556 -1.6965
   66MOL   H41833048   0.029   0.563   2.596 -1.0905  0.6020 -0.8730
   66MOL   H41933049   7.904   0.641   2.680 -0.7469 -1.7257 -0.4213
   66MOL   H42033050   0.403   0.405   2.733  0.6360  1.8924  1.0786
   66MOL   H42133051   0.383   0.431   2.549 -0.4271  1.4498 -0.6756
   66MOL   H42233052   0.384   0.732   2.579  0.7681  0.9311 -1.3000
   66MOL   H42333053   0.571   0.866   2.508 -0.5932 -1.3014 -0.0851
   66MOL   H42433054   0.813   0.803   2.580  0.6391  0.0305  0.2659
   66MOL   H42533055   0.843   0.587   2.691 -0.6841 -2.6560  3.0338
   66MOL   H42633056   0.656   0.431   2.726 -0.3626  0.3942 -0.0040
   66MOL   C42733057   0.125   0.785   2.787  0.4992 -0.4611  0.3415
   66MOL   C42833058   0.034   0.899   2.734 -0.2542 -0.0618  0.0510
   66MOL   C42933059   7.903   0.901   2.800  0.0251 -0.1746  0.3360
   66MOL   C43033060   0.010   0.874   2.585  0.0845  0.1032  0.1038
   66MOL   O43133061   7.906   0.867   2.533  0.1023  0.5332  0.2458
   66MOL   O43233062   0.123   0.859   2.512 -0.2995 -0.0450 -0.0067
   66MOL   C43333063   0.143   0.872   2.372 -1.0104  1.0278  0.7560
   66MOL   C43433064   0.236   0.767   2.319  0.3313 -0.1523  0.2270
   66MOL   C43533065   0.340   0.814   2.246 -0.2942  0.5920 -0.4417
   66MOL   C43633066   0.442   0.728   2.206 -0.4735  0.0030 -0.1659
   66MOL   C43733067   0.428   0.592   2.238  0.5367 -0.1423 -0.0850
   66MOL   C43833068   0.320   0.548   2.307  0.1571  0.2861  0.4531
   66MOL   C43933069   0.216   0.634   2.344  0.0005  0.0037  0.1975
   66MOL   H44033070   0.211   0.775   2.721  0.1388 -0.6554 -0.0992
   66MOL   H44133071   0.166   0.813   2.884 -0.4947 -1.1078  0.9459
   66MOL   H44233072   7.857   0.802   2.799  0.7664 -0.5408 -4.0469
   66MOL   H44333073   7.833   0.964   2.745 -0.0812 -0.7216 -0.1579
   66MOL   H44433074   7.911   0.939   2.902  0.1055  1.2961 -0.2155
   66MOL   H44533075   0.050   0.867   2.315 -1.2061 -1.3570  1.2494
   66MOL   H44633076   0.181   0.974   2.359  0.7274  0.4758  1.3499
   66MOL   H44733077   0.345   0.919   2.223  1.1862  0.9193  1.2942
   66MOL   H44833078   0.526   0.771   2.152  0.2764  0.0105  0.9737
   66MOL   H44933079   0.504   0.515   2.229  0.3340 -0.6996  2.5194
   66MOL   H45033080   0.314   0.447   2.346 -1.1808  0.3752  0.4794
   66MOL   H45133081   0.131   0.589   2.394 -0.2368 -0.8879 -0.9876
   66MOL   C45233082   0.108   1.036   2.747  0.3940  0.7911  0.7277
   66MOL   C45333083   0.049   1.179   2.724  0.1795 -0.0669  0.3201
   66MOL   C45433084   0.167   1.269   2.762 -0.0347 -0.4894  0.5096
   66MOL   C45533085   7.938   1.201   2.828  0.2462 -0.2895 -0.5863
   66MOL   O45633086   7.820   1.222   2.793  0.3774 -0.6492 -0.7278
   66MOL   O45733087   7.980   1.194   2.958  0.2420 -0.4650  0.4856
   66MOL   C45833088   7.887   1.200   3.065 -0.1796  1.3093  0.4943
   66MOL   C45933089   7.938   1.118   3.181 -0.7433  0.5002  0.3697
   66MOL   C46033090   0.033   1.166   3.264 -0.3097  0.3490 -0.6866
   66MOL   C46133091   0.080   1.082   3.372  0.2381 -1.5050 -0.2902
   66MOL   C46233092   0.031   0.953   3.393  0.1573  0.0651  0.4045
   66MOL   C46333093   7.929   0.918   3.319 -0.2578 -0.1506  0.2993
   66MOL   C46433094   7.884   0.991   3.208  0.0807  0.0535  0.2002
   66MOL   H46533095   0.185   1.032   2.671 -0.0998 -1.2501  0.3068
   66MOL   H46633096   0.157   1.026   2.844  1.6759  1.2304  0.1339
   66MOL   H46733097   0.132   1.371   2.746 -2.3180 -1.2993  0.1561
   66MOL   H46833098   0.249   1.253   2.693 -0.3236 -0.2922  0.1131
   66MOL   H46933099   0.189   1.255   2.868 -3.1387  3.5657  1.8316
   66MOL   H47033100   7.869   1.303   3.095 -0.6477  0.8788  1.7055
   66MOL   H47133101   7.789   1.163   3.037  0.8348 -1.1281  0.0798
   66MOL   H47233102   0.068   1.266   3.247  1.5204 -0.3448 -1.1620
   66MOL   H47333103   0.156   1.116   3.442 -0.7717 -0.1111  0.1621
   66MOL   H47433104   0.065   0.886   3.470 -0.2832 -0.5750  0.0423
   66MOL   H47533105   7.881   0.823   3.338  2.2773 -1.3611  0.9020
   66MOL   H47633106   7.814   0.957   3.133  1.0713 -1.9126  0.1294
   66MOL   C47733107   8.007   1.195   2.575  0.2803  0.0883  0.3400
   66MOL   C47833108   7.992   1.335   2.520  0.5414  0.1197 -0.1446
   66MOL   C47933109   7.886   1.360   2.405  0.2063 -0.6446 -0.1249
   66MOL   C48033110   0.122   1.392   2.464  0.4175 -0.1364 -0.0102
   66MOL   O48133111   0.174   1.490   2.514  0.2429 -0.3646 -0.0559
   66MOL   O48233112   0.157   1.326   2.353  0.3002  0.5283  0.0540
   66MOL   C48333113   0.277   1.352   2.277  0.6200 -0.1958 -0.4410
   66MOL   C48433114   0.399   1.282   2.336 -0.3534  0.7658  0.2642
   66MOL   C48533115   0.444   1.319   2.461 -0.5005  0.8684  0.1431
   66MOL   C48633116   0.558   1.250   2.509 -0.2659 -0.0173 -0.3198
   66MOL   C48733117   0.625   1.145   2.437  0.5613 -0.0294  0.0946
   66MOL   C48833118   0.574   1.115   2.308 -0.2875 -0.0176 -0.1577
   66MOL   C48933119   0.463   1.184   2.260  0.4175 -0.7411 -0.5050
   66MOL   H49033120   7.902   1.166   2.570 -0.1454  1.6771 -0.3304
   66MOL   H49133121   0.060   1.132   2.509 -0.7050 -2.9102  2.1834
   66MOL   H49233122   7.875   1.268   2.346 -1.3896  0.6685 -1.9303
   66MOL   H49333123   7.913   1.451   2.352  2.1230 -0.3743  1.2599
   66MOL   H49433124   7.785   1.373   2.442  0.2888  1.5021 -0.5787
   66MOL   H49533125   0.258   1.310   2.178  1.3517 -0.2823 -0.5481
   66MOL   H49633126   0.298   1.458   2.266 -1.6535  0.3622  0.3828
   66MOL   H49733127   0.392   1.392   2.521  0.0163  0.2584  1.3711
   66MOL   H49833128   0.596   1.263   2.609  0.0226 -2.0964 -0.1400
   66MOL   H49933129   0.704   1.087   2.482 -0.8538 -0.4401  2.1231
   66MOL   H50033130   0.601   1.023   2.257 -2.9524 -1.1295  0.3502
   66MOL   H50133131   0.422   1.164   2.162  0.2184  1.1974 -0.8366
   66MOL   H50233132   7.971   1.409   2.598  1.0751  1.2739 -1.0763
   67MOL     C133133   1.958   1.974   6.558 -0.8637  0.3214 -0.3534
   67MOL     C233134   2.000   1.886   6.437  0.2996 -0.3317 -0.1257
   67MOL     C333135   1.863   1.841   6.366  0.1644 -0.0487 -0.3559
   67MOL     C433136   2.056   1.751   6.482  0.2074  0.1517 -0.2022
   67MOL     O533137   2.050   1.722   6.600  0.1430  0.2769  1.4211
   67MOL     O633138   2.127   1.678   6.398  0.2247  0.2524  0.3498
   67MOL     C733139   2.173   1.552   6.430 -0.4159 -0.1630  0.4921
   67MOL     C833140   2.279   1.490   6.338 -0.8934  0.1917  0.1360
   67MOL     C933141   2.396   1.563   6.312 -0.3729  0.1960  0.7566
   67MOL    C1033142   2.503   1.509   6.245  0.6131 -0.0138 -0.1871
   67MOL    C1133143   2.500   1.373   6.207 -0.0687 -0.2824  0.5221
   67MOL    C1233144   2.385   1.297   6.226  1.2082 -0.1644  0.0032
   67MOL    C1333145   2.270   1.359   6.286 -0.2036  0.1664 -0.3057
   67MOL    H1433146   1.914   2.072   6.538 -0.6527  0.9758  2.1393
   67MOL    H1533147   1.893   1.934   6.635 -0.4918  1.5227  0.6211
   67MOL    H1633148   1.804   1.924   6.328  2.4721  0.8273 -2.1223
   67MOL    H1733149   1.800   1.786   6.437 -0.8870  0.9588 -0.4890
   67MOL    H1833150   1.876   1.782   6.276  0.8696 -0.8573  0.2739
   67MOL    H1933151   2.217   1.553   6.530  0.5872 -2.8914  0.1299
   67MOL    H2033152   2.094   1.478   6.437 -2.1828  1.4733 -1.3931
   67MOL    H2133153   2.395   1.666   6.347 -0.5478  1.0037 -1.5587
   67MOL    H2233154   2.591   1.571   6.232  2.6882 -2.6475  0.6944
   67MOL    H2333155   2.586   1.334   6.155  0.7356 -1.7490  2.9211
   67MOL    H2433156   2.376   1.196   6.189  0.9317 -0.1710  0.0840
   67MOL    H2533157   2.178   1.307   6.306 -0.9911  1.3965 -0.6517
   67MOL    H2633158   2.047   2.006   6.613  0.3231  0.0312 -2.0695
   67MOL    C2733159   2.077   1.962   6.328  0.6018 -0.2003 -0.1452
   67MOL    C2833160   2.212   2.037   6.356 -0.3107 -0.5746 -0.5340
   67MOL    C2933161   2.315   1.937   6.421  0.1721  0.3018 -0.0456
   67MOL    C3033162   2.193   2.159   6.454 -0.1914  0.1414 -0.2620
   67MOL    O3133163   2.274   2.190   6.543 -0.0186  0.3327  0.3318
   67MOL    O3233164   2.092   2.243   6.428  0.1327 -0.0005  0.5283
   67MOL    C3333165   2.085   2.369   6.494  0.1769 -0.3581 -0.3658
   67MOL    C3433166   1.968   2.375   6.590 -0.6435 -0.6500  0.2698
   67MOL    C3533167   1.971   2.305   6.715 -0.4363  1.3828  0.3346
   67MOL    C3633168   1.853   2.294   6.795  0.0699  0.4181 -0.4335
   67MOL    C3733169   1.729   2.347   6.752 -0.4387 -0.1587 -0.7064
   67MOL    C3833170   1.725   2.413   6.630 -0.0431  0.4760 -0.0414
   67MOL    C3933171   1.841   2.418   6.548  0.2779 -0.2633  0.9912
   67MOL    H4033172   2.010   2.030   6.275 -0.5987 -0.9769  0.3542
   67MOL    H4133173   2.107   1.883   6.259 -0.7798 -1.3508  0.5376
   67MOL    H4233174   2.292   1.904   6.522  3.0197 -0.4174  0.4109
   67MOL    H4333175   2.408   1.990   6.439 -0.4770  1.9432 -1.2862
   67MOL    H4433176   2.336   1.854   6.353 -0.3412  0.0148  0.1456
   67MOL    H4533177   2.183   2.395   6.535  0.6191  1.1468 -2.3099
   67MOL    H4633178   2.069   2.453   6.426  0.9735 -1.4894 -1.9619
   67MOL    H4733179   2.060   2.251   6.743 -1.9796 -1.1902  0.4805
   67MOL    H4833180   1.855   2.231   6.883  3.5178  1.0714  0.0638
   67MOL    H4933181   1.640   2.337   6.813 -1.0631 -0.0739 -1.5811
   67MOL    H5033182   1.630   2.459   6.605 -0.8302 -0.2268  1.6379
   67MOL    H5133183   1.835   2.457   6.447 -1.2892 -1.1213  0.7457
   67MOL    C5233184   2.277   2.108   6.233  0.0381 -0.4058 -0.0874
   67MOL    C5333185   2.247   2.076   6.083 -0.2650 -0.6716  0.3608
   67MOL    C5433186   2.104   2.114   6.048 -0.6494 -1.2271  0.0109
   67MOL    C5533187   2.263   1.926   6.048 -0.4837  0.5823 -0.1438
   67MOL    O5633188   2.328   1.846   6.117 -0.1140  0.1864  0.1855
   67MOL    O5733189   2.222   1.894   5.929 -0.4748  0.3329 -0.3199
   67MOL    C5833190   2.276   1.777   5.862 -0.4045 -0.3981 -0.1689
   67MOL    C5933191   2.186   1.659   5.862  0.0727 -0.7045 -0.0089
   67MOL    C6033192   2.213   1.551   5.943 -0.4022  0.4466  0.2901
   67MOL    C6133193   2.132   1.445   5.946 -0.0942  0.3407  0.2298
   67MOL    C6233194   2.011   1.441   5.867  0.1709 -0.0566 -0.2543
   67MOL    C6333195   1.984   1.546   5.780  0.1072  0.3146  0.2216
   67MOL    C6433196   2.073   1.652   5.782 -0.4520 -0.3295  0.2397
   67MOL    H6533197   2.386   2.111   6.243 -0.0825 -0.3227  1.3763
   67MOL    H6633198   2.246   2.212   6.234  0.8543 -0.1563  0.4109
   67MOL    H6733199   2.071   2.194   6.114  0.3881 -0.8646  0.0955
   67MOL    H6833200   2.035   2.032   6.067 -0.5033 -1.3485  0.0193
   67MOL    H6933201   2.098   2.134   5.941  1.2200 -0.7290 -0.0141
   67MOL    H7033202   2.279   1.800   5.755 -0.5761  0.8612  0.0992
   67MOL    H7133203   2.378   1.751   5.889 -0.9968 -1.9784  0.6362
   67MOL    H7233204   2.300   1.552   6.008  1.9621 -0.2254 -2.7287
   67MOL    H7333205   2.141   1.367   6.020 -1.3489  0.7886  0.8752
   67MOL    H7433206   1.944   1.356   5.863 -0.9631  0.7937  0.4051
   67MOL    H7533207   1.902   1.552   5.709  1.2683 -0.3263 -1.1893
   67MOL    H7633208   2.053   1.743   5.727  1.1874 -1.4404 -2.2751
   67MOL    C7733209   2.336   2.158   5.986  0.1380  0.3114 -0.3639
   67MOL    C7833210   2.489   2.196   5.986 -0.3227  0.7157 -0.7042
   67MOL    C7933211   2.556   2.060   5.977 -0.4059 -0.0994 -0.0200
   67MOL    C8033212   2.539   2.270   6.111 -0.1145  0.5266  1.0953
   67MOL    O8133213   2.658   2.254   6.142 -0.0441 -1.1627  0.1426
   67MOL    O8233214   2.446   2.357   6.159 -0.8845  0.0617 -0.5256
   67MOL    C8333215   2.495   2.435   6.262  0.1587 -0.0936 -0.7901
   67MOL    C8433216   2.412   2.554   6.299  0.0198 -0.2400  0.6266
   67MOL    C8533217   2.383   2.647   6.197 -0.4098 -0.3837 -0.1591
   67MOL    C8633218   2.302   2.757   6.224  0.3406  0.1790  0.0038
   67MOL    C8733219   2.246   2.772   6.349  0.1300 -0.0305 -0.2456
   67MOL    C8833220   2.279   2.682   6.455  0.6045  0.0409 -0.5952
   67MOL    C8933221   2.370   2.576   6.430  0.4622  0.8072  0.3177
   67MOL    H9033222   2.294   2.259   5.986 -2.5546 -0.7467  1.7779
   67MOL    H9133223   2.319   2.124   5.884  1.6988 -2.8853  0.3875
   67MOL    H9233224   2.508   2.002   5.898 -2.6905 -0.8471  1.8531
   67MOL    H9333225   2.517   2.014   6.067  1.5544 -1.0809  0.3492
   67MOL    H9433226   2.664   2.055   5.987 -0.3708 -2.0165 -1.1693
   67MOL    H9533227   2.519   2.367   6.344  0.9018  1.3082  0.1589
   67MOL    H9633228   2.590   2.483   6.238  0.6208 -0.8908 -0.5676
   67MOL    H9733229   2.419   2.643   6.096 -2.3138  1.9639 -0.9630
   67MOL    H9833230   2.279   2.838   6.156  0.5217 -0.0365 -0.3117
   67MOL    H9933231   2.189   2.862   6.362 -2.0713 -1.1058 -2.0869
   67MOL   H10033232   2.246   2.701   6.557 -0.1362  0.9095 -0.9894
   67MOL   H10133233   2.403   2.505   6.505 -0.4677  1.3805  1.2775
   67MOL   C10233234   2.508   2.273   5.852  0.1456 -0.4132  0.5885
   67MOL   C10333235   2.645   2.329   5.797 -0.3373 -0.2003 -0.9437
   67MOL   C10433236   2.767   2.229   5.804 -0.2659 -0.5150  0.2963
   67MOL   C10533237   2.677   2.458   5.869  0.0690  0.9788 -0.3546
   67MOL   O10633238   2.605   2.518   5.954  0.3806  0.5945  0.4059
   67MOL   O10733239   2.798   2.495   5.825  0.0450 -0.8387  0.0080
   67MOL   C10833240   2.853   2.618   5.879  0.0802 -0.0307  0.2393
   67MOL   C10933241   2.942   2.685   5.771  0.0004  0.9262  0.1252
   67MOL   C11033242   3.061   2.747   5.813  0.4463  0.5660  0.3066
   67MOL   C11133243   3.148   2.808   5.717  0.8610  0.6198 -0.0340
   67MOL   C11233244   3.106   2.807   5.584 -0.0694 -0.0285 -0.0262
   67MOL   C11333245   2.985   2.759   5.540 -0.1358 -0.0122 -0.5169
   67MOL   C11433246   2.899   2.699   5.639  0.1856  0.4188  0.2723
   67MOL   H11533247   2.439   2.357   5.850  0.3382 -0.2872 -1.4006
   67MOL   H11633248   2.475   2.206   5.773  0.6620  2.9642 -2.6269
   67MOL   H11733249   2.853   2.258   5.744 -1.1722 -1.0060 -1.2773
   67MOL   H11833250   2.744   2.128   5.770 -1.1471  0.2275 -1.4051
   67MOL   H11933251   2.804   2.228   5.906 -0.3239  2.5978  0.3780
   67MOL   H12033252   2.768   2.679   5.910 -1.2920 -1.3823 -0.7993
   67MOL   H12133253   2.906   2.608   5.974  0.5425 -1.1692 -0.1244
   67MOL   H12233254   3.097   2.741   5.915 -0.5159 -1.4302  0.5601
   67MOL   H12333255   3.244   2.854   5.735  1.2625  0.0832 -0.7808
   67MOL   H12433256   3.173   2.857   5.516 -1.9434  2.2881 -0.2664
   67MOL   H12533257   2.960   2.767   5.435  0.7267  0.3777 -0.6908
   67MOL   H12633258   2.806   2.655   5.607  0.6609 -1.5015  1.4475
   67MOL   C12733259   2.620   2.384   5.650  0.0085 -0.5941 -0.2231
   67MOL   C12833260   2.652   2.311   5.518 -0.1803 -0.0205  0.2800
   67MOL   C12933261   2.595   2.407   5.409  0.1730  0.6375  0.2149
   67MOL   C13033262   2.574   2.174   5.517  0.1980  0.6896 -0.7310
   67MOL   O13133263   2.629   2.060   5.522 -0.3495  0.0969  0.7668
   67MOL   O13233264   2.442   2.197   5.529  0.0653  0.4517  0.2837
   67MOL   C13333265   2.349   2.093   5.530  0.2296 -0.4687 -0.3945
   67MOL   C13433266   2.218   2.137   5.598 -0.1296 -0.1308  0.4607
   67MOL   C13533267   2.123   2.040   5.637 -0.6101  0.5016 -0.4555
   67MOL   C13633268   2.007   2.082   5.701 -0.7026  0.3319 -0.1350
   67MOL   C13733269   1.977   2.219   5.728  0.2398 -0.7688 -0.0091
   67MOL   C13833270   2.067   2.315   5.682 -0.7682 -0.1665 -1.0516
   67MOL   C13933271   2.187   2.270   5.628  0.0699 -0.2074  0.1572
   67MOL   H14033272   2.657   2.487   5.642  1.0300 -0.7891  1.6979
   67MOL   H14133273   2.512   2.391   5.636  0.0549  1.2635  0.1421
   67MOL   H14233274   2.491   2.434   5.429  0.6623  1.5575  1.5952
   67MOL   H14333275   2.592   2.361   5.311  0.4554 -0.3002  0.6387
   67MOL   H14433276   2.648   2.501   5.400  0.8970  0.3410  1.2413
   67MOL   H14533277   2.335   2.049   5.431  1.9497 -3.7879  0.7539
   67MOL   H14633278   2.379   2.017   5.602  0.6447 -1.3795 -1.5090
   67MOL   H14733279   2.141   1.934   5.622 -0.3545  0.5061 -0.1974
   67MOL   H14833280   1.932   2.008   5.726 -0.4652 -0.8875 -2.9423
   67MOL   H14933281   1.889   2.245   5.785  1.4094 -0.0898  1.5139
   67MOL   H15033282   2.037   2.417   5.702  0.4490 -0.2254  1.2469
   67MOL   H15133283   2.263   2.339   5.595  0.0491  0.0926  0.7229
   67MOL   C15233284   2.812   2.287   5.501  0.0656  0.1188  0.2605
   67MOL   C15333285   2.898   2.294   5.368 -0.0515  0.1424  0.2531
   67MOL   C15433286   2.926   2.444   5.335  0.7197 -0.5889  0.3937
   67MOL   C15533287   2.810   2.238   5.247  1.2322 -0.2717 -0.1802
   67MOL   O15633288   2.764   2.303   5.160 -0.3901 -0.0912 -0.5875
   67MOL   O15733289   2.788   2.111   5.265 -0.3156 -0.3488 -0.7156
   67MOL   C15833290   2.722   2.037   5.162 -0.2090 -0.2635 -0.5197
   67MOL   C15933291   2.643   1.917   5.209 -0.2858  0.9810 -0.1068
   67MOL   C16033292   2.508   1.933   5.246 -0.1405  0.2677  0.4112
   67MOL   C16133293   2.432   1.824   5.288 -0.0306  0.4365  0.5538
   67MOL   C16233294   2.493   1.697   5.274  0.0631  0.3354 -0.5211
   67MOL   C16333295   2.625   1.671   5.235 -0.7118 -1.0999  0.3444
   67MOL   C16433296   2.699   1.785   5.205  0.1052 -0.6542 -0.5280
   67MOL   H16533297   2.840   2.195   5.552 -1.1714 -1.0314 -1.0676
   67MOL   H16633298   2.846   2.364   5.570 -1.5341 -0.7567  2.0700
   67MOL   H16733299   2.981   2.497   5.413 -2.4063  0.8963  1.6853
   67MOL   H16833300   2.836   2.500   5.307 -0.2462 -2.0529  0.5074
   67MOL   H16933301   2.983   2.441   5.242  3.8226 -2.0558  2.2935
   67MOL   H17033302   2.653   2.104   5.111 -0.0574 -0.2039 -0.6437
   67MOL   H17133303   2.790   2.004   5.084 -0.2196 -0.6773 -0.3577
   67MOL   H17233304   2.478   2.033   5.272  2.0816  1.4583 -1.2963
   67MOL   H17333305   2.327   1.834   5.311  0.2312  1.7971  1.2156
   67MOL   H17433306   2.432   1.608   5.284 -1.0976  1.0983 -0.6475
   67MOL   H17533307   2.671   1.575   5.217 -1.6036 -1.2667 -1.1610
   67MOL   H17633308   2.803   1.778   5.174  0.6185  0.6370  0.8281
   67MOL   C17733309   3.031   2.213   5.370  0.3242  0.1473 -0.0546
   67MOL   C17833310   3.162   2.254   5.458  0.0546  0.3010 -0.1986
   67MOL   C17933311   3.107   2.309   5.592 -0.7248 -1.3957 -1.0508
   67MOL   C18033312   3.231   2.376   5.392 -0.7778  0.3963 -0.6334
   67MOL   O18133313   3.217   2.400   5.275  0.3375 -0.4434 -0.2514
   67MOL   O18233314   3.314   2.447   5.467 -1.0462  0.1973 -0.2350
   67MOL   C18333315   3.366   2.577   5.418  0.5402 -1.0586  0.2105
   67MOL   C18433316   3.482   2.573   5.319 -0.2186 -0.7099 -0.6222
   67MOL   C18533317   3.463   2.646   5.200 -0.9777 -0.7821  0.6386
   67MOL   C18633318   3.569   2.652   5.109  0.0679  0.1583  0.7209
   67MOL   C18733319   3.697   2.606   5.142  0.5474 -0.0504  0.6405
   67MOL   C18833320   3.714   2.544   5.268  0.0130  0.1775 -0.2235
   67MOL   C18933321   3.608   2.533   5.359  0.4065 -0.1504 -0.1543
   67MOL   H19033322   3.057   2.198   5.266 -1.1296  1.9559 -0.7091
   67MOL   H19133323   2.998   2.115   5.404 -2.5064  0.7038 -1.1550
   67MOL   H19233324   3.075   2.414   5.596 -2.3841 -1.8282 -2.4643
   67MOL   H19333325   3.184   2.303   5.670 -0.6229 -0.1488 -1.0347
   67MOL   H19433326   3.031   2.246   5.637 -1.1370  0.2347  0.6409
   67MOL   H19533327   3.281   2.625   5.370  1.1550 -1.7235 -1.5911
   67MOL   H19633328   3.385   2.641   5.504  0.3163 -2.1346  1.0771
   67MOL   H19733329   3.365   2.683   5.171 -0.6470  0.7633  1.4491
   67MOL   H19833330   3.565   2.705   5.015 -1.3139 -2.5994 -0.8475
   67MOL   H19933331   3.781   2.610   5.074  0.7578  1.7080  0.9884
   67MOL   H20033332   3.807   2.505   5.308 -0.9322 -0.5740  1.3129
   67MOL   H20133333   3.615   2.493   5.459 -2.6789 -0.8108 -0.1430
   67MOL   C20233334   3.263   2.143   5.486 -0.6654  0.5008 -0.0661
   67MOL   C20333335   3.308   2.041   5.378  0.0592 -0.5783  0.2324
   67MOL   C20433336   3.346   2.117   5.252  0.0786  0.2806 -0.4397
   67MOL   C20533337   3.189   1.942   5.342 -0.0081  0.3008  0.3256
   67MOL   O20633338   3.177   1.893   5.229 -0.4268  0.2488  0.6667
   67MOL   O20733339   3.116   1.902   5.450  0.6267  0.2415 -0.2857
   67MOL   C20833340   3.003   1.821   5.427 -0.3964 -0.0523 -0.2990
   67MOL   C20933341   2.927   1.806   5.558  0.0844 -0.2727 -0.2735
   67MOL   C21033342   2.786   1.802   5.550  0.6316  0.1573  0.0778
   67MOL   C21133343   2.704   1.804   5.666  0.5662  0.5562 -0.3732
   67MOL   C21233344   2.761   1.796   5.792  0.0555 -0.2227 -0.4443
   67MOL   C21333345   2.904   1.817   5.806  1.1459  0.0392  0.9510
   67MOL   C21433346   2.981   1.816   5.688  0.2108 -0.0929  0.2267
   67MOL   H21533347   3.233   2.090   5.577 -0.7501  0.8350  0.0994
   67MOL   H21633348   3.352   2.195   5.520 -0.1218 -1.9309  2.4596
   67MOL   H21733349   3.394   2.057   5.174  0.2945  0.1835 -0.2320
   67MOL   H21833350   3.407   2.205   5.270  0.4935 -0.4728  1.9309
   67MOL   H21933351   3.252   2.148   5.206 -0.0842  0.8544  0.2809
   67MOL   H22033352   2.940   1.883   5.362  1.9518  1.8943 -0.7652
   67MOL   H22133353   3.015   1.721   5.385  2.4093 -0.5809  1.7123
   67MOL   H22233354   2.721   1.810   5.464 -3.1283  2.2669  2.9538
   67MOL   H22333355   2.598   1.809   5.650  0.4748  1.5994  0.4313
   67MOL   H22433356   2.706   1.800   5.885  2.2210 -1.4069  0.9249
   67MOL   H22533357   2.952   1.837   5.900  0.9463 -0.5745  1.1846
   67MOL   H22633358   3.084   1.847   5.694  0.5924 -0.7033 -2.5622
   67MOL   C22733359   3.447   1.963   5.414  0.0734 -0.4020 -0.2541
   67MOL   C22833360   3.466   1.864   5.532  1.0508 -0.4922 -0.7963
   67MOL   C22933361   3.371   1.743   5.512 -0.0146 -0.8309 -0.4205
   67MOL   C23033362   3.445   1.942   5.669 -0.1650 -0.3255  0.1066
   67MOL   O23133363   3.363   1.905   5.748 -0.1915 -0.0580 -0.1271
   67MOL   O23233364   3.529   2.048   5.681  0.2477 -0.1563 -0.3645
   67MOL   C23333365   3.525   2.121   5.801  1.3221 -0.3108 -0.0998
   67MOL   C23433366   3.566   2.263   5.775  0.2023  0.5348  0.5674
   67MOL   C23533367   3.471   2.366   5.794  0.7862 -0.6580  0.1626
   67MOL   C23633368   3.507   2.498   5.768  0.8133 -0.1884  0.2159
   67MOL   C23733369   3.637   2.537   5.728 -0.0657 -0.1615 -0.1727
   67MOL   C23833370   3.739   2.434   5.721  0.6062 -0.7827  0.4498
   67MOL   C23933371   3.699   2.297   5.745  0.3963  0.2358 -0.6513
   67MOL   H24033372   3.525   2.039   5.407 -1.0764  0.5318 -4.0783
   67MOL   H24133373   3.478   1.899   5.332  1.1686  0.5007 -0.5581
   67MOL   H24233374   3.361   1.728   5.405  1.3615 -0.6602 -0.5805
   67MOL   H24333375   3.270   1.760   5.550  0.2307  0.8030 -0.4560
   67MOL   H24433376   3.410   1.659   5.569 -0.9683 -1.0756 -0.1261
   67MOL   H24533377   3.423   2.114   5.838  0.1939 -1.2986 -3.2796
   67MOL   H24633378   3.602   2.078   5.866 -1.0103 -1.2680  2.1077
   67MOL   H24733379   3.370   2.342   5.823  0.3249 -0.3374 -1.1620
   67MOL   H24833380   3.423   2.567   5.770 -1.1026 -2.4201 -1.0374
   67MOL   H24933381   3.661   2.640   5.707  0.2871 -0.2244 -0.0672
   67MOL   H25033382   3.841   2.462   5.698 -0.5123  1.3655 -2.1083
   67MOL   H25133383   3.768   2.214   5.744 -0.9280 -0.9296  1.3794
   67MOL   C25233384   3.614   1.808   5.523 -0.0370  0.9362  0.4311
   67MOL   C25333385   3.697   1.735   5.632  0.5768 -0.8262 -0.5530
   67MOL   C25433386   3.603   1.653   5.730  0.0321 -0.7013 -0.2884
   67MOL   C25533387   3.779   1.842   5.709 -0.3302  0.1049 -0.3786
   67MOL   O25633388   3.746   1.868   5.823 -0.8984 -0.3195 -0.6565
   67MOL   O25733389   3.872   1.900   5.635  0.1837  0.2977 -0.3828
   67MOL   C25833390   3.950   1.995   5.701  0.4676 -0.6358 -0.1503
   67MOL   C25933391   3.987   2.104   5.606  0.9121  0.1775 -0.4273
   67MOL   C26033392   4.104   2.177   5.619 -0.5408  0.5247 -0.3514
   67MOL   C26133393   4.130   2.287   5.538  0.2108 -0.4816 -0.3182
   67MOL   C26233394   4.040   2.325   5.434 -0.5020 -0.0064 -0.3149
   67MOL   C26333395   3.930   2.240   5.411 -0.8648  0.6441  0.0168
   67MOL   C26433396   3.899   2.134   5.496  0.1949  0.4173 -0.6490
   67MOL   H26533397   3.676   1.888   5.483  1.8839 -0.7808 -0.0670
   67MOL   H26633398   3.610   1.737   5.440  0.5130  1.2419  0.1424
   67MOL   H26733399   3.531   1.719   5.778  0.1360 -1.0294  0.3324
   67MOL   H26833400   3.671   1.621   5.810  0.4740  1.4148  0.2126
   67MOL   H26933401   3.547   1.566   5.696 -3.1237  1.3433 -0.4649
   67MOL   H27033402   3.905   2.038   5.791 -0.3379 -0.6625 -0.5354
   67MOL   H27133403   4.037   1.944   5.742  0.5874  1.0249  1.7900
   67MOL   H27233404   4.173   2.149   5.698  2.0284 -1.1762 -3.0586
   67MOL   H27333405   4.222   2.339   5.563  1.7122 -2.6869 -1.1320
   67MOL   H27433406   4.054   2.408   5.366  1.2690 -0.1729 -0.1737
   67MOL   H27533407   3.858   2.257   5.332  1.5231  2.8091 -1.7878
   67MOL   H27633408   3.803   2.087   5.478  0.3694 -1.0966  2.1544
   67MOL   C27733409   3.811   1.649   5.569  0.0431  0.0816  0.3139
   67MOL   C27833410   3.805   1.495   5.526 -0.1062  0.1021  0.2814
   67MOL   C27933411   3.932   1.468   5.447  0.4767 -0.7517  0.0501
   67MOL   C28033412   3.681   1.476   5.440 -0.2004 -0.0613  0.0638
   67MOL   O28133413   3.580   1.420   5.478  0.0442 -0.0342 -0.2504
   67MOL   O28233414   3.694   1.530   5.310  0.4606 -0.3872 -0.0102
   67MOL   C28333415   3.586   1.509   5.216  0.3181 -0.7792 -0.9416
   67MOL   C28433416   3.580   1.610   5.106 -0.1791  0.2598  0.2766
   67MOL   C28533417   3.661   1.605   4.992 -0.4529  0.3799 -0.7547
   67MOL   C28633418   3.646   1.698   4.893  0.1098 -0.7366 -0.5351
   67MOL   C28733419   3.540   1.788   4.898 -0.0707  0.0752 -0.1558
   67MOL   C28833420   3.454   1.791   5.012  0.0115 -0.0634  0.3994
   67MOL   C28933421   3.471   1.696   5.114 -0.6884 -0.2695 -0.1391
   67MOL   H29033422   3.899   1.655   5.633 -0.0332  2.1458  0.2509
   67MOL   H29133423   3.849   1.707   5.485  0.8886  0.9692  1.3059
   67MOL   H29233424   4.025   1.473   5.503  0.9857 -0.7050 -0.7890
   67MOL   H29333425   3.949   1.549   5.377  0.0030 -0.6817  0.0123
   67MOL   H29433426   3.930   1.379   5.383 -2.1772  0.2745 -1.3865
   67MOL   H29533427   3.581   1.403   5.194  0.7237 -1.2275  1.0517
   67MOL   H29633428   3.498   1.523   5.279  1.9198 -0.3731  1.2647
   67MOL   H29733429   3.742   1.533   4.995  0.4412  1.4292  2.3641
   67MOL   H29833430   3.696   1.690   4.798 -0.2263 -2.8841 -0.5525
   67MOL   H29933431   3.518   1.849   4.812  0.3419  1.0488  0.4064
   67MOL   H30033432   3.373   1.861   5.011  1.1900  1.3271  0.6909
   67MOL   H30133433   3.406   1.690   5.200 -2.0147  1.3553 -1.0039
   67MOL   C30233434   3.812   1.399   5.654 -0.6431 -0.0164  0.7138
   67MOL   C30333435   3.841   1.246   5.652 -0.2205  0.3599 -0.8868
   67MOL   C30433436   3.997   1.219   5.658  1.1474  0.3214  0.1453
   67MOL   C30533437   3.787   1.180   5.524 -0.7509 -0.0152 -0.3720
   67MOL   O30633438   3.860   1.136   5.441 -0.7167 -0.1288  0.2259
   67MOL   O30733439   3.652   1.173   5.520  0.3651  0.0937  0.0387
   67MOL   C30833440   3.592   1.123   5.399 -0.4787  0.7985 -0.1761
   67MOL   C30933441   3.460   1.053   5.411  0.0831  0.0980 -0.4690
   67MOL   C31033442   3.399   1.009   5.531 -0.2124 -0.0101 -0.0035
   67MOL   C31133443   3.274   0.956   5.528 -0.0907  0.0830 -0.3782
   67MOL   C31233444   3.201   0.942   5.407 -0.7926 -0.0646  0.1293
   67MOL   C31333445   3.257   0.985   5.288 -0.2880 -0.0436  0.4612
   67MOL   C31433446   3.390   1.038   5.288  0.4503 -0.7606 -0.1671
   67MOL   H31533447   3.709   1.394   5.690 -1.2307 -1.2121 -1.0559
   67MOL   H31633448   3.872   1.438   5.736  0.9736 -1.0901  0.0671
   67MOL   H31733449   4.034   1.268   5.748 -0.2065  2.2908 -0.3302
   67MOL   H31833450   4.044   1.260   5.569  1.2550 -0.0946  0.0109
   67MOL   H31933451   4.022   1.113   5.651 -1.7674 -0.3003 -1.6783
   67MOL   H32033452   3.588   1.202   5.324 -0.4387 -0.1755 -1.2165
   67MOL   H32133453   3.657   1.042   5.365  0.5628  2.0222 -1.1422
   67MOL   H32233454   3.456   1.013   5.623 -0.1736 -1.9412  0.0754
   67MOL   H32333455   3.220   0.920   5.614  2.3908 -0.1972  1.1057
   67MOL   H32433456   3.104   0.895   5.417 -0.1539 -1.3956  0.1943
   67MOL   H32533457   3.195   0.968   5.201  0.7928  2.6657 -0.8914
   67MOL   H32633458   3.434   1.076   5.197 -1.5098  0.9651 -0.4360
   67MOL   C32733459   3.765   1.180   5.777  0.0902  0.1348  0.3824
   67MOL   C32833460   3.793   1.038   5.833  0.0911  0.2742 -0.1149
   67MOL   C32933461   3.916   1.046   5.929 -0.2928  0.5354  0.1073
   67MOL   C33033462   3.825   0.943   5.723 -0.5173  0.4222 -0.0798
   67MOL   O33133463   3.741   0.917   5.633  0.8261  0.2095 -0.4681
   67MOL   O33233464   3.943   0.878   5.724  0.6244 -1.1128  0.4531
   67MOL   C33333465   3.977   0.789   5.622 -0.3754 -0.5811  0.2433
   67MOL   C33433466   4.070   0.674   5.655 -0.3489 -0.0893  0.4544
   67MOL   C33533467   4.146   0.677   5.769 -0.2841  0.2715 -0.5814
   67MOL   C33633468   4.239   0.576   5.797 -0.6320  0.0878 -0.4216
   67MOL   C33733469   4.240   0.460   5.714  0.4153 -0.2658  0.0197
   67MOL   C33833470   4.143   0.438   5.614  0.2697 -0.5459  0.0939
   67MOL   C33933471   4.072   0.555   5.572 -0.0545 -0.3776 -0.2282
   67MOL   H34033472   3.660   1.176   5.749 -0.0692  0.3272  0.9458
   67MOL   H34133473   3.766   1.258   5.853 -3.7066 -0.7585  1.4104
   67MOL   H34233474   4.012   1.068   5.883  1.3959 -1.1624  2.6516
   67MOL   H34333475   3.935   0.950   5.979 -0.1989 -0.1442 -1.2112
   67MOL   H34433476   3.890   1.120   6.005  0.7872 -0.8749  1.8927
   67MOL   H34533477   3.894   0.747   5.565 -0.4743  0.4772 -0.4183
   67MOL   H34633478   4.030   0.858   5.555  0.0225  0.5883  1.7490
   67MOL   H34733479   4.137   0.757   5.841 -3.5439  0.6467 -1.3366
   67MOL   H34833480   4.307   0.587   5.879 -0.4212 -1.3171 -0.3833
   67MOL   H34933481   4.311   0.389   5.753 -1.0883 -1.7300  0.1065
   67MOL   H35033482   4.139   0.344   5.561 -1.0990  0.2203 -1.1977
   67MOL   H35133483   4.003   0.546   5.490  0.7803 -0.9287 -0.8902
   67MOL   C35233484   3.664   0.997   5.911 -0.4455  0.0744  0.1431
   67MOL   C35333485   3.654   0.883   6.019  0.0538  0.5404 -0.1544
   67MOL   C35433486   3.721   0.928   6.163 -0.0643  0.1383 -0.1253
   67MOL   C35533487   3.716   0.749   5.972  0.4871 -0.2457 -0.0867
   67MOL   O35633488   3.814   0.693   6.031 -0.0872  0.1528 -0.1241
   67MOL   O35733489   3.657   0.697   5.860  0.3719 -0.4232  0.3104
   67MOL   C35833490   3.721   0.580   5.789  0.1087  0.0751 -0.6517
   67MOL   C35933491   3.676   0.578   5.641 -0.1209  0.4595  0.2553
   67MOL   C36033492   3.588   0.676   5.589  0.4175  1.1293 -0.4973
   67MOL   C36133493   3.561   0.693   5.455 -0.4425 -0.0880  0.4630
   67MOL   C36233494   3.607   0.597   5.360 -1.0999 -0.0904  0.0696
   67MOL   C36333495   3.688   0.489   5.404 -0.1946 -1.0068 -0.8829
   67MOL   C36433496   3.721   0.481   5.542 -0.2003 -0.0408  0.0232
   67MOL   H36533497   3.588   0.992   5.833  0.3955  0.5940 -0.7297
   67MOL   H36633498   3.626   1.088   5.958  0.4988  1.8047 -2.3268
   67MOL   H36733499   3.827   0.953   6.162  0.2327 -1.0222  0.8378
   67MOL   H36833500   3.720   0.846   6.236  1.9887 -0.4250 -0.7026
   67MOL   H36933501   3.666   1.012   6.205 -1.9454 -0.9900 -0.2621
   67MOL   H37033502   3.828   0.600   5.782  0.0006  0.1607 -2.4666
   67MOL   H37133503   3.698   0.481   5.829  1.0621 -1.0840 -2.8469
   67MOL   H37233504   3.534   0.737   5.661 -1.1492 -1.8782  0.9685
   67MOL   H37333505   3.501   0.776   5.422 -2.0357 -1.4588 -0.1944
   67MOL   H37433506   3.590   0.601   5.254  1.4151 -0.9890 -0.3799
   67MOL   H37533507   3.726   0.419   5.332  1.8578  1.0641 -1.8715
   67MOL   H37633508   3.796   0.409   5.568  0.9156  1.2546  0.4755
   67MOL   C37733509   3.497   0.867   6.042  0.3519 -0.9800 -0.9690
   67MOL   C37833510   3.424   0.774   6.146 -0.0850 -0.1880 -0.2117
   67MOL   C37933511   3.456   0.811   6.293  0.0779 -0.8221  0.6632
   67MOL   C38033512   3.454   0.624   6.121 -0.0823  0.1894  0.0892
   67MOL   O38133513   3.507   0.560   6.209 -0.1020 -0.3000  0.2919
   67MOL   O38233514   3.422   0.579   5.998  0.1428  0.7156 -0.2565
   67MOL   C38333515   3.444   0.439   5.965 -0.3565 -0.1481  0.2719
   67MOL   C38433516   3.330   0.348   6.013  0.6119 -0.3561 -0.2342
   67MOL   C38533517   3.330   0.289   6.140  0.0913 -0.2719  0.2978
   67MOL   C38633518   3.226   0.210   6.185 -0.0756 -0.1956 -0.4627
   67MOL   C38733519   3.108   0.190   6.104 -0.3233  0.3855  0.2560
   67MOL   C38833520   3.103   0.253   5.978  0.0850 -0.4917 -0.5679
   67MOL   C38933521   3.211   0.323   5.931 -0.0829  0.0767  0.3383
   67MOL   H39033522   3.456   0.830   5.948 -1.0913  1.3124 -1.2966
   67MOL   H39133523   3.455   0.966   6.059 -0.7406 -1.2866 -1.8654
   67MOL   H39233524   3.547   0.759   6.323 -0.4279 -2.3130 -0.3578
   67MOL   H39333525   3.384   0.759   6.357 -1.5519  1.6027  0.8996
   67MOL   H39433526   3.461   0.917   6.320  3.0791 -0.2508 -1.8599
   67MOL   H39533527   3.458   0.452   5.858 -0.3703 -1.8833  0.0557
   67MOL   H39633528   3.539   0.399   6.001 -0.8463 -0.5082  1.1751
   67MOL   H39733529   3.424   0.302   6.193  0.3523 -0.6983 -0.0570
   67MOL   H39833530   3.225   0.176   6.288  0.4780 -0.9015 -0.6857
   67MOL   H39933531   3.031   0.123   6.139 -0.4703 -1.1580 -2.8598
   67MOL   H40033532   3.015   0.242   5.916 -0.8624 -1.3556  0.8845
   67MOL   H40133533   3.207   0.368   5.832  1.7002 -0.7778 -0.1365
   67MOL   C40233534   3.263   0.805   6.143 -0.5791  0.0503  0.0041
   67MOL   C40333535   3.160   0.838   6.024  0.7029 -0.3620 -0.1338
   67MOL   C40433536   3.176   0.728   5.907  0.0936  1.1113  0.7868
   67MOL   C40533537   3.201   0.981   5.974  0.0508 -0.8111  0.1947
   67MOL   O40633538   3.245   0.996   5.859  0.1229 -0.6520  0.2580
   67MOL   O40733539   3.202   1.078   6.068 -0.3794 -0.1334 -0.0699
   67MOL   C40833540   3.219   1.221   6.033 -0.1866 -0.4419  0.4581
   67MOL   C40933541   3.086   1.296   6.052  0.5275  0.3766  0.2684
   67MOL   C41033542   3.074   1.401   6.145 -0.1208 -1.0304  0.6357
   67MOL   C41133543   2.950   1.470   6.162 -0.5461  0.5074 -0.0774
   67MOL   C41233544   2.845   1.443   6.074 -0.4167  0.5350 -0.6197
   67MOL   C41333545   2.859   1.343   5.973  0.6433 -0.1324  0.5246
   67MOL   C41433546   2.974   1.266   5.969 -0.1812 -0.0407  0.3674
   67MOL   H41533547   3.249   0.889   6.211 -0.1154 -1.0619  1.4849
   67MOL   H41633548   3.222   0.718   6.194 -2.8876  0.4177 -1.1773
   67MOL   H41733549   3.122   0.758   5.817  0.9209  0.1888 -0.0300
   67MOL   H41833550   3.135   0.638   5.951  0.6717  0.4151 -0.0874
   67MOL   H41933551   3.275   0.704   5.868 -1.2832  0.8704 -2.7517
   67MOL   H42033552   3.296   1.278   6.085 -0.4075  0.5541 -0.2807
   67MOL   H42133553   3.233   1.247   5.928 -1.0618 -0.1693  0.4010
   67MOL   H42233554   3.156   1.430   6.209 -1.2132 -0.8469  1.9760
   67MOL   H42333555   2.942   1.548   6.236  1.6288  1.4744 -0.8199
   67MOL   H42433556   2.752   1.492   6.099 -0.7209  2.2294 -4.5659
   67MOL   H42533557   2.775   1.339   5.904 -1.0679  2.7949  2.3762
   67MOL   H42633558   2.990   1.188   5.895  1.2089  0.8077 -0.2617
   67MOL   C42733559   3.020   0.856   6.081 -0.2839  0.8345 -0.3879
   67MOL   C42833560   2.908   0.746   6.090 -0.3138  0.4479 -0.3505
   67MOL   C42933561   2.959   0.625   6.177  0.5175 -0.2947 -0.1537
   67MOL   C43033562   2.864   0.705   5.951 -0.0997  0.0352  0.0473
   67MOL   O43133563   2.863   0.584   5.921 -0.3116  0.5854 -0.6262
   67MOL   O43233564   2.830   0.799   5.874 -0.1006  0.0699  0.0284
   67MOL   C43333565   2.794   0.776   5.735  0.7014 -0.1908 -0.7017
   67MOL   C43433566   2.814   0.897   5.638  0.7701  0.0700 -0.2801
   67MOL   C43533567   2.928   0.983   5.663 -0.1550 -0.4114 -0.7329
   67MOL   C43633568   2.963   1.087   5.582 -0.4349  0.7158 -0.1448
   67MOL   C43733569   2.877   1.111   5.474  0.8894  0.6696 -0.3025
   67MOL   C43833570   2.766   1.030   5.441  0.1272 -0.3670 -0.7172
   67MOL   C43933571   2.731   0.929   5.530 -0.4076  0.2269 -0.1191
   67MOL   H44033572   2.978   0.938   6.022  1.0703  0.4508 -1.9257
   67MOL   H44133573   3.029   0.914   6.173  2.0992  0.5816 -0.4572
   67MOL   H44233574   2.969   0.664   6.278 -3.2155 -1.2183  0.6423
   67MOL   H44333575   3.047   0.573   6.142 -1.1503 -1.7293 -2.3421
   67MOL   H44433576   2.890   0.541   6.180 -0.3076  0.3566 -0.6519
   67MOL   H44533577   2.834   0.686   5.688  0.6634 -1.9454  2.4567
   67MOL   H44633578   2.690   0.743   5.734  0.4504  0.5781 -0.3601
   67MOL   H44733579   2.993   0.959   5.745  0.3706 -0.2451 -1.0972
   67MOL   H44833580   3.043   1.158   5.597  0.5150  0.0328 -1.8567
   67MOL   H44933581   2.897   1.187   5.400 -1.1479  1.0753 -0.4719
   67MOL   H45033582   2.709   1.053   5.352  0.1705  1.9245 -0.1932
   67MOL   H45133583   2.650   0.865   5.500  1.1242 -2.6981  1.7890
   67MOL   C45233584   2.792   0.823   6.160  0.1620  0.2699 -0.1935
   67MOL   C45333585   2.668   0.752   6.220  0.1247 -0.4462  0.4485
   67MOL   C45433586   2.608   0.644   6.126  0.0560  0.3824  0.0427
   67MOL   C45533587   2.559   0.862   6.240 -0.0063  0.2229 -0.8638
   67MOL   O45633588   2.567   0.973   6.187  0.2678  0.8242 -0.6160
   67MOL   O45733589   2.455   0.825   6.316 -0.0195 -0.0376 -0.1133
   67MOL   C45833590   2.343   0.907   6.337  0.7235 -0.0920  0.8773
   67MOL   C45933591   2.222   0.869   6.261 -0.1230 -0.4433  0.7199
   67MOL   C46033592   2.191   0.732   6.256 -0.1028 -0.0060 -0.4421
   67MOL   C46133593   2.080   0.686   6.187  0.5903 -1.0482 -0.0093
   67MOL   C46233594   1.999   0.778   6.112  0.0097 -0.8016 -0.7327
   67MOL   C46333595   2.026   0.915   6.115  0.0428 -0.3171 -0.0091
   67MOL   C46433596   2.134   0.964   6.196 -0.7359  0.5439 -0.1354
   67MOL   H46533597   2.755   0.889   6.082 -0.2082 -0.0458 -0.2889
   67MOL   H46633598   2.825   0.889   6.240 -0.1405 -1.3714  1.3181
   67MOL   H46733599   2.598   0.679   6.023 -3.2764  1.4453  0.6620
   67MOL   H46833600   2.506   0.616   6.151 -0.7915  3.1998 -0.0699
   67MOL   H46933601   2.662   0.550   6.131 -1.8293 -0.6972  0.5519
   67MOL   H47033602   2.328   0.910   6.445  0.0003 -0.2019  0.7832
   67MOL   H47133603   2.358   1.013   6.319  1.6480 -0.7097 -2.3731
   67MOL   H47233604   2.248   0.659   6.310 -1.1439 -0.0277  0.6489
   67MOL   H47333605   2.050   0.582   6.185 -2.0949 -0.2811 -1.1704
   67MOL   H47433606   1.926   0.741   6.042 -1.6125 -0.4938  0.7382
   67MOL   H47533607   1.960   0.986   6.068 -0.3053  0.3416  1.4329
   67MOL   H47633608   2.148   1.071   6.196  1.1394  0.3329  1.7969
   67MOL   C47733609   2.703   0.678   6.354 -0.0339 -0.1302  0.6497
   67MOL   C47833610   2.733   0.754   6.485 -0.4989  0.1401  0.0723
   67MOL   C47933611   2.880   0.782   6.515 -0.2545  0.0684 -0.0514
   67MOL   C48033612   2.662   0.680   6.597 -0.8250  0.0445 -0.9123
   67MOL   O48133613   2.718   0.586   6.658  0.3840  0.0568  0.4336
   67MOL   O48233614   2.539   0.728   6.617 -0.5678  0.0811 -0.2585
   67MOL   C48333615   2.455   0.676   6.722 -0.2403  0.0847 -0.6571
   67MOL   C48433616   2.315   0.741   6.715 -0.2150 -0.2657 -0.0655
   67MOL   C48533617   2.226   0.698   6.614  0.5774  0.6196 -0.1887
   67MOL   C48633618   2.097   0.756   6.603 -0.1820 -0.1088 -0.2156
   67MOL   C48733619   2.053   0.854   6.697  0.3243  0.2774  0.4467
   67MOL   C48833620   2.145   0.900   6.793  0.1471  0.7932  0.4221
   67MOL   C48933621   2.276   0.843   6.801  0.8264  0.2460 -0.0389
   67MOL   H49033622   2.792   0.617   6.346  0.2867  0.5123 -0.7858
   67MOL   H49133623   2.617   0.612   6.367  0.1000  0.0633  2.6508
   67MOL   H49233624   2.929   0.685   6.512 -2.9085 -1.2814 -1.6460
   67MOL   H49333625   2.885   0.832   6.612  2.2457  0.9924 -0.6007
   67MOL   H49433626   2.928   0.850   6.444 -0.4144  1.0421  0.7616
   67MOL   H49533627   2.458   0.567   6.720  0.2218  0.0934 -0.4117
   67MOL   H49633628   2.502   0.707   6.815 -0.7131 -0.5800 -0.1937
   67MOL   H49733629   2.260   0.623   6.544  1.2590  0.0658  0.7361
   67MOL   H49833630   2.036   0.722   6.520  0.8863 -0.5106 -0.8377
   67MOL   H49933631   1.953   0.894   6.699 -0.0010 -0.5241  0.5966
   67MOL   H50033632   2.113   0.974   6.864  0.2266  2.7491 -1.5305
   67MOL   H50133633   2.343   0.884   6.876 -0.1519 -1.1321  1.6331
   67MOL   H50233634   2.686   0.853   6.475 -1.8782 -0.4088  1.0017
   68MOL     C133635   1.154   4.571   6.736 -0.0330  0.1779 -0.5480
   68MOL     C233636   1.232   4.548   6.605 -0.3232  0.2671 -0.4496
   68MOL     C333637   1.199   4.676   6.524  0.2443  0.0716 -0.3632
   68MOL     C433638   1.171   4.428   6.526  0.0645 -0.5279 -0.4391
   68MOL     O533639   1.129   4.443   6.407  0.3553  0.1740  0.2892
   68MOL     O633640   1.153   4.316   6.595  0.2229 -0.0274 -0.0674
   68MOL     C733641   1.087   4.202   6.539 -0.3830  0.0939  0.4050
   68MOL     C833642   1.062   4.099   6.648  0.5557 -1.1452 -0.5926
   68MOL     C933643   1.046   3.965   6.605  0.5846  0.1443  0.7385
   68MOL    C1033644   1.012   3.862   6.695 -0.2134 -0.4902 -0.3495
   68MOL    C1133645   0.998   3.897   6.832 -0.2954  0.1673 -0.1897
   68MOL    C1233646   1.013   4.032   6.873 -0.0930  0.3247  0.8819
   68MOL    C1333647   1.046   4.132   6.783 -0.4787  0.2454 -0.3702
   68MOL    H1433648   1.046   4.556   6.731 -0.0363  0.1791 -0.4827
   68MOL    H1533649   1.187   4.496   6.809 -1.5564 -1.5607 -1.6272
   68MOL    H1633650   1.090   4.674   6.518  0.2570  0.1352 -0.6504
   68MOL    H1733651   1.234   4.674   6.421 -0.9829  0.1025 -0.7897
   68MOL    H1833652   1.223   4.773   6.565  1.3423 -0.7501  0.9529
   68MOL    H1933653   0.996   4.224   6.484 -0.7549  1.3909  1.5124
   68MOL    H2033654   1.158   4.154   6.472 -0.8473 -1.4246  0.9824
   68MOL    H2133655   1.059   3.950   6.499  1.2492  0.4693  0.7703
   68MOL    H2233656   1.007   3.758   6.667  0.0904  0.1292 -2.7837
   68MOL    H2333657   0.990   3.817   6.904 -1.3191 -1.0832 -1.6496
   68MOL    H2433658   0.989   4.060   6.974 -1.8207  2.4016 -0.0456
   68MOL    H2533659   1.048   4.237   6.806 -0.8281 -0.0193  0.9411
   68MOL    H2633660   1.179   4.672   6.770  1.4747 -0.1781 -0.5472
   68MOL    C2733661   1.382   4.524   6.635 -0.2106  0.0918 -0.0344
   68MOL    C2833662   1.496   4.527   6.520  0.5784 -0.0547  0.6503
   68MOL    C2933663   1.459   4.432   6.403  0.1588  0.1577 -0.0752
   68MOL    C3033664   1.625   4.466   6.592  0.7898 -0.0483 -0.4332
   68MOL    O3133665   1.680   4.360   6.546  0.0327 -0.1264  0.2033
   68MOL    O3233666   1.654   4.521   6.709 -0.1823 -0.9717 -0.4287
   68MOL    C3333667   1.757   4.472   6.791 -1.0106  0.0002 -0.7019
   68MOL    C3433668   1.766   4.558   6.917  0.4374 -0.0856 -0.1002
   68MOL    C3533669   1.891   4.588   6.967 -0.1029 -0.1529 -1.3301
   68MOL    C3633670   1.898   4.661   7.088 -0.2539 -0.1693 -0.2747
   68MOL    C3733671   1.777   4.694   7.158 -0.3943  0.2160  0.3452
   68MOL    C3833672   1.649   4.660   7.103 -0.0509  0.2653  0.2231
   68MOL    C3933673   1.645   4.579   6.990 -0.0107  0.5478  0.1625
   68MOL    H4033674   1.393   4.425   6.680  0.3059 -0.3201 -1.0549
   68MOL    H4133675   1.407   4.580   6.725  0.1926 -0.9156  0.4867
   68MOL    H4233676   1.553   4.414   6.351  0.7051 -1.5189  1.4341
   68MOL    H4333677   1.379   4.475   6.342 -0.3595  1.0380  1.2103
   68MOL    H4433678   1.444   4.328   6.428 -0.4063  0.0578 -0.8071
   68MOL    H4533679   1.728   4.369   6.814 -1.9285  0.3280 -0.3734
   68MOL    H4633680   1.847   4.471   6.731  0.1857 -1.2869  1.0782
   68MOL    H4733681   1.980   4.573   6.907  0.6488  1.7225 -0.7235
   68MOL    H4833682   1.994   4.686   7.130 -1.0744  0.9301  1.0085
   68MOL    H4933683   1.796   4.744   7.252 -0.0977 -1.8169  1.3835
   68MOL    H5033684   1.558   4.673   7.160  0.3061 -2.4525  1.5434
   68MOL    H5133685   1.548   4.550   6.952  0.1461  2.5409 -1.8376
   68MOL    C5233686   1.519   4.674   6.473 -0.1493  0.4223 -0.4964
   68MOL    C5333687   1.616   4.728   6.361 -0.2711  0.0525  0.3956
   68MOL    C5433688   1.618   4.882   6.376 -0.4208  0.4529 -0.1680
   68MOL    C5533689   1.546   4.697   6.225 -0.0219  0.7051 -0.1188
   68MOL    O5633690   1.600   4.618   6.138  0.4431  0.3752  0.1316
   68MOL    O5733691   1.425   4.753   6.214  0.2833 -0.2840 -0.6125
   68MOL    C5833692   1.345   4.746   6.098 -0.4108 -0.3514  0.0218
   68MOL    C5933693   1.207   4.794   6.120  0.2897  0.0787  0.2525
   68MOL    C6033694   1.110   4.779   6.017  0.3316 -0.0761 -0.0852
   68MOL    C6133695   0.976   4.823   6.021 -0.0989 -0.1105  0.0320
   68MOL    C6233696   0.931   4.874   6.144 -0.0006  0.4239  0.4272
   68MOL    C6333697   1.016   4.882   6.251 -0.2211  0.3365 -0.2166
   68MOL    C6433698   1.152   4.845   6.239 -1.2381 -0.0477  0.7211
   68MOL    H6533699   1.544   4.728   6.564 -1.9395  4.1703 -2.1169
   68MOL    H6633700   1.422   4.721   6.455  0.9517  3.0884  0.2952
   68MOL    H6733701   1.682   4.903   6.462  0.1701 -0.4855 -0.3717
   68MOL    H6833702   1.517   4.924   6.384 -1.0832 -0.9241 -1.1452
   68MOL    H6933703   1.675   4.943   6.306  0.5229  0.5156  0.6444
   68MOL    H7033704   1.389   4.820   6.031  0.8762  0.2273  1.4630
   68MOL    H7133705   1.338   4.650   6.046 -1.3257  0.5536 -1.5729
   68MOL    H7233706   1.144   4.730   5.927  0.6166 -1.1175  0.5898
   68MOL    H7333707   0.911   4.819   5.935 -1.3952  0.4976  0.9683
   68MOL    H7433708   0.834   4.921   6.154 -0.2825  0.3177 -1.4529
   68MOL    H7533709   0.987   4.931   6.343 -0.1051  1.5680 -0.8193
   68MOL    H7633710   1.210   4.873   6.326  1.0588  2.2826 -1.4760
   68MOL    C7733711   1.762   4.664   6.380  0.0303 -0.7017 -0.3025
   68MOL    C7833712   1.899   4.699   6.321 -0.4678  0.8872  0.3177
   68MOL    C7933713   1.928   4.847   6.351 -0.3320  0.3264  0.0470
   68MOL    C8033714   1.908   4.667   6.172  0.2415 -0.1128  0.3475
   68MOL    O8133715   1.936   4.751   6.082 -0.3188 -0.0726  0.1299
   68MOL    O8233716   1.885   4.542   6.143  0.0883  0.6397 -0.5762
   68MOL    C8333717   1.899   4.492   6.009  0.4284  0.1522  1.0492
   68MOL    C8433718   1.826   4.362   5.987  0.3417  0.5634  0.1754
   68MOL    C8533719   1.884   4.272   5.892  0.0802  0.0551  0.5065
   68MOL    C8633720   1.812   4.152   5.860 -0.0031 -0.2140 -0.0827
   68MOL    C8733721   1.692   4.122   5.926 -0.1417  0.2719 -0.6475
   68MOL    C8833722   1.649   4.206   6.030 -0.5346  0.4774  0.0044
   68MOL    C8933723   1.713   4.323   6.063 -0.3274 -0.2089 -0.0252
   68MOL    H9033724   1.751   4.557   6.360 -1.3225 -0.3097 -1.6997
   68MOL    H9133725   1.785   4.669   6.487  2.1456 -1.2505 -0.7225
   68MOL    H9233726   2.025   4.875   6.308 -1.7474  2.0185 -2.1455
   68MOL    H9333727   1.943   4.862   6.458  0.9962  0.0269 -0.0858
   68MOL    H9433728   1.877   4.919   6.287  0.7508  0.8507 -0.2420
   68MOL    H9533729   1.856   4.563   5.938  1.3319 -0.7147 -0.3787
   68MOL    H9633730   2.006   4.488   5.991  0.0350 -0.8208 -1.2165
   68MOL    H9733731   1.968   4.291   5.826 -0.7692 -1.5625 -1.0970
   68MOL    H9833732   1.851   4.085   5.785  0.5303 -2.6321  2.3083
   68MOL    H9933733   1.639   4.030   5.905 -1.1346  0.7662 -0.3578
   68MOL   H10033734   1.564   4.180   6.092 -1.8448  0.7620 -1.6432
   68MOL   H10133735   1.680   4.391   6.139  0.3722 -0.4201  0.4710
   68MOL   C10233736   2.005   4.604   6.396  0.4029  0.0206  0.3695
   68MOL   C10333737   2.163   4.619   6.392  0.4881 -0.3910 -0.0223
   68MOL   C10433738   2.192   4.708   6.517  0.5469  0.1320  0.0314
   68MOL   C10533739   2.218   4.696   6.263 -0.3679  0.4576 -0.2167
   68MOL   O10633740   2.270   4.805   6.273  0.6272 -0.0991  0.2714
   68MOL   O10733741   2.205   4.632   6.154  0.2113 -0.4272  0.3924
   68MOL   C10833742   2.250   4.686   6.031 -0.7364 -0.0190 -0.3176
   68MOL   C10933743   2.245   4.586   5.918 -0.4179  1.0333  0.2026
   68MOL   C11033744   2.204   4.641   5.792 -0.9696 -0.3908  0.5321
   68MOL   C11133745   2.182   4.554   5.685 -0.4787  0.8217 -0.2257
   68MOL   C11233746   2.201   4.418   5.698  0.2647  0.6015 -0.2513
   68MOL   C11333747   2.236   4.367   5.824 -0.0394 -0.1696 -0.3231
   68MOL   C11433748   2.257   4.448   5.942  0.0654  0.2549  0.1480
   68MOL   H11533749   1.981   4.500   6.370  2.9567 -0.6192  0.4982
   68MOL   H11633750   1.979   4.602   6.502 -1.9303 -1.9627 -0.1850
   68MOL   H11733751   2.296   4.740   6.516  0.7898 -0.4543  2.4877
   68MOL   H11833752   2.178   4.663   6.616 -0.7551  1.9078  0.6829
   68MOL   H11933753   2.139   4.804   6.518  1.4667  0.6485  0.0653
   68MOL   H12033754   2.198   4.778   6.006 -1.5668 -0.4888 -0.3225
   68MOL   H12133755   2.353   4.720   6.047 -1.1988  1.1404  0.2379
   68MOL   H12233756   2.186   4.746   5.770  0.9140 -0.1232  0.2109
   68MOL   H12333757   2.146   4.586   5.588 -0.6802  0.3794 -0.3003
   68MOL   H12433758   2.176   4.354   5.615 -0.9313  0.5958  0.1054
   68MOL   H12533759   2.240   4.259   5.836 -2.0141 -0.0335  1.9017
   68MOL   H12633760   2.288   4.405   6.036  2.9654  0.4149 -0.6846
   68MOL   C12733761   2.221   4.467   6.387  0.2777 -0.4450 -0.5157
   68MOL   C12833762   2.373   4.429   6.422 -0.7089  0.7061 -0.2524
   68MOL   C12933763   2.471   4.512   6.331 -0.1548  0.2079  0.2072
   68MOL   C13033764   2.383   4.282   6.373  0.5395  0.2821  0.9383
   68MOL   O13133765   2.455   4.248   6.278  0.1582  0.2012 -0.4841
   68MOL   O13233766   2.314   4.200   6.440 -0.1530  0.0286  0.1436
   68MOL   C13333767   2.284   4.067   6.392 -0.7499  0.1190 -0.0762
   68MOL   C13433768   2.133   4.058   6.365  0.4054 -0.0852  0.7612
   68MOL   C13533769   2.035   4.078   6.463 -0.3750 -0.3708  0.1491
   68MOL   C13633770   1.895   4.086   6.434 -0.6795  0.0085  0.0135
   68MOL   C13733771   1.855   4.072   6.300 -0.4904  0.2713  0.4759
   68MOL   C13833772   1.952   4.043   6.197  0.0805 -0.6469  0.0270
   68MOL   C13933773   2.090   4.046   6.227 -0.1033 -0.5981  0.6340
   68MOL   H14033774   2.198   4.430   6.287 -1.2445  1.0267 -0.7286
   68MOL   H14133775   2.148   4.414   6.448 -1.0910  0.2166 -1.5331
   68MOL   H14233776   2.460   4.616   6.362  0.0998 -0.1926  1.6619
   68MOL   H14333777   2.437   4.509   6.227  0.3455  0.4679  0.0344
   68MOL   H14433778   2.577   4.490   6.336  0.1726  2.3540  4.2938
   68MOL   H14533779   2.340   4.038   6.303  0.2574 -0.5621  0.7658
   68MOL   H14633780   2.297   3.985   6.463  0.6377  0.2964 -0.0991
   68MOL   H14733781   2.070   4.099   6.564  0.9315 -0.7923 -0.1990
   68MOL   H14833782   1.825   4.106   6.513 -2.4295  1.3925 -1.8189
   68MOL   H14933783   1.749   4.077   6.280 -0.3553  0.0462 -0.3272
   68MOL   H15033784   1.919   4.030   6.095 -1.4556  1.9819  0.1472
   68MOL   H15133785   2.161   4.035   6.147  1.2256 -1.3613  1.8777
   68MOL   C15233786   2.406   4.438   6.579  0.3314 -0.1364 -0.3808
   68MOL   C15333787   2.560   4.435   6.633  1.1266 -0.4781 -0.6727
   68MOL   C15433788   2.626   4.570   6.605 -0.0631  0.5985  0.4213
   68MOL   C15533789   2.640   4.324   6.563  0.7077 -0.3584 -0.1551
   68MOL   O15633790   2.743   4.343   6.500  0.5958 -0.2455 -0.4869
   68MOL   O15733791   2.594   4.201   6.594 -0.2627 -0.0662 -0.2976
   68MOL   C15833792   2.660   4.083   6.547  0.2833  0.4974  0.4250
   68MOL   C15933793   2.576   3.962   6.552 -0.1932 -0.8189 -0.6685
   68MOL   C16033794   2.611   3.857   6.470 -0.8027 -0.4646 -0.2157
   68MOL   C16133795   2.531   3.740   6.457 -0.2420  0.6043 -0.5354
   68MOL   C16233796   2.426   3.726   6.558  0.2713  0.0434  0.1486
   68MOL   C16333797   2.398   3.823   6.648 -0.0241 -0.0261 -0.4958
   68MOL   C16433798   2.468   3.945   6.645  0.3099  0.5071  0.3704
   68MOL   H16533799   2.342   4.366   6.629  0.7033 -1.2922 -1.5262
   68MOL   H16633800   2.359   4.530   6.613 -1.2408 -1.0067 -0.1481
   68MOL   H16733801   2.697   4.600   6.682  0.7794  1.5785 -0.7278
   68MOL   H16833802   2.552   4.650   6.596  1.3525  2.0008  1.0081
   68MOL   H16933803   2.697   4.570   6.523 -1.3911  0.4189 -0.7384
   68MOL   H17033804   2.689   4.104   6.444  1.5299  1.8206  1.0159
   68MOL   H17133805   2.750   4.074   6.608  0.3283 -0.5534  0.2104
   68MOL   H17233806   2.707   3.862   6.422  0.1859 -0.8706  1.7029
   68MOL   H17333807   2.554   3.649   6.403  0.0002  0.3186  0.0396
   68MOL   H17433808   2.367   3.637   6.547 -1.6084  1.2092  0.5811
   68MOL   H17533809   2.322   3.820   6.725  1.1023 -3.6516  0.5896
   68MOL   H17633810   2.434   4.017   6.718 -1.5120  2.0547 -1.9278
   68MOL   C17733811   2.553   4.412   6.791  0.4454  0.8752  0.2638
   68MOL   C17833812   2.466   4.505   6.889  0.4276  0.2711 -0.0659
   68MOL   C17933813   2.513   4.454   7.029 -0.1834 -0.2341 -0.4351
   68MOL   C18033814   2.314   4.474   6.893 -0.3005 -0.2032  0.3798
   68MOL   O18133815   2.230   4.561   6.870  0.1392  0.2802 -0.2529
   68MOL   O18233816   2.286   4.346   6.902  0.3683 -0.1935 -0.0816
   68MOL   C18333817   2.156   4.295   6.899 -0.1706  0.4091  0.0735
   68MOL   C18433818   2.144   4.149   6.885 -1.1944 -0.0012  0.0480
   68MOL   C18533819   2.026   4.100   6.833  0.3766 -0.1561 -0.1695
   68MOL   C18633820   2.007   3.959   6.834  0.1509 -0.0625  0.2710
   68MOL   C18733821   2.107   3.869   6.877  0.2118  0.6553  0.0622
   68MOL   C18833822   2.227   3.924   6.933 -0.3148  0.5113  0.2534
   68MOL   C18933823   2.246   4.064   6.931  0.6547  0.5083  0.2142
   68MOL   H19033824   2.658   4.416   6.820  0.3482 -0.5426  0.8417
   68MOL   H19133825   2.516   4.310   6.792 -0.2741  1.1449  2.4223
   68MOL   H19233826   2.603   4.507   7.059 -1.2093  0.0196  2.3305
   68MOL   H19333827   2.531   4.346   7.035  0.2446 -0.1398  0.0296
   68MOL   H19433828   2.437   4.458   7.107  2.4699 -0.2017  2.2239
   68MOL   H19533829   2.110   4.335   6.989 -1.0101 -0.3739  0.0066
   68MOL   H19633830   2.104   4.348   6.819 -0.3423  1.1516  0.6683
   68MOL   H19733831   1.940   4.158   6.804 -0.9053 -1.5737  0.7299
   68MOL   H19833832   1.912   3.914   6.807  0.7791  0.7982 -3.7368
   68MOL   H19933833   2.088   3.763   6.883 -1.6883  0.9848  0.3474
   68MOL   H20033834   2.306   3.859   6.969  0.5034  1.4405  0.1787
   68MOL   H20133835   2.343   4.108   6.950  1.6906 -1.3434 -0.6531
   68MOL   C20233836   2.499   4.662   6.887 -0.2230 -0.3041  0.1552
   68MOL   C20333837   2.439   4.778   6.982  0.2479  0.2274  0.4616
   68MOL   C20433838   2.388   4.720   7.120  0.1587  1.0878  0.6000
   68MOL   C20533839   2.324   4.851   6.915  0.8745  0.3918 -0.8958
   68MOL   O20633840   2.305   4.850   6.795  0.3484  0.3360 -0.2088
   68MOL   O20733841   2.260   4.932   7.000 -0.9497 -0.2115  0.1833
   68MOL   C20833842   2.148   5.005   6.954 -0.4219  0.0916 -0.5614
   68MOL   C20933843   2.091   5.107   7.052 -0.4912 -0.5784 -0.1924
   68MOL   C21033844   2.055   5.067   7.183  0.3382 -0.0271 -0.7005
   68MOL   C21133845   2.010   5.164   7.271  0.3033  0.1987  0.3728
   68MOL   C21233846   2.003   5.300   7.233 -0.1323 -0.6731 -0.2909
   68MOL   C21333847   2.035   5.339   7.104  0.1930 -0.0127  0.4383
   68MOL   C21433848   2.084   5.242   7.015  0.2413  0.2441  0.0034
   68MOL   H21533849   2.485   4.692   6.783 -0.4971  1.5690  0.7177
   68MOL   H21633850   2.608   4.663   6.899 -0.4583 -1.6452  2.8156
   68MOL   H21733851   2.466   4.673   7.179  0.3027 -1.5488 -1.5824
   68MOL   H21833852   2.313   4.641   7.113  1.9507 -0.7127  1.2163
   68MOL   H21933853   2.336   4.797   7.178 -0.8049  1.2432 -0.4397
   68MOL   H22033854   2.172   5.056   6.861  1.4847 -0.7234 -0.5341
   68MOL   H22133855   2.077   4.924   6.937 -1.4862  0.9667 -0.3578
   68MOL   H22233856   2.064   4.965   7.216 -1.1173  0.0847  0.0854
   68MOL   H22333857   1.988   5.122   7.368 -0.4519 -0.0496  0.0954
   68MOL   H22433858   1.972   5.375   7.304  0.3529 -0.9842  0.2531
   68MOL   H22533859   2.017   5.444   7.086  1.7936  0.2805  0.4651
   68MOL   H22633860   2.098   5.270   6.912  0.0704 -0.0581 -0.1050
   68MOL   C22733861   2.553   4.868   7.033 -0.0706 -0.0310 -0.2014
   68MOL   C22833862   2.612   4.994   6.948  0.3197  0.1871  0.3776
   68MOL   C22933863   2.496   5.100   6.938 -0.0429 -0.7570 -0.0615
   68MOL   C23033864   2.647   4.953   6.803 -0.0008 -0.1505 -0.0860
   68MOL   O23133865   2.696   4.847   6.773 -0.0029 -0.3444 -0.0781
   68MOL   O23233866   2.626   5.061   6.719 -0.2997  0.0350 -0.3913
   68MOL   C23333867   2.641   5.039   6.582  0.5020  0.1487 -0.0364
   68MOL   C23433868   2.787   5.049   6.538  0.6232  0.1434 -0.3390
   68MOL   C23533869   2.848   4.942   6.478  0.1931  0.3899 -0.4015
   68MOL   C23633870   2.978   4.951   6.415  0.0419 -0.2094 -0.6766
   68MOL   C23733871   3.056   5.068   6.430  0.1480  0.5720  0.0101
   68MOL   C23833872   2.991   5.179   6.493 -0.4718 -0.2979  0.9576
   68MOL   C23933873   2.858   5.177   6.536  0.5660 -0.1205  0.4719
   68MOL   H24033874   2.630   4.799   7.069 -0.8905 -1.5780 -1.3577
   68MOL   H24133875   2.508   4.919   7.118  0.5262  1.7905 -0.9619
   68MOL   H24233876   2.426   5.082   6.856  0.2039  2.1699 -0.9605
   68MOL   H24333877   2.529   5.204   6.935  0.3699 -0.9011 -0.4368
   68MOL   H24433878   2.433   5.091   7.027  0.9064 -3.2740  0.3786
   68MOL   H24533879   2.609   4.940   6.549  2.2457  0.0447 -1.5362
   68MOL   H24633880   2.580   5.108   6.523  0.0849 -0.1904  0.0012
   68MOL   H24733881   2.790   4.852   6.466 -1.1248  0.8548  2.1641
   68MOL   H24833882   3.015   4.861   6.368 -2.8966 -0.6731 -2.1629
   68MOL   H24933883   3.161   5.074   6.405  0.1169  1.2765  0.0231
   68MOL   H25033884   3.049   5.268   6.509 -0.7778  0.1673 -0.4822
   68MOL   H25133885   2.810   5.265   6.576  1.3994  0.7672 -0.4844
   68MOL   C25233886   2.735   5.066   7.022  0.2320  0.5672  0.0694
   68MOL   C25333887   2.883   5.012   7.032 -0.4132  0.3999 -0.8289
   68MOL   C25433888   2.963   5.055   6.900 -0.0504  0.0763 -0.5488
   68MOL   C25533889   2.884   4.859   7.063  0.6819 -0.1587  0.4289
   68MOL   O25633890   2.845   4.810   7.169  0.0753  0.2248 -0.1863
   68MOL   O25733891   2.929   4.795   6.965 -0.1067 -0.4780  0.1374
   68MOL   C25833892   2.940   4.658   6.970  0.7525  1.0967  0.7011
   68MOL   C25933893   3.023   4.614   6.849 -0.2165  0.0204 -0.0339
   68MOL   C26033894   3.023   4.699   6.733 -0.3231 -0.0989 -0.0682
   68MOL   C26133895   3.113   4.666   6.631 -0.1072 -0.2759  0.4291
   68MOL   C26233896   3.177   4.542   6.631  0.1477  0.2882  0.4394
   68MOL   C26333897   3.184   4.466   6.749  0.3437 -0.1839 -0.4167
   68MOL   C26433898   3.108   4.504   6.858 -0.5375 -0.1373 -0.6949
   68MOL   H26533899   2.698   5.076   7.123 -1.2263 -0.5272 -0.3385
   68MOL   H26633900   2.735   5.171   6.994 -0.8684  0.1762 -1.4744
   68MOL   H26733901   3.066   5.018   6.902 -0.1301 -0.2209 -1.8073
   68MOL   H26833902   2.962   5.162   6.880 -1.9736  0.4365  1.3624
   68MOL   H26933903   2.919   5.008   6.813  1.4415  0.8418 -1.7483
   68MOL   H27033904   2.992   4.609   7.052  0.2987 -1.7187 -0.6437
   68MOL   H27133905   2.845   4.613   6.942  0.5812  1.9634 -0.1036
   68MOL   H27233906   2.963   4.788   6.744 -0.3837 -0.1414 -0.0509
   68MOL   H27333907   3.107   4.715   6.535 -1.8705  0.4773  0.9087
   68MOL   H27433908   3.241   4.522   6.546 -0.2024  2.8040 -0.4826
   68MOL   H27533909   3.249   4.381   6.758  1.3707  0.7130  0.8356
   68MOL   H27633910   3.121   4.439   6.944  1.6145 -1.0435 -1.6572
   68MOL   C27733911   2.959   5.081   7.159  0.4098 -0.2746  0.1051
   68MOL   C27833912   3.106   5.084   7.207 -0.1563 -1.0190  0.0856
   68MOL   C27933913   3.187   5.175   7.113 -0.4332  0.2783  0.3441
   68MOL   C28033914   3.166   4.941   7.195  0.5093  0.0463  0.2021
   68MOL   O28133915   3.164   4.862   7.289 -0.2090  0.1576 -0.0276
   68MOL   O28233916   3.212   4.917   7.069  0.1147  0.2344  0.7305
   68MOL   C28333917   3.307   4.821   7.050 -0.1370  0.7409  0.4113
   68MOL   C28433918   3.447   4.863   7.087 -0.0041  0.3852 -0.2038
   68MOL   C28533919   3.497   4.981   7.032 -0.4595 -0.4648 -0.3001
   68MOL   C28633920   3.623   5.025   7.064 -0.3722 -0.4814  0.9444
   68MOL   C28733921   3.711   4.953   7.146 -0.1557  0.1228  0.4793
   68MOL   C28833922   3.665   4.836   7.212  0.1716  0.0966 -0.0631
   68MOL   C28933923   3.528   4.787   7.179 -0.9606 -0.1021  0.1371
   68MOL   H29033924   2.913   5.030   7.244 -1.0925  1.6980  0.5193
   68MOL   H29133925   2.913   5.180   7.168 -0.7073 -0.6429 -1.5199
   68MOL   H29233926   3.183   5.282   7.134  0.9487 -0.1982  3.1825
   68MOL   H29333927   3.178   5.161   7.005 -1.5536  3.0850  0.0377
   68MOL   H29433928   3.293   5.156   7.127 -0.5103 -1.3845 -1.0755
   68MOL   H29533929   3.283   4.725   7.094  0.2352  1.0934  1.4234
   68MOL   H29633930   3.306   4.808   6.942  1.9068 -2.0603  0.6908
   68MOL   H29733931   3.426   5.041   6.976  0.6397  3.3471  2.1717
   68MOL   H29833932   3.657   5.120   7.025  0.0923 -0.4002  1.5400
   68MOL   H29933933   3.804   4.986   7.189  0.7503  0.6744 -1.8489
   68MOL   H30033934   3.724   4.783   7.285  0.8917  0.8669 -0.0798
   68MOL   H30133935   3.491   4.701   7.232 -1.1053 -0.3028 -0.2816
   68MOL   C30233936   3.120   5.143   7.347  0.8033  0.3647 -0.6950
   68MOL   C30333937   3.251   5.158   7.440  0.2542 -0.3087 -0.6234
   68MOL   C30433938   3.359   5.241   7.365 -0.0819  0.1832 -0.4218
   68MOL   C30533939   3.308   5.014   7.487 -0.3167 -0.7500 -0.3148
   68MOL   O30633940   3.420   4.974   7.456  0.0490  0.0695 -0.5952
   68MOL   O30733941   3.223   4.942   7.555 -0.3095 -0.3175 -0.0253
   68MOL   C30833942   3.252   4.811   7.587  0.3254  0.8722 -0.7473
   68MOL   C30933943   3.137   4.723   7.623  0.5077 -0.1096 -0.0014
   68MOL   C31033944   3.152   4.628   7.722  0.3367 -0.4608 -0.1531
   68MOL   C31133945   3.045   4.534   7.738 -0.3505 -0.5331 -0.3289
   68MOL   C31233946   2.921   4.548   7.671  0.3810 -0.5706  0.1530
   68MOL   C31333947   2.907   4.656   7.577 -0.4831 -0.2726  0.0712
   68MOL   C31433948   3.012   4.743   7.553 -0.4016  0.0792 -0.0514
   68MOL   H31533949   3.055   5.083   7.411 -0.5173  0.9686 -1.4553
   68MOL   H31633950   3.070   5.239   7.340  0.2214 -0.0520 -2.3972
   68MOL   H31733951   3.412   5.189   7.286  3.5533  3.5146 -0.2864
   68MOL   H31833952   3.440   5.264   7.434 -0.5762 -2.6715  1.1979
   68MOL   H31933953   3.319   5.338   7.337  0.6648  1.2575  2.0553
   68MOL   H32033954   3.291   4.755   7.502 -0.1237 -0.0385 -0.3651
   68MOL   H32133955   3.312   4.806   7.678 -0.1668  3.6308 -0.2343
   68MOL   H32233956   3.250   4.613   7.764  0.9829  2.2798 -0.5790
   68MOL   H32333957   3.069   4.458   7.811  1.6029  0.1249 -0.2470
   68MOL   H32433958   2.839   4.483   7.698  1.1844 -1.6172  0.1183
   68MOL   H32533959   2.812   4.665   7.525 -0.3126 -1.2119 -0.4206
   68MOL   H32633960   3.011   4.822   7.479  1.9806 -0.3195 -0.5579
   68MOL   C32733961   3.193   5.232   7.570 -0.3612 -0.2884  0.3593
   68MOL   C32833962   3.283   5.266   7.698  0.5800 -0.2778  0.5678
   68MOL   C32933963   3.198   5.376   7.768  0.4171 -0.0140  0.0080
   68MOL   C33033964   3.419   5.329   7.673  0.3279  0.4311  0.0187
   68MOL   O33133965   3.514   5.272   7.726  0.4570  0.3762  0.4237
   68MOL   O33233966   3.420   5.446   7.601 -0.0150  0.3340  1.4299
   68MOL   C33333967   3.546   5.499   7.557 -0.2691  0.5233 -0.0394
   68MOL   C33433968   3.549   5.652   7.577 -0.5428  0.0409 -0.5548
   68MOL   C33533969   3.657   5.727   7.522 -0.1688 -0.4255  0.7634
   68MOL   C33633970   3.661   5.866   7.552  0.1479  0.3099  0.5737
   68MOL   C33733971   3.562   5.925   7.629  0.4289  0.0794 -0.2359
   68MOL   C33833972   3.456   5.855   7.686  0.3880  0.5090  0.4210
   68MOL   C33933973   3.457   5.718   7.667 -0.7734 -0.0657  0.0689
   68MOL   H34033974   3.106   5.174   7.600  0.4592 -1.9183 -0.3427
   68MOL   H34133975   3.161   5.327   7.528 -0.1348  0.0496  0.9388
   68MOL   H34233976   3.093   5.348   7.779 -0.0637  1.8302  0.2559
   68MOL   H34333977   3.186   5.457   7.696 -1.4105  0.1035  0.4001
   68MOL   H34433978   3.237   5.426   7.857  0.3136  0.4509 -0.2098
   68MOL   H34533979   3.634   5.466   7.613  0.3620  1.8290 -0.2400
   68MOL   H34633980   3.555   5.468   7.453 -2.7972  2.4314 -0.8620
   68MOL   H34733981   3.732   5.677   7.463  0.4097 -1.0756  2.0313
   68MOL   H34833982   3.741   5.922   7.505 -0.4868  2.3418  1.8942
   68MOL   H34933983   3.574   6.031   7.647  1.2504  0.0476 -0.5556
   68MOL   H35033984   3.374   5.910   7.733  1.0986  0.5203  1.6730
   68MOL   H35133985   3.391   5.655   7.725 -0.8084  0.9677  1.1665
   68MOL   C35233986   3.286   5.129   7.788  0.4524  0.2947 -0.5093
   68MOL   C35333987   3.298   5.129   7.947 -0.4582 -0.3407  0.5204
   68MOL   C35433988   3.167   5.177   0.003 -0.6840  0.2069 -0.2964
   68MOL   C35533989   3.410   5.228   8.003  0.3696 -0.0508 -0.0141
   68MOL   O35633990   3.380   5.336   0.037  0.2360  0.4962 -0.1904
   68MOL   O35733991   3.538   5.170   7.997  0.1536 -0.0957 -0.0860
   68MOL   C35833992   3.644   5.243   0.045 -0.2426 -0.1090  0.1493
   68MOL   C35933993   3.724   5.328   7.954  0.0278 -0.5998 -0.1676
   68MOL   C36033994   3.839   5.280   7.882  0.7011 -0.4652  0.2801
   68MOL   C36133995   3.892   5.355   7.777  0.6607 -0.4616  0.0061
   68MOL   C36233996   3.847   5.485   7.759  0.2171 -0.7535 -0.1048
   68MOL   C36333997   3.742   5.538   7.834 -0.0665 -0.6296 -0.0017
   68MOL   C36433998   3.682   5.460   7.934  0.2314  0.0610 -0.1795
   68MOL   H36533999   3.371   5.075   7.745  0.1151 -1.3453  0.8497
   68MOL   H36634000   3.214   5.051   7.764 -0.5754  0.9318  0.4774
   68MOL   H36734001   3.128   5.277   7.990 -1.1017  0.0279 -0.3904
   68MOL   H36834002   3.165   5.185   0.111  0.6760 -0.5789 -0.2137
   68MOL   H36934003   3.095   5.102   7.978 -1.3407  0.3159  0.9137
   68MOL   H37034004   3.597   5.293   0.130  0.7341  0.8568  0.1294
   68MOL   H37134005   3.709   5.172   0.096 -0.9890 -1.5034 -0.8244
   68MOL   H37234006   3.887   5.187   7.909  2.4530  0.4203  0.2477
   68MOL   H37334007   3.973   5.309   7.723  0.3331 -1.5771  0.4561
   68MOL   H37434008   3.891   5.548   7.683  0.0248 -0.5406 -0.0409
   68MOL   H37534009   3.700   5.636   7.819 -1.9975 -1.2199  1.4119
   68MOL   H37634010   3.593   5.502   7.979 -0.0133 -0.0002 -0.6050
   68MOL   C37734011   3.324   4.976   7.983 -0.6783  0.0322  0.3184
   68MOL   C37834012   3.352   4.903   0.113  0.3934  0.4117 -0.2872
   68MOL   C37934013   3.264   4.774   0.117 -0.7415  1.2644  0.7943
   68MOL   C38034014   3.307   4.996   0.230  0.5099  0.3629  0.2069
   68MOL   O38134015   3.194   4.983   0.280  0.1348 -0.1401 -0.1356
   68MOL   O38234016   3.400   5.074   0.283  0.3816  0.0288 -0.0936
   68MOL   C38334017   3.372   5.155   0.393 -0.0936  0.0277 -0.4503
   68MOL   C38434018   3.478   5.260   0.419  0.0072 -0.2163  0.1049
   68MOL   C38534019   3.473   5.380   0.348 -0.6730  0.0923  0.2573
   68MOL   C38634020   3.582   5.468   0.361  0.3331  0.3169 -0.2369
   68MOL   C38734021   3.694   5.437   0.441 -0.2964  0.4357 -0.0375
   68MOL   C38834022   3.701   5.320   0.520 -0.0194 -0.0111  0.9402
   68MOL   C38934023   3.591   5.231   0.499  0.3846  0.0559  0.1656
   68MOL   H39034024   3.391   4.935   7.908  3.4726  1.0235  3.3077
   68MOL   H39134025   3.234   4.936   7.937 -0.9047  2.4205 -1.3820
   68MOL   H39234026   3.296   4.716   0.031  1.6072  1.3786  1.5557
   68MOL   H39334027   3.159   4.789   0.092 -0.4523  0.2530 -1.0632
   68MOL   H39434028   3.266   4.716   0.210 -2.0314 -0.8476 -0.4650
   68MOL   H39534029   3.272   5.198   0.404 -0.6865 -1.1403 -1.0988
   68MOL   H39634030   3.364   5.085   0.476 -0.1451 -3.8797 -3.5864
   68MOL   H39734031   3.393   5.403   0.280 -0.8936 -1.7744 -0.1358
   68MOL   H39834032   3.568   5.567   0.321  0.2551 -0.3867 -1.9635
   68MOL   H39934033   3.774   5.508   0.458  0.5915 -0.5741  0.0450
   68MOL   H40034034   3.781   5.309   0.591  0.1713 -1.8840  0.4582
   68MOL   H40134035   3.599   5.139   0.555  0.1449  0.8275  1.4867
   68MOL   C40234036   3.505   4.865   0.126 -0.1969 -0.3668  0.0265
   68MOL   C40334037   3.566   4.751   0.220 -0.1984 -0.1490 -0.3914
   68MOL   C40434038   3.719   4.780   0.219 -0.0987  0.0909 -0.7837
   68MOL   C40534039   3.532   4.618   0.163 -0.2516  0.0555  0.4127
   68MOL   O40634040   3.457   4.537   0.221 -0.0722  0.2086 -0.0065
   68MOL   O40734041   3.576   4.599   0.038  0.3019 -0.5363  0.1710
   68MOL   C40834042   3.564   4.480   7.980  0.4589 -0.2866  0.2606
   68MOL   C40934043   3.535   4.498   7.834  0.0562  0.5191  0.0883
   68MOL   C41034044   3.478   4.390   7.765  0.9964  0.1374 -0.2010
   68MOL   C41134045   3.443   4.407   7.627 -0.9162 -0.3720  0.9048
   68MOL   C41234046   3.479   4.530   7.556  0.1850 -1.0192 -0.4574
   68MOL   C41334047   3.547   4.636   7.626  0.8267 -0.3341  0.4018
   68MOL   C41434048   3.569   4.616   7.760 -0.3168 -0.2005  0.1146
   68MOL   H41534049   3.550   4.957   0.163  0.5640 -1.3004  1.4514
   68MOL   H41634050   3.545   4.863   0.024 -0.1857  0.2891  0.0162
   68MOL   H41734051   3.766   4.759   0.123  2.7294  0.8308  0.4012
   68MOL   H41834052   3.780   4.718   0.284 -0.1172  0.7578 -0.1228
   68MOL   H41934053   3.735   4.881   0.257  0.3453 -0.4808  0.5882
   68MOL   H42034054   3.655   4.425   8.002  1.3450  1.6476  1.6141
   68MOL   H42134055   3.495   4.408   0.017 -0.3707 -1.0209 -2.1307
   68MOL   H42234056   3.450   4.302   7.822 -2.3807 -0.2028 -2.2575
   68MOL   H42334057   3.398   4.328   7.569  1.7388 -2.2527  1.3331
   68MOL   H42434058   3.448   4.536   7.453  1.3220  0.0265 -0.7577
   68MOL   H42534059   3.584   4.721   7.572 -1.8579 -0.4964 -1.7980
   68MOL   H42634060   3.615   4.697   7.814  1.5992 -2.2045  1.6037
   68MOL   C42734061   3.515   4.770   0.372  0.3186 -0.1575 -0.9525
   68MOL   C42834062   3.567   4.698   0.506 -0.3500  0.7187 -0.2695
   68MOL   C42934063   3.634   4.556   0.476 -0.2849 -0.0900 -0.7680
   68MOL   C43034064   3.441   4.672   0.596  0.1087  0.0367 -0.5099
   68MOL   O43134065   3.406   4.557   0.629  0.3256 -0.4225  0.1764
   68MOL   O43234066   3.372   4.777   0.632  0.8201 -0.0538 -0.6180
   68MOL   C43334067   3.251   4.761   0.707  0.3737 -0.4386 -0.6078
   68MOL   C43434068   3.140   4.731   0.616 -0.3339 -0.2781 -0.2165
   68MOL   C43534069   3.088   4.601   0.627  0.2864  0.1504  0.5779
   68MOL   C43634070   2.988   4.556   0.535 -0.0804 -0.4048 -0.5344
   68MOL   C43734071   2.944   4.645   0.436 -0.0477 -0.2711  0.3874
   68MOL   C43834072   2.991   4.774   0.434 -0.2156 -0.2122  1.2703
   68MOL   C43934073   3.079   4.819   0.529 -0.3635  0.0300 -0.3931
   68MOL   H44034074   3.406   4.762   0.379  0.4690 -0.5062  1.4105
   68MOL   H44134075   3.531   4.878   0.383  3.5250 -0.6236 -0.5847
   68MOL   H44234076   3.581   4.492   0.407 -0.8724  0.7386 -1.0949
   68MOL   H44334077   3.639   4.497   0.567 -2.1213 -0.0052 -0.6087
   68MOL   H44434078   3.737   4.567   0.441  0.4065  0.1963  1.2371
   68MOL   H44534079   3.271   4.682   0.779  0.9067  0.4857  0.2853
   68MOL   H44634080   3.212   4.848   0.760 -0.2920 -1.8639  1.2556
   68MOL   H44734081   3.133   4.543   0.707 -0.4636 -1.0024  0.1616
   68MOL   H44834082   2.952   4.455   0.548  0.9368 -0.5778  0.9958
   68MOL   H44934083   2.864   4.610   0.374  1.3554 -1.0971 -0.9982
   68MOL   H45034084   2.947   4.843   0.363 -0.2742 -2.7298 -1.2283
   68MOL   H45134085   3.107   4.923   0.521  3.2233 -0.5967  2.5523
   68MOL   C45234086   3.668   4.801   0.574  1.0757  0.2412  0.3072
   68MOL   C45334087   3.750   4.770   0.710 -1.0472  1.0717  0.1045
   68MOL   C45434088   3.654   4.722   0.826 -0.1771  0.2578 -0.4932
   68MOL   C45534089   3.815   4.907   0.759  0.5147 -0.6439  1.1425
   68MOL   O45634090   3.927   4.944   0.722 -0.7503  0.0855 -0.5472
   68MOL   O45734091   3.723   4.983   0.811 -0.6047  0.1987 -0.3568
   68MOL   C45834092   3.752   5.103   0.870 -0.2417  0.1497 -0.0704
   68MOL   C45934093   3.740   5.101   1.025 -0.1381 -0.6528  0.0797
   68MOL   C46034094   3.688   5.217   1.088  0.7485  0.1923 -0.0890
   68MOL   C46134095   3.669   5.210   1.225 -0.2447 -0.2550  0.2092
   68MOL   C46234096   3.711   5.104   1.300  0.0549 -0.4023  0.0500
   68MOL   C46334097   3.774   4.995   1.233  0.4621  0.3918  0.2827
   68MOL   C46434098   3.785   4.989   1.094 -0.6876  0.3527 -0.3894
   68MOL   H46534099   3.620   4.897   0.591 -3.5144 -1.7961 -0.6346
   68MOL   H46634100   3.742   4.817   0.495 -0.0781  1.6854 -0.5164
   68MOL   H46734101   3.707   4.731   0.921  1.6725 -0.2297 -1.4626
   68MOL   H46834102   3.619   4.620   0.813  0.4178 -0.3136  2.0922
   68MOL   H46934103   3.563   4.781   0.828 -0.1863  0.2329 -0.0731
   68MOL   H47034104   3.857   5.122   0.844 -0.1048 -0.3689  0.1025
   68MOL   H47134105   3.687   5.180   0.829 -1.5221 -0.3856  0.9167
   68MOL   H47234106   3.659   5.302   1.028  1.7232  1.5154  1.2942
   68MOL   H47334107   3.624   5.294   1.275 -1.5725 -0.5129 -0.5221
   68MOL   H47434108   3.694   5.109   1.406 -1.9115  2.8780 -0.3526
   68MOL   H47534109   3.826   4.920   1.291 -0.5048 -1.2855 -0.9644
   68MOL   H47634110   3.825   4.902   1.044  1.8956  1.0820  0.2886
   68MOL   C47734111   3.865   4.671   0.676 -0.7438 -0.3925 -0.0847
   68MOL   C47834112   3.982   4.635   0.777 -0.4641 -0.1167 -0.0618
   68MOL   C47934113   4.074   4.530   0.718 -0.2784 -0.0026 -0.4870
   68MOL   C48034114   3.935   4.596   0.918 -0.1798 -0.1217 -0.7433
   68MOL   O48134115   3.952   4.660   1.020 -0.1109  0.0843 -0.1461
   68MOL   O48234116   3.867   4.482   0.915  0.1834  0.6823  0.0273
   68MOL   C48334117   3.808   4.426   1.027  0.3158 -0.6537 -0.0931
   68MOL   C48434118   3.661   4.467   1.045 -0.1785  0.5884 -0.5165
   68MOL   C48534119   3.574   4.411   0.957  0.7686  0.7104  0.1176
   68MOL   C48634120   3.434   4.452   0.956 -0.2936  0.0292 -0.1046
   68MOL   C48734121   3.392   4.550   1.049  0.9684  0.1816 -0.3838
   68MOL   C48834122   3.488   4.616   1.127  0.4678  0.7412 -0.3957
   68MOL   C48934123   3.621   4.574   1.126  0.2541 -0.6840 -0.4710
   68MOL   H49034124   3.921   4.711   0.591  2.0069  0.4986  2.0806
   68MOL   H49134125   3.809   4.580   0.655  0.9389 -1.1991 -1.2297
   68MOL   H49234126   4.114   4.562   0.622 -0.8997  0.0127 -0.7415
   68MOL   H49334127   4.025   4.437   0.692  0.7371 -0.4236 -0.9100
   68MOL   H49434128   4.163   4.522   0.781 -0.2205  2.1511 -0.2290
   68MOL   H49534129   3.800   4.318   1.020 -3.9584 -0.5524  1.5198
   68MOL   H49634130   3.847   4.457   1.125  3.1864  0.0313 -1.4046
   68MOL   H49734131   3.611   4.357   0.871 -0.3246  1.2491 -0.7210
   68MOL   H49834132   3.361   4.412   0.887 -2.1573  0.4892  1.5639
   68MOL   H49934133   3.288   4.575   1.040  0.5634 -0.8363  1.2788
   68MOL   H50034134   3.453   4.688   1.200 -3.1986 -0.1148 -1.2076
   68MOL   H50134135   3.690   4.618   1.196 -0.4111  0.4102 -0.4953
   68MOL   H50234136   4.044   4.722   0.799  0.1138 -0.7196  0.7134
   69MOL     C134137   2.931   7.305   6.923 -0.4293  0.4583  0.1604
   69MOL     C234138   2.820   7.393   6.864  0.4968  0.6808  0.5483
   69MOL     C334139   2.870   7.540   6.831  0.0540  0.1407  0.4349
   69MOL     C434140   2.698   7.395   6.964  0.4040 -0.2843 -0.8661
   69MOL     O534141   2.702   7.323   7.065  0.1230  0.2736  0.3772
   69MOL     O634142   2.594   7.476   6.927 -0.7223 -0.6400  0.6426
   69MOL     C734143   2.471   7.496   7.001  0.0437 -0.3375 -0.2456
   69MOL     C834144   2.350   7.504   6.914 -0.0390 -0.3375  0.0866
   69MOL     C934145   2.338   7.440   6.792 -0.0668  0.3229  1.0106
   69MOL    C1034146   2.221   7.456   6.719  0.5142 -0.9103  0.1095
   69MOL    C1134147   2.110   7.532   6.768 -0.4031  0.1481 -0.2513
   69MOL    C1234148   2.118   7.594   6.891 -0.2532  0.6202 -0.6282
   69MOL    C1334149   2.241   7.584   6.961 -0.4136  0.5565 -0.3770
   69MOL    H1434150   3.032   7.315   6.882 -1.1466 -0.2448 -1.8508
   69MOL    H1534151   2.939   7.339   7.026  1.1584  2.2557 -0.5188
   69MOL    H1634152   2.881   7.591   6.927  2.5479  0.5127 -0.0092
   69MOL    H1734153   2.803   7.597   6.768  2.6362 -0.2405 -2.7984
   69MOL    H1834154   2.963   7.542   6.774  1.0692 -1.5598  1.9645
   69MOL    H1934155   2.472   7.418   7.077 -0.6881 -0.1581 -0.0543
   69MOL    H2034156   2.473   7.585   7.064  2.2254  1.8508 -3.2519
   69MOL    H2134157   2.415   7.377   6.750 -2.4390  1.0161 -4.7462
   69MOL    H2234158   2.192   7.407   6.627 -0.8453  0.2957 -0.1305
   69MOL    H2334159   2.019   7.526   6.711 -1.3350 -0.7831  1.3075
   69MOL    H2434160   2.035   7.646   6.938  0.9511  2.0653 -0.0481
   69MOL    H2534161   2.256   7.639   7.053 -1.0218  0.7504 -0.3926
   69MOL    H2634162   2.917   7.197   6.924  0.8347  0.2902  2.2034
   69MOL    C2734163   2.759   7.326   6.727  0.6531  0.2138  0.1411
   69MOL    C2834164   2.837   7.324   6.589 -0.3070  0.4197  0.2818
   69MOL    C2934165   2.992   7.295   6.611  0.4500 -0.5582 -0.3448
   69MOL    C3034166   2.835   7.463   6.520 -0.5004 -0.7655 -0.1451
   69MOL    O3134167   2.937   7.530   6.513  0.1545 -0.0396  0.7190
   69MOL    O3234168   2.710   7.491   6.477 -0.0989 -0.6596  0.1563
   69MOL    C3334169   2.682   7.618   6.415 -0.3496 -0.2878  0.9376
   69MOL    C3434170   2.529   7.642   6.428 -0.3642  0.3764  0.1728
   69MOL    C3534171   2.438   7.552   6.375 -0.1757 -0.1025  0.1451
   69MOL    C3634172   2.301   7.581   6.383 -0.8006 -0.0963 -0.1111
   69MOL    C3734173   2.262   7.702   6.442  1.1584  0.1717 -0.6742
   69MOL    C3834174   2.358   7.791   6.496 -0.7711  0.4954 -0.2777
   69MOL    C3934175   2.499   7.765   6.488 -0.1580 -0.2084 -0.0090
   69MOL    H4034176   2.662   7.373   6.708 -0.4337 -1.2783  1.8426
   69MOL    H4134177   2.704   7.235   6.752 -0.4732  0.4690 -1.3530
   69MOL    H4234178   3.042   7.277   6.516  1.4215  1.4600 -0.2344
   69MOL    H4334179   3.009   7.200   6.662 -2.9067 -1.1285 -0.1218
   69MOL    H4434180   3.054   7.364   6.667  1.9693 -0.4699 -2.0836
   69MOL    H4534181   2.746   7.698   6.451  0.1214  0.2491 -1.0461
   69MOL    H4634182   2.706   7.613   6.309  0.9255  3.0835  1.0214
   69MOL    H4734183   2.475   7.463   6.326  2.1031  1.4378 -1.0008
   69MOL    H4834184   2.223   7.513   6.354  0.0772 -0.7129 -1.0706
   69MOL    H4934185   2.158   7.732   6.449  1.1014 -0.1944  0.0433
   69MOL    H5034186   2.323   7.883   6.540  0.6371 -0.0021  1.9869
   69MOL    H5134187   2.574   7.831   6.530  1.2153 -1.2693 -0.7537
   69MOL    C5234188   2.767   7.225   6.482  0.4378 -0.1596 -0.2875
   69MOL    C5334189   2.805   7.066   6.466 -0.8178 -0.6129  0.3895
   69MOL    C5434190   2.795   7.012   6.606 -0.1154  0.6101 -0.5714
   69MOL    C5534191   2.954   7.047   6.415  0.2510  0.1645 -0.2854
   69MOL    O5634192   3.032   6.970   6.467 -0.2968  0.5396 -0.1417
   69MOL    O5734193   2.989   7.121   6.308  0.2164 -0.3494  0.0275
   69MOL    C5834194   3.117   7.113   6.249  0.2802  0.0861  0.3048
   69MOL    C5934195   3.148   7.239   6.166 -0.1707  0.1239  0.1608
   69MOL    C6034196   3.128   7.366   6.221  0.7414 -0.1008  0.2120
   69MOL    C6134197   3.150   7.478   6.139 -0.0430  0.2311  0.1768
   69MOL    C6234198   3.190   7.470   6.006  0.3510  0.2914  0.1780
   69MOL    C6334199   3.225   7.343   5.960 -0.2894 -0.1477  0.1342
   69MOL    C6434200   3.207   7.224   6.034 -0.2042  0.3613  0.1236
   69MOL    H6534201   2.783   7.270   6.384 -2.4166 -1.0154 -1.1804
   69MOL    H6634202   2.660   7.230   6.500 -0.5456 -1.3267 -5.2042
   69MOL    H6734203   2.842   6.914   6.617 -1.6402 -0.2014 -0.9750
   69MOL    H6834204   2.693   6.995   6.640 -0.5522  2.3769 -0.9621
   69MOL    H6934205   2.849   7.070   6.680 -1.5933  4.3276 -2.2646
   69MOL    H7034206   3.189   7.102   6.331  2.1372  1.2439 -1.1232
   69MOL    H7134207   3.132   7.016   6.201  2.2514 -0.0651  1.1603
   69MOL    H7234208   3.085   7.369   6.321 -2.1735  0.7309 -0.9935
   69MOL    H7334209   3.139   7.576   6.185  1.4039  1.0025 -1.0718
   69MOL    H7434210   3.218   7.556   5.947  4.3681  0.2920  1.9382
   69MOL    H7534211   3.265   7.331   5.860 -1.1108  0.5114 -0.2836
   69MOL    H7634212   3.227   7.125   5.996  0.6389  1.1821 -1.6605
   69MOL    C7734213   2.694   7.006   6.370 -0.9728 -0.0471 -0.2659
   69MOL    C7834214   2.691   6.864   6.307  0.0316  0.2018 -0.3103
   69MOL    C7934215   2.743   6.755   6.405 -0.0422 -0.7709 -1.1238
   69MOL    C8034216   2.775   6.863   6.180  0.1816 -0.6007 -0.4197
   69MOL    O8134217   2.891   6.818   6.169 -0.0113  0.2393  0.2265
   69MOL    O8234218   2.722   6.932   6.087  0.3666  0.4212  0.2552
   69MOL    C8334219   2.796   6.963   5.971  0.1894  0.3104 -0.2147
   69MOL    C8434220   2.773   7.107   5.930 -0.0521 -0.3448 -0.3587
   69MOL    C8534221   2.850   7.205   5.988 -0.0041 -0.7201  0.7652
   69MOL    C8634222   2.830   7.342   5.952  0.2120 -0.1162  0.6450
   69MOL    C8734223   2.732   7.376   5.859  0.5250 -0.4874 -0.0806
   69MOL    C8834224   2.663   7.276   5.786 -0.1074 -0.0273  0.7787
   69MOL    C8934225   2.680   7.141   5.830  0.2257 -0.2306 -0.8340
   69MOL    H9034226   2.666   7.085   6.300 -2.8219  0.9966  1.6144
   69MOL    H9134227   2.605   7.014   6.432 -2.3081 -0.3369 -2.0942
   69MOL    H9234228   2.770   6.661   6.356 -1.3414 -1.0243 -1.3763
   69MOL    H9334229   2.671   6.749   6.485 -0.3027  3.0455 -0.9936
   69MOL    H9434230   2.840   6.782   6.447  0.7298  0.4095 -3.5227
   69MOL    H9534231   2.904   6.947   5.971 -0.2070 -2.7226  2.2885
   69MOL    H9634232   2.739   6.913   5.892 -2.1188  1.9349  0.3571
   69MOL    H9734233   2.933   7.175   6.051  1.2165  1.1026  0.0570
   69MOL    H9834234   2.908   7.408   5.988  0.9033 -0.9154  0.6373
   69MOL    H9934235   2.712   7.479   5.831  0.4768 -0.5896 -0.4171
   69MOL   H10034236   2.591   7.303   5.710 -1.6233 -2.4037  1.3172
   69MOL   H10134237   2.614   7.067   5.788 -1.8210  1.1260 -0.0838
   69MOL   C10234238   2.538   6.828   6.271 -0.0034 -0.0417 -0.1024
   69MOL   C10334239   2.488   6.700   6.195  0.5426  0.4907 -0.0335
   69MOL   C10434240   2.550   6.566   6.257 -0.3163  0.0975  0.6719
   69MOL   C10534241   2.516   6.714   6.045 -0.5227 -0.6637 -0.1314
   69MOL   O10634242   2.501   6.822   5.991  0.1488  0.1168  0.2853
   69MOL   O10734243   2.555   6.598   5.992  0.3317 -0.9564  0.4738
   69MOL   C10834244   2.594   6.594   5.850  0.8341  0.1855  0.3536
   69MOL   C10934245   2.585   6.455   5.776 -0.5902  0.4120 -0.7151
   69MOL   C11034246   2.697   6.398   5.708 -0.1517 -0.8685 -0.0544
   69MOL   C11134247   2.696   6.268   5.670  0.7740 -0.1998  0.4258
   69MOL   C11234248   2.583   6.189   5.694 -0.2086  0.2233 -0.5326
   69MOL   C11334249   2.464   6.245   5.754 -0.3365  0.2183 -0.0048
   69MOL   C11434250   2.463   6.381   5.784  0.0708 -0.1482 -0.0435
   69MOL   H11534251   2.494   6.919   6.232 -0.2397 -1.1095 -2.3990
   69MOL   H11634252   2.502   6.817   6.373 -1.9781 -0.6252 -0.8431
   69MOL   H11734253   2.565   6.581   6.364 -1.7845 -2.2705  1.2374
   69MOL   H11834254   2.648   6.565   6.210 -0.9309  1.4324 -0.6793
   69MOL   H11934255   2.494   6.474   6.240  0.6954 -0.1001 -1.7865
   69MOL   H12034256   2.540   6.668   5.791 -1.6159 -1.2787  0.6760
   69MOL   H12134257   2.695   6.632   5.837  0.4898  1.3297  0.9760
   69MOL   H12234258   2.782   6.458   5.678 -0.4803 -1.4121 -2.1775
   69MOL   H12334259   2.784   6.241   5.613  1.5833  2.2382  0.4483
   69MOL   H12434260   2.570   6.087   5.663 -2.5069 -0.1322  1.4732
   69MOL   H12534261   2.376   6.183   5.762 -1.0404  0.8576 -2.2689
   69MOL   H12634262   2.377   6.420   5.836  1.0309 -0.0841  1.5479
   69MOL   C12734263   2.331   6.697   6.219 -0.1231 -0.1027 -0.0731
   69MOL   C12834264   2.220   6.627   6.140  0.1859  0.7846  0.5755
   69MOL   C12934265   2.260   6.472   6.141 -0.0818 -0.2530  0.0017
   69MOL   C13034266   2.213   6.686   5.999  0.4462 -0.4091  0.9358
   69MOL   O13134267   2.217   6.615   5.896  0.3268  0.1457  0.6325
   69MOL   O13234268   2.192   6.822   5.994 -0.1175  0.0170 -0.5670
   69MOL   C13334269   2.190   6.885   5.869  0.3269 -0.6388 -0.0252
   69MOL   C13434270   2.190   7.038   5.887 -0.4962 -0.5719 -0.1055
   69MOL   C13534271   2.309   7.111   5.892 -0.0942 -0.1593 -0.3188
   69MOL   C13634272   2.312   7.243   5.942 -0.2576  0.3771 -0.0745
   69MOL   C13734273   2.194   7.309   5.987 -0.2654  0.6066  0.3195
   69MOL   C13834274   2.073   7.235   5.977 -0.0118  0.3578  0.3710
   69MOL   C13934275   2.071   7.101   5.933  0.5473 -0.1728  0.6696
   69MOL   H14034276   2.319   6.804   6.207  0.8998 -0.0642 -0.7997
   69MOL   H14134277   2.307   6.675   6.323  0.9268 -0.3666  0.1169
   69MOL   H14234278   2.189   6.396   6.110 -1.0778  0.0513  1.4503
   69MOL   H14334279   2.284   6.441   6.243  0.9669 -0.1573 -0.2097
   69MOL   H14434280   2.346   6.448   6.078 -0.7211 -1.5858 -0.3812
   69MOL   H14534281   2.283   6.859   5.820  0.7585  0.2405  0.3210
   69MOL   H14634282   2.102   6.846   5.818 -0.6517 -0.5332  1.5402
   69MOL   H14734283   2.401   7.061   5.862  0.7369  2.8970 -3.0807
   69MOL   H14834284   2.403   7.301   5.952 -0.6029  1.1175 -1.1422
   69MOL   H14934285   2.190   7.416   5.997 -1.0624  0.7938 -1.7823
   69MOL   H15034286   1.980   7.282   6.007 -1.0513 -1.0350 -0.6247
   69MOL   H15134287   1.976   7.050   5.925  1.1868 -1.2897  0.0713
   69MOL   C15234288   2.085   6.652   6.219  0.6652 -0.2552 -0.7661
   69MOL   C15334289   1.938   6.612   6.179  0.2367 -0.1320  0.1072
   69MOL   C15434290   1.887   6.687   6.049 -0.8404 -0.2842 -0.4556
   69MOL   C15534291   1.851   6.658   6.296 -0.3708 -0.0616  0.4401
   69MOL   O15634292   1.832   6.580   6.389  0.3611  0.0108 -0.0457
   69MOL   O15734293   1.818   6.788   6.294 -0.0394 -0.0979  0.0240
   69MOL   C15834294   1.776   6.845   6.419  0.7208  0.2008 -0.6803
   69MOL   C15934295   1.665   6.945   6.402 -0.1769 -0.5334 -0.0380
   69MOL   C16034296   1.635   7.044   6.503  0.0170  0.6977  0.1836
   69MOL   C16134297   1.529   7.137   6.483  0.4367  0.1115  0.1497
   69MOL   C16234298   1.450   7.124   6.367  0.0710  0.0262  0.4070
   69MOL   C16334299   1.475   7.025   6.273 -0.2878 -0.0701  0.5455
   69MOL   C16434300   1.579   6.938   6.293 -0.4998 -0.8182 -0.3071
   69MOL   H16534301   2.086   6.759   6.243  1.8537 -0.3256 -0.4561
   69MOL   H16634302   2.103   6.601   6.314 -0.2266  1.8710  0.6040
   69MOL   H16734303   1.932   6.786   6.032  0.9273 -1.3665 -2.3906
   69MOL   H16834304   1.779   6.702   6.047 -0.5448  2.1251 -0.8363
   69MOL   H16934305   1.915   6.634   5.958  1.6131  0.0924  0.0285
   69MOL   H17034306   1.741   6.766   6.484  0.3986  0.2661 -0.7759
   69MOL   H17134307   1.868   6.891   6.455  2.9141 -2.6563 -2.4283
   69MOL   H17234308   1.706   7.052   6.584  0.9562 -2.4295 -0.2659
   69MOL   H17334309   1.501   7.214   6.554  1.7908 -0.8683  1.7678
   69MOL   H17434310   1.372   7.197   6.353  0.1271 -0.3631 -2.2415
   69MOL   H17534311   1.414   7.021   6.184  1.8040  1.2418 -0.9927
   69MOL   H17634312   1.600   6.873   6.209  0.6743 -2.5242  1.2697
   69MOL   C17734313   1.923   6.450   6.161  0.4635  0.8440 -0.0102
   69MOL   C17834314   1.781   6.382   6.117 -0.6059  0.3139  0.3725
   69MOL   C17934315   1.737   6.436   5.973 -0.0269  0.0399  0.7327
   69MOL   C18034316   1.669   6.401   6.218  0.2924 -0.7021 -0.4940
   69MOL   O18134317   1.570   6.466   6.186 -0.4415  0.1352  0.0605
   69MOL   O18234318   1.686   6.328   6.325  0.2090  0.1995  0.0115
   69MOL   C18334319   1.593   6.335   6.434  0.0032 -0.6531 -0.3980
   69MOL   C18434320   1.618   6.434   6.548  1.2183  0.5543 -0.4652
   69MOL   C18534321   1.550   6.558   6.556 -0.6836  1.2122 -0.1941
   69MOL   C18634322   1.583   6.640   6.666  0.5612 -0.3073 -0.0098
   69MOL   C18734323   1.670   6.598   6.765  0.5497 -0.3818  0.8873
   69MOL   C18834324   1.741   6.476   6.758 -0.3896 -0.5179 -0.1473
   69MOL   C18934325   1.713   6.402   6.644 -0.4109  0.1608 -0.3315
   69MOL   H19034326   1.964   6.385   6.239 -1.1497 -1.7331 -1.2439
   69MOL   H19134327   1.990   6.433   6.077 -0.8702 -1.2081 -0.7002
   69MOL   H19234328   1.700   6.536   5.951 -1.6335 -0.4334  1.2424
   69MOL   H19334329   1.646   6.389   5.936 -1.1574  0.9302  2.3190
   69MOL   H19434330   1.809   6.426   5.891 -0.4659 -0.8911  0.4638
   69MOL   H19534331   1.491   6.346   6.397  0.2983 -0.8276 -1.2780
   69MOL   H19634332   1.586   6.234   6.474  2.0881 -0.2363  1.1122
   69MOL   H19734333   1.479   6.584   6.478  0.4381 -2.5106 -2.5875
   69MOL   H19834334   1.531   6.734   6.675  1.4522  0.1880  0.0687
   69MOL   H19934335   1.686   6.662   6.851  1.2990 -0.3024  0.6962
   69MOL   H20034336   1.804   6.442   6.839  1.6897  0.6856 -1.1852
   69MOL   H20134337   1.767   6.308   6.638  0.3912  0.4277  2.3680
   69MOL   C20234338   1.822   6.228   6.089  0.5507 -0.6765 -0.4368
   69MOL   C20334339   1.717   6.107   6.086  0.5755  0.2162  0.2542
   69MOL   C20434340   1.589   6.147   6.004  0.6117  0.3933  0.4446
   69MOL   C20534341   1.675   6.057   6.226  0.5024  0.1034  0.0390
   69MOL   O20634342   1.555   6.041   6.259 -0.3194 -0.1459  0.1349
   69MOL   O20734343   1.775   6.024   6.308 -0.2778 -0.2367  0.1902
   69MOL   C20834344   1.744   5.994   6.444 -0.1794 -0.1875 -0.1034
   69MOL   C20934345   1.875   6.013   6.524  0.0518 -0.3086  0.2028
   69MOL   C21034346   1.997   5.971   6.457  0.1744  0.0397 -0.1242
   69MOL   C21134347   2.111   5.979   6.545  0.3759  0.1105 -0.1166
   69MOL   C21234348   2.108   6.032   6.674  0.4199  0.0985 -0.7630
   69MOL   C21334349   1.986   6.071   6.737 -0.6538  0.1436  0.3309
   69MOL   C21434350   1.866   6.054   6.659  1.1384 -0.4713 -0.1785
   69MOL   H21534351   1.899   6.200   6.161  0.3244 -3.7838 -1.3022
   69MOL   H21634352   1.885   6.222   6.001  1.4124 -0.2222  0.1444
   69MOL   H21734353   1.549   6.231   6.059  0.1540  0.6230 -0.2397
   69MOL   H21834354   1.511   6.071   5.998  0.6544  0.1043  2.8347
   69MOL   H21934355   1.621   6.174   5.903 -0.2155 -0.2352  0.0086
   69MOL   H22034356   1.666   6.057   6.485 -1.7583 -1.3278 -1.2884
   69MOL   H22134357   1.698   5.895   6.450 -0.5972  0.1415  2.5367
   69MOL   H22234358   1.990   5.940   6.354 -3.0018 -0.9866  0.3331
   69MOL   H22334359   2.210   5.948   6.516 -0.3727 -4.4064  1.6146
   69MOL   H22434360   2.201   6.031   6.729  0.0566  1.2355 -0.1075
   69MOL   H22534361   1.987   6.100   6.840 -0.9273 -1.1418  0.7096
   69MOL   H22634362   1.772   6.071   6.710  1.6284  2.7054 -0.2158
   69MOL   C22734363   1.792   5.982   6.015 -0.6374  0.2075 -0.6415
   69MOL   C22834364   1.733   5.834   6.006  0.2584  0.4919  0.3822
   69MOL   C22934365   1.820   5.779   5.890  0.3264 -0.2828 -0.6583
   69MOL   C23034366   1.588   5.846   5.954  0.5835  0.4871  0.5174
   69MOL   O23134367   1.488   5.830   6.033  0.4530  0.1473  0.6568
   69MOL   O23234368   1.573   5.893   5.829  0.3275 -0.0858  0.1008
   69MOL   C23334369   1.448   5.906   5.768  0.7236  0.0191  0.1525
   69MOL   C23434370   1.433   5.812   5.651  0.0271  0.3515  0.8767
   69MOL   C23534371   1.341   5.848   5.555 -0.3131 -0.1717  0.3379
   69MOL   C23634372   1.312   5.758   5.449 -0.2363 -0.4638  0.5092
   69MOL   C23734373   1.368   5.631   5.444 -0.0347 -0.0391 -0.4730
   69MOL   C23834374   1.457   5.598   5.546 -0.0912 -0.1302 -0.0113
   69MOL   C23934375   1.495   5.685   5.652 -0.6408 -0.0294 -0.1526
   69MOL   H24034376   1.895   5.981   6.052 -0.9794  1.1569  0.3658
   69MOL   H24134377   1.812   6.022   5.916  0.3747 -0.3309 -0.6646
   69MOL   H24234378   1.793   5.683   5.847 -0.9181  0.0887 -0.7272
   69MOL   H24334379   1.918   5.774   5.938 -0.5467  1.1663  1.3722
   69MOL   H24434380   1.826   5.849   5.806 -1.3323  0.2243 -0.3777
   69MOL   H24534381   1.371   5.898   5.844  1.1321  2.1823  0.8157
   69MOL   H24634382   1.448   6.007   5.728 -0.5531  0.3322  0.9398
   69MOL   H24734383   1.271   5.930   5.556 -1.3453 -1.0227 -0.3437
   69MOL   H24834384   1.229   5.783   5.384 -0.6649 -0.6969  0.9667
   69MOL   H24934385   1.345   5.559   5.368  1.3378 -0.4346 -0.5305
   69MOL   H25034386   1.501   5.500   5.539 -0.0693 -0.0909 -0.4420
   69MOL   H25134387   1.563   5.645   5.726  0.5988 -0.6342 -1.6030
   69MOL   C25234388   1.752   5.757   6.142  0.0762  0.4106 -0.1931
   69MOL   C25334389   1.753   5.601   6.155  0.6592 -0.4737  0.2252
   69MOL   C25434390   1.695   5.571   6.297 -0.3384 -0.3484  0.4613
   69MOL   C25534391   1.893   5.534   6.143  0.7687  0.6703  0.6157
   69MOL   O25634392   1.950   5.488   6.243  0.0854 -0.1019  0.2399
   69MOL   O25734393   1.939   5.537   6.018  0.3055 -0.2212  0.1690
   69MOL   C25834394   2.074   5.490   5.989  0.2904  0.3911 -0.4057
   69MOL   C25934395   2.107   5.511   5.842  0.6565 -0.4552 -0.1572
   69MOL   C26034396   2.003   5.496   5.741 -0.0901 -0.7657  0.1038
   69MOL   C26134397   2.037   5.511   5.607  0.5182 -1.5415 -0.3423
   69MOL   C26234398   2.169   5.556   5.568  0.2910 -0.1781 -0.4487
   69MOL   C26334399   2.268   5.573   5.666  0.3456 -0.6421  0.5543
   69MOL   C26434400   2.239   5.538   5.802 -0.0990 -0.4225 -0.5935
   69MOL   H26534401   1.690   5.800   6.222 -1.0388 -0.5564 -0.5324
   69MOL   H26634402   1.855   5.785   6.166  0.1110  0.7359 -0.7258
   69MOL   H26734403   1.743   5.627   6.378 -1.4615 -0.0129  0.9100
   69MOL   H26834404   1.699   5.468   6.333  2.0996  0.2676  2.1243
   69MOL   H26934405   1.592   5.607   6.295  0.3515  1.6550 -1.1532
   69MOL   H27034406   2.150   5.543   6.047 -0.4021  0.8408  0.0996
   69MOL   H27134407   2.080   5.385   6.019 -0.8531  0.7852  1.3256
   69MOL   H27234408   1.901   5.462   5.755 -0.9272  0.3554 -2.9093
   69MOL   H27334409   1.960   5.505   5.531  1.7769 -0.1597 -1.7687
   69MOL   H27434410   2.190   5.587   5.466 -1.5315 -1.0573 -1.1187
   69MOL   H27534411   2.366   5.610   5.641  0.0333  0.2862  0.6819
   69MOL   H27634412   2.308   5.548   5.884  1.6899  0.2185 -2.1637
   69MOL   C27734413   1.658   5.532   6.053  0.2034 -0.1986  0.4734
   69MOL   C27834414   1.620   5.377   6.056 -0.2000  0.9215  0.2110
   69MOL   C27934415   1.725   5.276   6.105 -0.4990 -0.1941 -0.3098
   69MOL   C28034416   1.575   5.335   5.913  0.2055  0.0558  0.2834
   69MOL   O28134417   1.536   5.416   5.832 -0.4821  0.7624  0.2386
   69MOL   O28234418   1.609   5.210   5.880 -0.0816  0.1282  0.2598
   69MOL   C28334419   1.596   5.163   5.748 -0.0656  0.2562 -0.3758
   69MOL   C28434420   1.668   5.031   5.731  0.3622  0.2793 -0.1982
   69MOL   C28534421   1.757   5.010   5.622  0.0047  0.6010  0.7376
   69MOL   C28634422   1.831   4.889   5.610  0.3046  0.4459  0.1315
   69MOL   C28734423   1.819   4.789   5.713 -0.0553  0.9613  0.2763
   69MOL   C28834424   1.747   4.820   5.824  0.2874  0.1804 -0.3699
   69MOL   C28934425   1.677   4.937   5.837 -0.0715  0.6939  0.2652
   69MOL   H29034426   1.691   5.553   5.951  0.3761  2.4034  1.0360
   69MOL   H29134427   1.565   5.588   6.049 -0.0809 -0.7754 -1.5940
   69MOL   H29234428   1.698   5.171   6.097  3.1152 -1.0649 -2.1116
   69MOL   H29334429   1.748   5.281   6.211  1.6491 -0.2845 -0.7551
   69MOL   H29434430   1.815   5.286   6.044 -0.8429 -0.2622 -0.8295
   69MOL   H29534431   1.490   5.139   5.735  0.1463 -0.8231 -0.1430
   69MOL   H29634432   1.631   5.241   5.680  0.0996 -0.3645 -1.0096
   69MOL   H29734433   1.776   5.089   5.550 -2.2633 -0.4450 -1.0539
   69MOL   H29834434   1.896   4.876   5.525 -0.3032  0.6090 -0.3633
   69MOL   H29934435   1.863   4.691   5.707 -0.4295  0.7131  1.4059
   69MOL   H30034436   1.734   4.755   5.909 -2.4167  0.4854 -0.5145
   69MOL   H30134437   1.626   4.950   5.931 -0.9413  1.1658 -0.2678
   69MOL   C30234438   1.492   5.356   6.159 -0.5842  0.1202  0.1977
   69MOL   C30334439   1.383   5.244   6.167 -0.4102 -0.0068 -0.4293
   69MOL   C30434440   1.446   5.107   6.147  0.5588 -0.3297 -0.6095
   69MOL   C30534441   1.281   5.256   6.048  0.8727 -0.5290  0.0861
   69MOL   O30634442   1.287   5.354   5.975 -0.6935  0.2050  0.3065
   69MOL   O30734443   1.183   5.164   6.032  0.4930 -0.4076 -0.4141
   69MOL   C30834444   1.087   5.175   5.926  0.0018  1.1817  0.0733
   69MOL   C30934445   0.971   5.263   5.962 -0.4557 -0.8223  0.4757
   69MOL   C31034446   0.850   5.198   5.985  1.0789  0.2533  0.6411
   69MOL   C31134447   0.742   5.265   6.034 -0.3450 -0.3149  0.8295
   69MOL   C31234448   0.752   5.405   6.054 -0.4459  0.5969  0.4950
   69MOL   C31334449   0.876   5.474   6.030  0.3384 -0.0719 -1.1130
   69MOL   C31434450   0.985   5.401   5.986  0.0621 -0.0381 -0.5556
   69MOL   H31534451   1.450   5.455   6.173 -0.3505  0.3615 -0.8203
   69MOL   H31634452   1.539   5.349   6.258  0.0997  0.5465 -0.0975
   69MOL   H31734453   1.520   5.098   6.228 -1.1976  2.7867  1.4663
   69MOL   H31834454   1.489   5.094   6.048  1.9463 -0.1781 -0.0402
   69MOL   H31934455   1.382   5.025   6.177 -0.0196  0.6998  1.0485
   69MOL   H32034456   1.131   5.195   5.828  1.3105 -0.0194  0.3971
   69MOL   H32134457   1.049   5.073   5.925 -0.5228  1.3763  0.2989
   69MOL   H32234458   0.851   5.090   5.984  1.6773  0.2544  0.8825
   69MOL   H32334459   0.649   5.213   6.055 -0.5356 -0.4276 -0.2520
   69MOL   H32434460   0.664   5.463   6.079 -0.9059  0.9605 -1.8246
   69MOL   H32534461   0.900   5.578   6.042  0.4554  0.3035 -4.2402
   69MOL   H32634462   1.077   5.456   5.976 -1.2191  2.0884 -1.0188
   69MOL   C32734463   1.309   5.245   6.304 -0.0475 -0.5041  1.0436
   69MOL   C32834464   1.251   5.372   6.383 -0.5812 -0.2040  0.5158
   69MOL   C32934465   1.174   5.461   6.279  0.0051  0.0217  0.4017
   69MOL   C33034466   1.359   5.463   6.446 -0.0402  0.2774  0.4694
   69MOL   O33134467   1.475   5.426   6.470  0.5998  0.1260  0.1864
   69MOL   O33234468   1.322   5.585   6.475 -0.0861 -0.2745 -0.2223
   69MOL   C33334469   1.421   5.684   6.501 -0.0307 -0.3566  0.5825
   69MOL   C33434470   1.364   5.796   6.592 -0.6409  0.5306 -0.6674
   69MOL   C33534471   1.364   5.932   6.553 -0.1163  0.4301 -0.1215
   69MOL   C33634472   1.316   6.036   6.633  0.1383 -0.9696 -0.2309
   69MOL   C33734473   1.260   6.007   6.755 -0.0349 -0.2695  0.1988
   69MOL   C33834474   1.268   5.874   6.800 -0.6495 -0.3385 -0.4582
   69MOL   C33934475   1.316   5.764   6.725 -0.2797 -0.2781 -1.0408
   69MOL   H34034476   1.367   5.191   6.379  0.2372 -1.1950  0.3300
   69MOL   H34134477   1.219   5.184   6.293 -0.4705  0.0638  1.3142
   69MOL   H34234478   1.238   5.496   6.198  0.2648  1.2422  1.1124
   69MOL   H34334479   1.126   5.549   6.323 -0.3559  0.2813 -0.5013
   69MOL   H34434480   1.096   5.398   6.238 -1.2940  1.0910  1.1761
   69MOL   H34534481   1.509   5.633   6.540  0.2263 -0.1639  0.2588
   69MOL   H34634482   1.451   5.740   6.412 -2.1826 -0.2621 -0.1215
   69MOL   H34734483   1.396   5.956   6.452 -0.6472 -0.2815 -0.4602
   69MOL   H34834484   1.319   6.137   6.596  0.7413 -0.2697  1.6791
   69MOL   H34934485   1.214   6.073   6.828  0.6077 -2.4019  2.6204
   69MOL   H35034486   1.222   5.852   6.895 -2.0865  1.2402 -0.7656
   69MOL   H35134487   1.306   5.665   6.765  1.2168  0.2355  0.6541
   69MOL   C35234488   1.133   5.334   6.484  0.1994 -0.2756  0.0085
   69MOL   C35334489   1.152   5.252   6.619 -0.6743  0.0233  0.4796
   69MOL   C35434490   1.222   5.361   6.714 -0.4722  0.4396  0.3962
   69MOL   C35534491   1.226   5.119   6.600 -0.7256  0.7752 -0.5767
   69MOL   O35634492   1.171   5.018   6.547 -0.1446 -0.1366 -0.0137
   69MOL   O35734493   1.356   5.116   6.650 -0.0417 -0.2799  0.6626
   69MOL   C35834494   1.416   4.992   6.667  0.3817 -0.0300  0.3931
   69MOL   C35934495   1.568   5.011   6.695 -0.2731  0.5077 -0.2649
   69MOL   C36034496   1.642   4.906   6.759  0.1949  0.4222  0.1502
   69MOL   C36134497   1.780   4.920   6.780 -0.3978  0.1831 -0.0912
   69MOL   C36234498   1.842   5.040   6.739  0.6558  0.0138 -0.2880
   69MOL   C36334499   1.768   5.134   6.669  0.9236 -0.0210  0.4060
   69MOL   C36434500   1.631   5.128   6.643  0.1777 -0.1362  0.2298
   69MOL   H36534501   1.064   5.285   6.415  0.9827  0.7860 -1.5552
   69MOL   H36634502   1.074   5.420   6.517 -1.9030 -1.5350 -0.3653
   69MOL   H36734503   1.314   5.407   6.679 -0.3614 -0.4263 -0.4826
   69MOL   H36834504   1.244   5.321   6.813 -1.9034 -1.0983  0.1142
   69MOL   H36934505   1.145   5.435   6.732 -0.0216  0.8649  0.5885
   69MOL   H37034506   1.370   4.949   6.756  1.8505 -1.4258  0.4953
   69MOL   H37134507   1.393   4.931   6.580 -1.7960  0.6273  0.4992
   69MOL   H37234508   1.599   4.812   6.790  0.6031  0.6871  1.5569
   69MOL   H37334509   1.840   4.841   6.821  0.8037  0.8216 -0.6099
   69MOL   H37434510   1.942   5.070   6.769  0.8655 -0.1415 -0.8214
   69MOL   H37534511   1.825   5.215   6.626 -2.7336  1.0450 -2.6853
   69MOL   H37634512   1.582   5.207   6.589 -0.7451 -0.4170  0.6598
   69MOL   C37734513   1.000   5.215   6.667  0.3188  0.7101 -0.7925
   69MOL   C37834514   0.951   5.196   6.817  0.2314 -0.5057  0.6778
   69MOL   C37934515   0.928   5.335   6.880 -0.1555  0.1943  0.1792
   69MOL   C38034516   1.045   5.115   6.908 -0.1762 -0.6763 -0.5986
   69MOL   O38134517   1.146   5.057   6.876 -0.1069 -0.3752  0.0131
   69MOL   O38234518   1.005   5.103   7.034  0.1547 -0.3625  0.1478
   69MOL   C38334519   1.091   5.041   7.125  0.1523  0.7828 -0.2738
   69MOL   C38434520   1.021   5.019   7.259 -0.0529 -0.6744 -0.4578
   69MOL   C38534521   1.102   5.006   7.369  0.5713  0.5370 -0.4712
   69MOL   C38634522   1.049   4.992   7.496  0.1193  0.0216 -0.7412
   69MOL   C38734523   0.908   4.981   7.511  0.9701  0.9632 -0.1941
   69MOL   C38834524   0.826   4.989   7.394 -0.6651  0.0905  0.4883
   69MOL   C38934525   0.879   5.015   7.267 -0.3022 -0.0965 -0.0632
   69MOL   H39034526   0.973   5.123   6.615  0.7479 -0.3168  0.7740
   69MOL   H39134527   0.936   5.288   6.618  0.5866  0.1091 -2.0776
   69MOL   H39234528   0.884   5.416   6.822  1.5536  2.7558  2.3692
   69MOL   H39334529   1.008   5.387   6.932  0.6945  0.1017 -1.0127
   69MOL   H39434530   0.862   5.317   6.965 -0.6495  3.2054  0.4891
   69MOL   H39534531   1.100   4.943   7.079 -0.4089 -0.4753  2.2515
   69MOL   H39634532   1.179   5.103   7.140  0.1367  0.4450  1.2037
   69MOL   H39734533   1.210   5.012   7.367  0.5809  0.3583 -0.5160
   69MOL   H39834534   1.119   4.982   7.578 -1.7080  2.0018  1.1554
   69MOL   H39934535   0.866   4.981   7.610  1.5125  0.9704  0.0403
   69MOL   H40034536   0.720   4.988   7.412 -0.5943  0.1659  0.9224
   69MOL   H40134537   0.818   5.030   7.180 -1.4540 -2.1002  0.3622
   69MOL   C40234538   0.811   5.118   6.813  0.0813  0.1403 -0.2446
   69MOL   C40334539   0.780   4.974   6.748 -0.5648  0.0411  0.8936
   69MOL   C40434540   0.880   4.862   6.801 -0.2952  0.0841  0.2996
   69MOL   C40534541   0.772   4.991   6.588  0.5960  0.7053 -0.2545
   69MOL   O40634542   0.818   4.898   6.520  0.2909 -0.8759 -0.1454
   69MOL   O40734543   0.704   5.095   6.547 -0.5918  0.2453 -0.2607
   69MOL   C40834544   0.704   5.129   6.404  0.0179  0.0442  0.4639
   69MOL   C40934545   0.608   5.244   6.369  0.4631  0.8181  0.1079
   69MOL   C41034546   0.483   5.222   6.304 -0.3899  0.1629 -0.3067
   69MOL   C41134547   0.411   5.329   6.253 -0.7309  0.0212 -0.3483
   69MOL   C41234548   0.460   5.462   6.269  0.0421 -0.3828 -0.0528
   69MOL   C41334549   0.580   5.487   6.335 -0.6248  0.3005 -0.1001
   69MOL   C41434550   0.661   5.374   6.378 -0.0608 -0.2573  0.4310
   69MOL   H41534551   0.745   5.192   6.767 -1.2710 -1.6584 -1.2722
   69MOL   H41634552   0.767   5.117   6.913  2.3577 -2.6262  0.8053
   69MOL   H41734553   0.857   4.761   6.767  2.0877 -0.5361  0.4209
   69MOL   H41834554   0.894   4.860   6.909  1.2889  0.0974  0.1207
   69MOL   H41934555   0.980   4.880   6.760 -0.5538 -0.2905 -0.5158
   69MOL   H42034556   0.806   5.160   6.381  0.6834 -2.1754  0.3087
   69MOL   H42134557   0.672   5.048   6.339 -1.0627 -0.6559  1.8385
   69MOL   H42234558   0.447   5.123   6.281  0.9378 -0.6061  0.8604
   69MOL   H42334559   0.325   5.312   6.189 -0.2298  2.0250 -1.5755
   69MOL   H42434560   0.406   5.550   6.237 -1.1395 -0.2781  2.1083
   69MOL   H42534561   0.615   5.589   6.334  0.6123 -0.1117 -0.0226
   69MOL   H42634562   0.758   5.390   6.422  1.0190  0.1847 -2.0228
   69MOL   C42734563   0.634   4.941   6.799  0.7014  0.1941 -0.1364
   69MOL   C42834564   0.541   4.818   6.753 -1.1419 -0.0390 -0.3987
   69MOL   C42934565   0.413   4.835   6.842  0.0984 -0.2948 -0.1775
   69MOL   C43034566   0.604   4.679   6.792  0.5004  0.2087  0.1401
   69MOL   O43134567   0.651   4.604   6.710 -0.2378  0.2532 -0.2038
   69MOL   O43234568   0.611   4.665   6.923 -0.1755  0.3574 -0.1814
   69MOL   C43334569   0.640   4.541   6.991  0.1318  0.4775 -0.3939
   69MOL   C43434570   0.788   4.538   7.018 -0.7075  1.0391 -0.0117
   69MOL   C43534571   0.844   4.642   7.095 -0.5358 -0.9162 -0.4318
   69MOL   C43634572   0.976   4.642   7.145 -0.6122  1.0821  0.0329
   69MOL   C43734573   1.060   4.530   7.113 -0.2339  0.1411 -0.1072
   69MOL   C43834574   1.001   4.421   7.042 -0.3183  0.6445  0.0273
   69MOL   C43934575   0.872   4.425   6.994 -1.2028 -0.3533 -0.7794
   69MOL   H44034576   0.566   5.026   6.787 -0.6609 -0.8740 -0.0705
   69MOL   H44134577   0.640   4.933   6.907 -1.3123  1.4632  0.1016
   69MOL   H44234578   0.440   4.839   6.947  0.3492 -2.6774 -0.1139
   69MOL   H44334579   0.342   4.753   6.830 -1.5605  1.3898 -2.1231
   69MOL   H44434580   0.367   4.930   6.815 -1.4702 -1.2521 -0.9190
   69MOL   H44534581   0.590   4.532   7.088  1.5346 -0.7284  0.2323
   69MOL   H44634582   0.599   4.458   6.933  0.7954 -0.6925  0.7714
   69MOL   H44734583   0.788   4.728   7.127  4.0661  2.0506  0.1767
   69MOL   H44834584   1.014   4.726   7.202  1.5223 -0.3977  0.8822
   69MOL   H44934585   1.162   4.518   7.146  0.4416 -0.2832 -2.3030
   69MOL   H45034586   1.059   4.338   7.005  0.2131  1.1998 -0.4107
   69MOL   H45134587   0.829   4.343   6.939 -0.4624 -1.1330 -0.2013
   69MOL   C45234588   0.509   4.814   6.602  0.3452 -0.8811 -0.1888
   69MOL   C45334589   0.377   4.760   6.540  0.2533  0.3305  0.0433
   69MOL   C45434590   0.409   4.767   6.390  0.1283 -0.0185  0.0300
   69MOL   C45534591   0.254   4.859   6.562 -0.3770 -0.5562  0.1848
   69MOL   O45634592   0.150   4.823   6.618  0.6980  0.4563  1.0351
   69MOL   O45734593   0.276   4.985   6.529  0.6000  0.1087 -0.5153
   69MOL   C45834594   0.185   5.091   6.562  0.2172 -0.6484 -0.2808
   69MOL   C45934595   0.243   5.170   6.681  0.4151 -0.5750 -0.5596
   69MOL   C46034596   0.374   5.211   6.700  0.0052 -0.4649 -0.5234
   69MOL   C46134597   0.415   5.282   6.818 -0.2984 -0.2522  0.6540
   69MOL   C46234598   0.323   5.308   6.920  0.1232  0.8205 -0.2798
   69MOL   C46334599   0.187   5.262   6.908  0.4427 -0.3490 -0.4711
   69MOL   C46434600   0.150   5.196   6.788 -0.0766  0.4000  0.0708
   69MOL   H46534601   0.587   4.759   6.550  2.5512  2.0039 -0.0581
   69MOL   H46634602   0.513   4.921   6.586 -0.6706 -0.7447  0.4189
   69MOL   H46734603   0.315   4.755   6.336  1.7089  0.1955 -2.8089
   69MOL   H46834604   0.475   4.689   6.353 -1.1070 -0.5424 -1.0953
   69MOL   H46934605   0.448   4.863   6.356 -0.4137  0.6984  1.3728
   69MOL   H47034606   0.152   5.165   6.489  0.5780  1.3019  1.4965
   69MOL   H47134607   0.092   5.039   6.580  0.7654 -2.2324 -1.8873
   69MOL   H47234608   0.452   5.194   6.627 -0.0783  1.9792 -1.2344
   69MOL   H47334609   0.519   5.306   6.829 -0.3143 -0.0926  0.4749
   69MOL   H47434610   0.359   5.359   7.007 -0.5642  0.8463 -0.0050
   69MOL   H47534611   0.118   5.266   6.991 -1.0579 -0.8723 -1.6677
   69MOL   H47634612   0.053   5.152   6.776 -0.1568  0.6853 -0.3288
   69MOL   C47734613   0.352   4.613   6.575 -0.3380 -1.0917 -0.3447
   69MOL   C47834614   0.239   4.537   6.496  0.4273 -0.4832  0.1859
   69MOL   C47934615   0.187   4.418   6.577  0.6048  0.5147  0.1476
   69MOL   C48034616   0.278   4.487   6.358 -0.3408 -0.3016 -0.4870
   69MOL   O48134617   0.217   4.529   6.264 -0.4338  0.1319 -1.0306
   69MOL   O48234618   0.389   4.407   6.354  0.1965  0.2820  0.0729
   69MOL   C48334619   0.453   4.376   6.233 -0.2794 -0.1416 -0.8342
   69MOL   C48434620   0.590   4.423   6.242  0.0450  0.5438  0.1152
   69MOL   C48534621   0.653   4.463   6.130 -0.7051 -0.8556  0.4100
   69MOL   C48634622   0.779   4.528   6.137 -0.7244  0.0972 -0.7475
   69MOL   C48734623   0.837   4.555   6.259 -0.3738  0.4715 -0.3840
   69MOL   C48834624   0.791   4.486   6.375 -0.0259 -0.1633 -0.5870
   69MOL   C48934625   0.661   4.422   6.370  0.0139  0.1354  0.2899
   69MOL   H49034626   0.322   4.605   6.680 -0.8451  0.6332 -0.3462
   69MOL   H49134627   0.443   4.557   6.557  1.1404  1.7077 -1.9070
   69MOL   H49234628   0.269   4.356   6.614 -0.0819 -0.8576 -0.6189
   69MOL   H49334629   0.108   4.359   6.530 -0.6445  0.7352  1.9099
   69MOL   H49434630   0.142   4.467   6.664  0.7279 -2.1890  1.7929
   69MOL   H49534631   0.442   4.269   6.214  1.2214 -0.5733  0.6050
   69MOL   H49634632   0.404   4.437   6.157 -1.3300  0.7975  0.5619
   69MOL   H49734633   0.596   4.457   6.039 -1.6169 -0.2940  0.9454
   69MOL   H49834634   0.822   4.572   6.048  0.1095  0.0752 -0.3626
   69MOL   H49934635   0.933   4.604   6.263  0.2620 -0.7811  0.0667
   69MOL   H50034636   0.851   4.486   6.465  0.7582  0.5714 -1.1063
   69MOL   H50134637   0.629   4.364   6.455  2.2484 -1.0667  0.3448
   69MOL   H50234638   0.159   4.608   6.482  1.3960  0.8970  1.4390
   70MOL     C134639   0.036   5.992   3.569 -0.4286  0.3380 -0.4440
   70MOL     C234640   0.113   5.948   3.698 -0.3162 -0.3035  0.4063
   70MOL     C334641   0.069   6.044   3.814 -0.2133 -0.2359 -0.7180
   70MOL     C434642   0.269   5.967   3.673  0.2755  0.4029  0.3983
   70MOL     O534643   0.313   6.038   3.581  0.0853  0.4463  0.1737
   70MOL     O634644   0.344   5.912   3.767  0.4214  0.3435 -0.1225
   70MOL     C734645   0.484   5.906   3.749 -0.4826  0.2385 -0.2126
   70MOL     C834646   0.550   5.820   3.854  0.5504 -0.4788 -0.5256
   70MOL     C934647   0.645   5.725   3.814  0.1732  0.2635  0.4851
   70MOL    C1034648   0.712   5.635   3.907 -0.2054  0.1284  0.9003
   70MOL    C1134649   0.670   5.645   4.042  0.2612  0.2701  0.7067
   70MOL    C1234650   0.573   5.745   4.077 -0.7723  0.8108  0.6404
   70MOL    C1334651   0.515   5.832   3.986 -0.4470  0.1992  0.6315
   70MOL    H1434652   0.064   6.096   3.554  1.6528 -0.0219  0.7660
   70MOL    H1534653   0.083   5.944   3.483  0.4600 -1.9266  1.2408
   70MOL    H1634654   0.104   5.993   3.904  0.6710 -3.3356 -2.7263
   70MOL    H1734655   7.972   6.074   3.813  0.4941  2.3664 -1.8640
   70MOL    H1834656   0.125   6.138   3.817  0.6292 -0.7596  0.2696
   70MOL    H1934657   0.512   5.883   3.646  0.0490  1.7805 -0.4255
   70MOL    H2034658   0.522   6.007   3.766  1.5302  0.4260 -5.0147
   70MOL    H2134659   0.686   5.710   3.715 -0.8663  1.9579 -0.2212
   70MOL    H2234660   0.773   5.557   3.864 -0.5722 -0.0633  0.7193
   70MOL    H2334661   0.699   5.574   4.118 -1.8363 -1.0551  0.2825
   70MOL    H2434662   0.539   5.755   4.179  1.1113  1.2296  1.2421
   70MOL    H2534663   0.453   5.914   4.020 -1.8177 -0.3754 -0.4532
   70MOL    H2634664   7.935   5.984   3.583 -0.3540 -0.8690 -0.4863
   70MOL    C2734665   0.089   5.803   3.750  0.1163  0.1625  0.1147
   70MOL    C2834666   0.078   5.683   3.649 -0.1062 -0.6493  0.4099
   70MOL    C2934667   0.201   5.679   3.552  0.4895  0.1876 -0.3201
   70MOL    C3034668   7.951   5.702   3.568 -0.9320  0.7877  0.1518
   70MOL    O3134669   7.962   5.689   3.448 -0.5035 -0.1269  0.2276
   70MOL    O3234670   7.844   5.724   3.643 -0.2715 -0.4448 -0.3903
   70MOL    C3334671   7.725   5.759   3.574 -0.3683  0.0591 -0.1445
   70MOL    C3434672   7.619   5.836   3.657  0.7904  0.0663 -0.5436
   70MOL    C3534673   7.490   5.784   3.666  1.5196 -0.0964  0.2064
   70MOL    C3634674   7.382   5.855   3.730  0.4214  1.0801 -0.1390
   70MOL    C3734675   7.412   5.975   3.793 -0.2008  0.0594  0.4603
   70MOL    C3834676   7.537   6.040   3.767  0.3605  0.3239  0.9638
   70MOL    C3934677   7.645   5.966   3.707  0.0806 -0.5219 -0.2818
   70MOL    H4034678   8.000   5.810   3.802  0.0801  0.4134  0.0103
   70MOL    H4134679   0.159   5.787   3.833  0.1335 -2.5818 -0.3878
   70MOL    H4234680   0.186   5.602   3.476  0.0545 -2.5003  2.3540
   70MOL    H4334681   0.292   5.645   3.602 -1.5721 -0.5485  3.1604
   70MOL    H4434682   0.220   5.777   3.509 -0.6063  0.3177 -0.5188
   70MOL    H4534683   7.767   5.810   3.487 -0.7882 -0.4335 -0.6410
   70MOL    H4634684   7.679   5.665   3.543 -0.0850 -0.9002  2.2920
   70MOL    H4734685   7.470   5.694   3.609  1.2182  0.9973 -1.4616
   70MOL    H4834686   7.278   5.825   3.723 -0.6543  4.1484  1.6627
   70MOL    H4934687   7.333   6.026   3.847 -0.1382  0.2186  0.4006
   70MOL    H5034688   7.561   6.140   3.798  1.5510  0.0915  0.8311
   70MOL    H5134689   7.737   6.019   3.687  0.3265 -0.6158  0.5987
   70MOL    C5234690   0.064   5.547   3.726  0.9662  0.2701  0.4671
   70MOL    C5334691   0.185   5.460   3.775 -0.3494  0.0108  0.1219
   70MOL    C5434692   0.275   5.549   3.868 -0.3523 -0.1970 -0.5604
   70MOL    C5534693   0.260   5.393   3.655  0.0490 -0.8348  0.1364
   70MOL    O5634694   0.196   5.331   3.570 -0.0164  0.5513  0.0948
   70MOL    O5734695   0.390   5.395   3.663 -0.1802 -0.1935 -0.3800
   70MOL    C5834696   0.463   5.343   3.550 -0.3242  0.5600  0.4466
   70MOL    C5934697   0.518   5.456   3.470 -0.0228 -0.7392 -0.4015
   70MOL    C6034698   0.473   5.480   3.337  0.9744  0.3987  0.1532
   70MOL    C6134699   0.532   5.582   3.262 -0.0004  0.1058 -0.2009
   70MOL    C6234700   0.621   5.677   3.317  1.1036  0.6689 -0.1648
   70MOL    C6334701   0.675   5.640   3.449 -0.7406 -0.1838  0.3695
   70MOL    C6434702   0.620   5.537   3.525 -1.4475  0.3965  0.1508
   70MOL    H6534703   8.003   5.487   3.665  1.3675  1.7132 -1.4661
   70MOL    H6634704   8.005   5.562   3.811  1.9679 -0.2560  1.3571
   70MOL    H6734705   0.233   5.576   3.965  0.3134 -0.4483 -0.2040
   70MOL    H6834706   0.315   5.641   3.824 -0.8218  1.4351  2.3116
   70MOL    H6934707   0.375   5.512   3.889 -0.0576  0.7534 -0.2465
   70MOL    H7034708   0.558   5.302   3.585 -0.9719 -0.0112  1.5536
   70MOL    H7134709   0.406   5.272   3.490  0.1071 -0.7053  1.5129
   70MOL    H7234710   0.391   5.420   3.301  1.2636 -1.3627  2.3309
   70MOL    H7334711   0.487   5.598   3.165 -1.0669 -2.0241 -0.0915
   70MOL    H7434712   0.658   5.763   3.262 -0.7742  0.6875 -1.4365
   70MOL    H7534713   0.749   5.712   3.484 -0.3343 -0.6688  0.5102
   70MOL    H7634714   0.652   5.514   3.625 -0.3694 -2.4351 -0.8023
   70MOL    C7734715   0.121   5.340   3.851 -0.7487  0.6015  0.0705
   70MOL    C7834716   0.203   5.213   3.913 -0.7234  1.0543  0.1177
   70MOL    C7934717   0.340   5.249   3.972  0.0143  0.3276  0.5586
   70MOL    C8034718   0.231   5.112   3.792 -0.0222  0.1687  0.1621
   70MOL    O8134719   0.345   5.080   3.748  0.0279  0.3362 -0.0940
   70MOL    O8234720   0.119   5.053   3.748  0.0591  0.2887 -0.0651
   70MOL    C8334721   0.128   4.970   3.634  0.5388  0.0463  0.0915
   70MOL    C8434722   0.001   4.918   3.570 -0.9166 -0.2420 -0.1627
   70MOL    C8534723   7.901   5.004   3.556  0.6352 -0.0481  0.0535
   70MOL    C8634724   7.780   4.959   3.498 -0.4651 -0.6431 -0.0917
   70MOL    C8734725   7.769   4.833   3.437 -0.4585 -0.5027 -0.2851
   70MOL    C8834726   7.887   4.757   3.433  0.0207 -0.0660 -0.3125
   70MOL    C8934727   8.004   4.800   3.496 -0.0544  1.5751  0.0652
   70MOL    H9034728   0.043   5.303   3.786  0.2672 -1.5838  0.0512
   70MOL    H9134729   0.068   5.389   3.933  0.4752  0.0428  1.2288
   70MOL    H9234730   0.375   5.164   4.030 -1.7952 -1.3906 -0.8156
   70MOL    H9334731   0.330   5.332   4.043  2.9733 -0.6799  2.2000
   70MOL    H9434732   0.404   5.281   3.890 -1.0687  0.7259 -0.1462
   70MOL    H9534733   0.177   5.021   3.551 -2.7121  0.3694 -1.6942
   70MOL    H9634734   0.194   4.885   3.652  1.6907  0.7920 -0.5795
   70MOL    H9734735   7.895   5.103   3.598 -0.5903 -1.3249  3.0490
   70MOL    H9834736   7.696   5.027   3.510  0.8812  0.7911  1.4886
   70MOL    H9934737   7.684   4.799   3.380 -0.8710 -1.0229  0.6349
   70MOL   H10034738   7.883   4.666   3.375  0.6277  0.3044 -0.9366
   70MOL   H10134739   0.085   4.738   3.492 -1.7989 -0.9023 -1.2700
   70MOL   C10234740   0.107   5.154   4.024 -0.1989  0.2330  0.0166
   70MOL   C10334741   0.143   5.036   4.127 -0.1005  0.0249 -0.9043
   70MOL   C10434742   0.221   4.919   4.057  0.5393 -0.3323  0.3928
   70MOL   C10534743   0.009   4.969   4.170  0.3303 -0.0867 -0.0469
   70MOL   O10634744   7.973   4.870   4.121  0.2130  0.3050  0.1396
   70MOL   O10734745   7.946   5.035   4.255 -0.6756  0.3998  0.4484
   70MOL   C10834746   7.822   4.980   4.314 -0.3236  0.1621 -0.2301
   70MOL   C10934747   7.726   5.086   4.358 -0.1758 -0.0086 -0.5989
   70MOL   C11034748   7.721   5.212   4.302  0.2776 -0.3113  0.2765
   70MOL   C11134749   7.641   5.316   4.354 -0.6917 -0.2388 -0.2015
   70MOL   C11234750   7.558   5.285   4.464  0.2444  0.5643 -0.1720
   70MOL   C11334751   7.555   5.154   4.525 -0.6059 -0.1965  0.6208
   70MOL   C11434752   7.643   5.059   4.466  0.2710  0.2919 -0.7134
   70MOL   H11534753   0.009   5.135   3.980  1.0511 -2.6162 -1.7011
   70MOL   H11634754   0.077   5.232   4.094  0.5855  0.2384  0.3506
   70MOL   H11734755   0.326   4.945   4.044  0.4285 -0.0103  0.1323
   70MOL   H11834756   0.175   4.890   3.963  1.8527 -0.2921 -0.2697
   70MOL   H11934757   0.213   4.826   4.114 -2.2137  0.7090  1.7790
   70MOL   H12034758   7.760   4.919   4.247 -2.2391  0.3375  1.3414
   70MOL   H12134759   7.846   4.914   4.397 -0.1015  0.2117 -0.2568
   70MOL   H12234760   7.786   5.234   4.218  1.8741 -1.3897  1.2208
   70MOL   H12334761   7.641   5.420   4.323  0.3295  0.5867  2.4400
   70MOL   H12434762   7.496   5.363   4.505 -0.4169 -0.3555  0.6078
   70MOL   H12534763   7.497   5.122   4.611  0.4373  3.0630  2.6350
   70MOL   H12634764   7.654   4.961   4.510 -1.0028  0.7582  0.6883
   70MOL   C12734765   0.222   5.090   4.256 -0.7658  0.6618  0.3296
   70MOL   C12834766   0.305   5.002   4.360  0.6201 -0.3317  0.2820
   70MOL   C12934767   0.438   4.950   4.296 -0.0643 -0.3884  0.9292
   70MOL   C13034768   0.236   4.876   4.423 -0.0626  0.5573 -0.4412
   70MOL   O13134769   0.125   4.829   4.396 -0.0231  0.0543  0.0288
   70MOL   O13234770   0.332   4.815   4.496 -0.3315 -0.4325 -0.7040
   70MOL   C13334771   0.303   4.681   4.526 -0.1069  0.0413  0.1202
   70MOL   C13434772   0.371   4.632   4.655  0.2802 -0.0693  0.0321
   70MOL   C13534773   0.404   4.496   4.672 -0.1427 -0.1760  0.2140
   70MOL   C13634774   0.451   4.448   4.798 -0.1459  0.5067 -0.1687
   70MOL   C13734775   0.461   4.531   4.908 -0.4736 -0.4753  0.4942
   70MOL   C13834776   0.444   4.667   4.894 -0.4458 -0.4010 -0.2233
   70MOL   C13934777   0.393   4.717   4.768 -0.2742 -0.5305 -0.1473
   70MOL   H14034778   0.158   5.159   4.311  0.2062  2.7914 -1.1237
   70MOL   H14134779   0.288   5.171   4.223 -1.7262  0.7448 -1.4355
   70MOL   H14234780   0.421   4.859   4.237  1.8748 -0.3300  0.2476
   70MOL   H14334781   0.508   4.918   4.373  0.0778  0.2337  1.0556
   70MOL   H14434782   0.484   5.028   4.236  0.3544 -1.7104 -0.5182
   70MOL   H14534783   0.198   4.664   4.549  0.0684 -1.2424  0.0313
   70MOL   H14634784   0.310   4.608   4.446 -0.5935  0.4318 -0.2801
   70MOL   H14734785   0.376   4.428   4.593 -0.9105  0.8146 -0.3684
   70MOL   H14834786   0.460   4.342   4.814  0.1791  0.1697 -2.3972
   70MOL   H14934787   0.497   4.486   5.000 -1.7251 -2.0049  0.2631
   70MOL   H15034788   0.465   4.739   4.971 -2.1105  0.7717 -0.8466
   70MOL   H15134789   0.369   4.819   4.744  0.2519 -0.1614  0.8567
   70MOL   C15234790   0.355   5.095   4.481 -0.0760  0.3934 -0.4410
   70MOL   C15334791   0.264   5.186   4.567 -0.2247 -0.8689 -0.2680
   70MOL   C15434792   0.118   5.120   4.586  0.1278 -0.0342 -0.4916
   70MOL   C15534793   0.250   5.322   4.490  0.6266  0.0639  0.0589
   70MOL   O15634794   0.141   5.373   4.452 -0.0546  0.4012 -0.1906
   70MOL   O15734795   0.373   5.381   4.464  0.1776 -0.3323 -0.1298
   70MOL   C15834796   0.384   5.511   4.414  0.2012 -0.4403 -0.0833
   70MOL   C15934797   0.534   5.545   4.414 -0.1345 -0.4308  0.2017
   70MOL   C16034798   0.586   5.676   4.415  0.2138  0.2438 -0.1162
   70MOL   C16134799   0.717   5.707   4.404 -0.9059 -0.5733  0.2579
   70MOL   C16234800   0.816   5.605   4.419  0.0891  0.0653  0.3775
   70MOL   C16334801   0.769   5.468   4.423 -0.1286 -0.1833 -0.3294
   70MOL   C16434802   0.628   5.439   4.419 -0.0337 -0.2640  0.3246
   70MOL   H16534803   0.439   5.154   4.445  0.7292 -1.0834 -1.0234
   70MOL   H16634804   0.412   5.030   4.547  0.2696 -0.2883 -1.4028
   70MOL   H16734805   0.048   5.192   4.629 -0.5250 -1.1480  0.3246
   70MOL   H16834806   0.136   5.031   4.647  0.1350  0.7395  0.6682
   70MOL   H16934807   0.075   5.088   4.492 -0.2821  1.0922 -0.6948
   70MOL   H17034808   0.355   5.536   4.312  0.5283 -1.7510 -0.5087
   70MOL   H17134809   0.332   5.579   4.481  1.7394  0.4330  0.2664
   70MOL   H17234810   0.514   5.757   4.413  0.3879  0.3926 -0.5595
   70MOL   H17334811   0.746   5.811   4.411  2.9454 -1.5547  0.0041
   70MOL   H17434812   0.922   5.627   4.420  0.0339  0.5151 -1.5734
   70MOL   H17534813   0.834   5.383   4.439 -0.8373 -0.8025 -0.7333
   70MOL   H17634814   0.601   5.334   4.413  1.2884 -0.6620  1.1702
   70MOL   C17734815   0.344   5.214   4.706 -0.1813 -0.0691 -0.7737
   70MOL   C17834816   0.291   5.328   4.811  0.3371  0.2681 -0.1708
   70MOL   C17934817   0.141   5.368   4.814  1.0991 -0.2432  0.3973
   70MOL   C18034818   0.364   5.461   4.784 -0.2037  0.3693 -0.2970
   70MOL   O18134819   0.313   5.569   4.751  0.2994  0.0334  0.1101
   70MOL   O18234820   0.494   5.442   4.788 -0.1756 -0.3529  0.0374
   70MOL   C18334821   0.585   5.546   4.754  1.4188  0.2322 -0.1422
   70MOL   C18434822   0.685   5.570   4.864  0.2675  0.0597  0.6308
   70MOL   C18534823   0.644   5.578   4.997  0.0312 -0.0661  0.2675
   70MOL   C18634824   0.743   5.583   5.097  0.6419  0.5167 -0.0047
   70MOL   C18734825   0.875   5.615   5.067 -0.6672 -1.0769  0.5042
   70MOL   C18834826   0.911   5.624   4.931  0.1164 -0.6143  0.6025
   70MOL   C18934827   0.820   5.589   4.829 -0.4166 -0.6296  0.1769
   70MOL   H19034828   0.442   5.244   4.671 -0.5026 -0.9390 -2.4453
   70MOL   H19134829   0.365   5.121   4.759  1.6139  0.6666 -0.1735
   70MOL   H19234830   0.105   5.429   4.731  0.3608  0.5707  1.3058
   70MOL   H19334831   0.131   5.441   4.894 -0.5217  0.5178 -0.4772
   70MOL   H19434832   0.080   5.278   4.820  1.9173 -0.8244 -0.0422
   70MOL   H19534833   0.628   5.538   4.655  1.2914 -1.3075 -0.0945
   70MOL   H19634834   0.524   5.636   4.749  0.6030 -0.2030  1.3649
   70MOL   H19734835   0.540   5.556   5.021  0.2683 -0.8849  0.5818
   70MOL   H19834836   0.707   5.572   5.198 -1.0376 -0.5468 -0.6874
   70MOL   H19934837   0.952   5.636   5.140 -0.4830 -3.0474  0.8879
   70MOL   H20034838   1.012   5.646   4.900 -0.3395 -0.4798 -0.7909
   70MOL   H20134839   0.861   5.585   4.729  1.7058 -1.8294  1.0597
   70MOL   C20234840   0.325   5.281   4.959 -0.7311  0.1582 -0.0080
   70MOL   C20334841   0.249   5.182   5.051 -0.3196 -0.2277  0.0014
   70MOL   C20434842   0.210   5.063   4.963 -0.2484  1.1981  0.6111
   70MOL   C20534843   0.116   5.246   5.103  0.0470  0.4531  0.6410
   70MOL   O20634844   0.013   5.180   5.094  0.0744 -0.0785  0.1302
   70MOL   O20734845   0.126   5.364   5.156  0.4481 -0.3304 -0.1975
   70MOL   C20834846   0.014   5.450   5.155  0.3036 -0.2511  0.6502
   70MOL   C20934847   0.069   5.594   5.154 -0.2287 -0.1171 -0.2008
   70MOL   C21034848   7.986   5.692   5.110  0.0509  0.4069 -0.5049
   70MOL   C21134849   0.012   5.830   5.097  0.4349  0.2744 -0.2230
   70MOL   C21234850   0.147   5.866   5.123  0.4775  0.0154 -0.1550
   70MOL   C21334851   0.244   5.765   5.156  0.1762  0.2905  0.0369
   70MOL   C21434852   0.206   5.629   5.172  0.6565  0.0454  0.1936
   70MOL   H21534853   0.336   5.374   5.015  0.7154  0.3744 -0.6068
   70MOL   H21634854   0.427   5.241   4.957 -0.2773  1.3272 -1.3560
   70MOL   H21734855   0.296   5.022   4.910  0.7346  2.5726  1.0971
   70MOL   H21834856   0.129   5.075   4.892  0.0258  1.7707  0.3952
   70MOL   H21934857   0.170   4.987   5.030 -0.2145  0.9349  0.3295
   70MOL   H22034858   7.957   5.430   5.070  2.5244  0.2594 -1.1823
   70MOL   H22134859   7.960   5.451   5.246  0.3622 -1.2802  0.7059
   70MOL   H22234860   7.884   5.658   5.097  0.4442 -1.6757  1.5149
   70MOL   H22334861   7.940   5.899   5.072 -0.4072  0.2682  2.3140
   70MOL   H22434862   0.179   5.969   5.126 -0.5566  0.3563 -0.3474
   70MOL   H22534863   0.343   5.799   5.184  0.0497  0.0182  0.8034
   70MOL   H22634864   0.282   5.559   5.204  0.3726 -0.0319  0.7114
   70MOL   C22734865   0.345   5.135   5.162  0.0956 -0.1102  0.5077
   70MOL   C22834866   0.304   5.077   5.307  0.0083 -0.0051 -0.3984
   70MOL   C22934867   0.190   4.977   5.291 -0.4854 -0.7275 -0.1243
   70MOL   C23034868   0.260   5.190   5.405 -0.7194  1.0527 -0.1186
   70MOL   O23134869   0.277   5.306   5.378  0.4300 -0.5591  0.5749
   70MOL   O23234870   0.195   5.147   5.513  0.6682  0.2478 -0.2351
   70MOL   C23334871   0.158   5.238   5.612 -0.3489  0.0298 -0.8370
   70MOL   C23434872   0.068   5.178   5.721  0.6145 -0.3535 -0.1344
   70MOL   C23534873   0.102   5.060   5.782  0.5869  0.6276 -0.0221
   70MOL   C23634874   0.018   5.006   5.880  0.0096 -0.2733 -0.3642
   70MOL   C23734875   7.909   5.073   5.924 -0.0282  0.3176 -0.2935
   70MOL   C23834876   7.872   5.187   5.850 -0.6070  0.4892 -0.1724
   70MOL   C23934877   7.962   5.246   5.760  0.1858 -0.0921  0.3436
   70MOL   H24034878   0.397   5.229   5.181 -0.5573  0.6304 -1.2623
   70MOL   H24134879   0.421   5.075   5.113  0.8852  0.2239  1.2996
   70MOL   H24234880   0.216   4.899   5.218 -3.3299 -1.2055 -0.6608
   70MOL   H24334881   0.096   5.023   5.263 -0.2461  0.9508  1.7623
   70MOL   H24434882   0.163   4.921   5.380  0.2865 -0.4374  0.3033
   70MOL   H24534883   0.246   5.266   5.670 -2.1420 -0.8691  2.4396
   70MOL   H24634884   0.118   5.329   5.567  0.4928  0.9434  0.2135
   70MOL   H24734885   0.189   5.011   5.741  0.6359 -0.6237  1.5085
   70MOL   H24834886   0.053   4.918   5.933  1.5458  0.9647  0.7185
   70MOL   H24934887   7.842   5.041   6.002  0.8837  2.4218  1.4032
   70MOL   H25034888   7.785   5.249   5.864  0.7080  2.2303  0.4676
   70MOL   H25134889   7.942   5.342   5.713  0.2739 -0.2907 -0.1064
   70MOL   C25234890   0.435   5.000   5.362  0.4821 -0.2028 -0.2335
   70MOL   C25334891   0.564   5.064   5.422 -0.1361  0.0697 -0.3797
   70MOL   C25434892   0.533   5.132   5.562 -1.1059  0.3213 -0.4335
   70MOL   C25534893   0.629   5.168   5.323  0.4811  0.4856  0.5195
   70MOL   O25634894   0.658   5.282   5.360  0.0956 -0.1491  0.9692
   70MOL   O25734895   0.644   5.121   5.204 -0.0343 -0.2636  0.1592
   70MOL   C25834896   0.725   5.193   5.111  0.5144  1.2049 -0.6964
   70MOL   C25934897   0.708   5.144   4.961  0.8054 -0.0607  0.2132
   70MOL   C26034898   0.774   5.220   4.863 -0.1736 -0.6829 -1.2666
   70MOL   C26134899   0.779   5.167   4.732  0.3142  0.4095 -0.4673
   70MOL   C26234900   0.720   5.044   4.699 -0.1731  0.1450  0.2466
   70MOL   C26334901   0.653   4.967   4.793  0.1248  0.0672  0.6167
   70MOL   C26434902   0.647   5.018   4.925  0.5109  0.5338  0.1403
   70MOL   H26534903   0.452   4.921   5.289  1.2164 -1.9564  1.7800
   70MOL   H26634904   0.401   4.951   5.453  1.5770  0.4391  0.5380
   70MOL   H26734905   0.484   5.229   5.549  0.6079  1.1644 -0.6455
   70MOL   H26834906   0.611   5.159   5.634 -1.5716  0.5311  0.0019
   70MOL   H26934907   0.461   5.070   5.616 -0.9879 -0.2216 -0.8970
   70MOL   H27034908   0.709   5.299   5.134 -0.3961  0.7865  0.5971
   70MOL   H27134909   0.830   5.176   5.136  0.1112  0.0793  0.2930
   70MOL   H27234910   0.807   5.319   4.891 -1.7941 -0.8324  1.3524
   70MOL   H27334911   0.820   5.213   4.644 -0.9170 -1.8334 -2.2659
   70MOL   H27434912   0.735   5.018   4.596  3.9883 -1.2924  1.1397
   70MOL   H27534913   0.610   4.871   4.770  0.0959 -0.0068  0.9800
   70MOL   H27634914   0.606   4.959   5.006  0.8919  0.9146  0.6110
   70MOL   C27734915   0.661   4.942   5.452  0.2060  0.4175  0.5155
   70MOL   C27834916   0.823   4.960   5.475 -0.1162  1.2614  0.2542
   70MOL   C27934917   0.852   5.087   5.554  0.2867  0.3156 -0.3250
   70MOL   C28034918   0.895   4.965   5.338  0.3351 -0.4731  0.4050
   70MOL   O28134919   0.832   4.930   5.234 -0.0154 -0.0732 -0.2870
   70MOL   O28234920   1.028   4.993   5.348 -0.4308 -0.0746 -0.5174
   70MOL   C28334921   1.105   5.003   5.224 -0.7914 -0.4692 -0.5786
   70MOL   C28434922   1.159   4.862   5.183  0.3184 -0.3008  0.2952
   70MOL   C28534923   1.079   4.763   5.121 -0.0004 -0.3814 -0.0983
   70MOL   C28634924   1.131   4.635   5.096  0.2300 -0.9835 -0.3208
   70MOL   C28734925   1.263   4.608   5.131  0.1000  0.4971 -0.3596
   70MOL   C28834926   1.348   4.703   5.184 -0.1049  0.3812 -0.4050
   70MOL   C28934927   1.293   4.830   5.212 -0.5023  0.1267  0.1982
   70MOL   H29034928   0.655   4.853   5.389 -4.2851  1.1350 -0.1857
   70MOL   H29134929   0.613   4.903   5.541  1.1934 -2.9902 -0.3620
   70MOL   H29234930   0.829   5.182   5.506  1.1821  1.1314  0.8414
   70MOL   H29334931   0.956   5.098   5.583  0.9751 -0.4942 -2.3645
   70MOL   H29434932   0.803   5.096   5.651  0.4744 -1.2105 -0.0785
   70MOL   H29534933   1.037   5.036   5.146 -2.1158  0.1268  0.7911
   70MOL   H29634934   1.181   5.081   5.213 -0.9485  0.2227  2.7013
   70MOL   H29734935   0.977   4.787   5.095 -0.2686 -0.4753  0.8782
   70MOL   H29834936   1.068   4.562   5.048  1.1607 -1.3293 -1.0435
   70MOL   H29934937   1.306   4.510   5.124  0.1020  0.4592  0.1288
   70MOL   H30034938   1.444   4.667   5.216 -0.6564 -0.7002  0.0552
   70MOL   H30134939   1.351   4.900   5.270  1.1546  0.8908 -2.3334
   70MOL   C30234940   0.879   4.851   5.581  0.6805  0.7471  0.1410
   70MOL   C30334941   0.870   4.695   5.571  0.1795  0.4997  0.3059
   70MOL   C30434942   0.906   4.645   5.429  0.0879  0.5876  0.0965
   70MOL   C30534943   0.722   4.660   5.597 -0.3263 -0.2061 -0.5187
   70MOL   O30634944   0.646   4.617   5.515  0.0450 -0.3789  0.7839
   70MOL   O30734945   0.681   4.698   5.728  0.3588 -0.0199  0.3754
   70MOL   C30834946   0.549   4.667   5.758  0.3162  0.7321 -0.1607
   70MOL   C30934947   0.494   4.753   5.869 -0.3015 -0.5689 -0.1818
   70MOL   C31034948   0.535   4.894   5.870 -0.0054  0.1461 -0.2090
   70MOL   C31134949   0.466   4.980   5.959 -0.6060 -0.4896  0.1972
   70MOL   C31234950   0.360   4.930   6.041 -0.4599 -0.7703  0.0730
   70MOL   C31334951   0.315   4.798   6.027  0.3120  0.1875  0.0190
   70MOL   C31434952   0.381   4.710   5.939  0.7813  0.2619  0.0727
   70MOL   H31534953   0.828   4.883   5.673 -0.9211  0.9547 -0.7917
   70MOL   H31634954   0.986   4.869   5.593  0.6640  2.0584 -1.4708
   70MOL   H31734955   0.999   4.690   5.393  0.8099  0.0664  1.2913
   70MOL   H31834956   0.831   4.673   5.356 -0.8418  1.0371  1.2295
   70MOL   H31934957   0.923   4.538   5.416 -2.1965  0.1496  0.6608
   70MOL   H32034958   0.482   4.673   5.673 -1.3174 -2.4551  0.8602
   70MOL   H32134959   0.549   4.562   5.784  0.2464  0.6522 -0.4797
   70MOL   H32234960   0.612   4.927   5.801 -0.6928 -0.9621 -1.5309
   70MOL   H32334961   0.489   5.086   5.955 -2.4701 -0.0475  0.5171
   70MOL   H32434962   0.309   5.007   6.098 -0.1435 -0.6893  0.2482
   70MOL   H32534963   0.238   4.758   6.092  0.2110  0.8095  0.2878
   70MOL   H32634964   0.352   4.606   5.938  0.2915  0.4037 -1.1209
   70MOL   C32734965   0.970   4.635   5.683 -0.3227  0.2585  0.3970
   70MOL   C32834966   1.014   4.481   5.683  0.3810 -0.1116 -0.2818
   70MOL   C32934967   1.136   4.469   5.603 -0.1787 -0.7027 -0.4291
   70MOL   C33034968   0.899   4.392   5.631  1.0232  0.4078 -0.3307
   70MOL   O33134969   0.916   4.323   5.527 -0.1818  0.1703  0.3514
   70MOL   O33234970   0.792   4.389   5.707  0.6975 -0.2390 -0.2272
   70MOL   C33334971   0.699   4.282   5.689  0.6463 -0.2182  0.6676
   70MOL   C33434972   0.567   4.307   5.757  0.0921 -0.5992  0.1779
   70MOL   C33534973   0.462   4.369   5.681 -0.0262 -0.6995  0.1350
   70MOL   C33634974   0.335   4.379   5.737 -0.4675  0.2060 -0.5946
   70MOL   C33734975   0.310   4.319   5.862 -0.1345 -0.0061  0.3432
   70MOL   C33834976   0.406   4.252   5.939 -0.7045  0.8981  0.4685
   70MOL   C33934977   0.539   4.243   5.884 -0.4680 -0.2171  0.5098
   70MOL   H34034978   0.924   4.669   5.776 -1.2001 -1.0634  0.4575
   70MOL   H34134979   1.068   4.681   5.683 -0.6624  0.9959  0.1955
   70MOL   H34234980   1.136   4.519   5.506  2.2118 -2.4402 -1.3981
   70MOL   H34334981   1.175   4.369   5.585 -2.5171 -1.5012 -1.1689
   70MOL   H34434982   1.212   4.519   5.664 -0.2957 -5.3224  3.7790
   70MOL   H34534983   0.689   4.263   5.583  0.6690 -1.1325  0.8275
   70MOL   H34634984   0.753   4.201   5.739 -0.6678 -0.4134  1.8018
   70MOL   H34734985   0.478   4.408   5.582  2.4481 -1.1239  0.3309
   70MOL   H34834986   0.254   4.419   5.679 -0.1667  2.4650  0.5118
   70MOL   H34934987   0.214   4.334   5.910 -0.3487 -1.9180  0.5823
   70MOL   H35034988   0.387   4.208   6.035  0.5918 -1.4501 -0.3061
   70MOL   H35134989   0.621   4.200   5.940 -0.0182 -0.3840 -0.2768
   70MOL   C35234990   1.041   4.441   5.839  0.9046  0.0127 -0.4821
   70MOL   C35334991   1.122   4.318   5.891 -0.8366 -0.3332  0.2130
   70MOL   C35434992   1.117   4.327   6.050 -0.4822  0.0040 -0.3799
   70MOL   C35534993   1.272   4.328   5.851 -0.2231 -0.3358 -0.2913
   70MOL   O35634994   1.325   4.244   5.774 -0.0947  0.3771 -0.1140
   70MOL   O35734995   1.332   4.433   5.896 -0.2681  0.8367  0.1352
   70MOL   C35834996   1.462   4.468   5.865  0.5052  0.1094 -0.3128
   70MOL   C35934997   1.474   4.550   5.734 -1.1837  0.4891 -0.2937
   70MOL   C36034998   1.453   4.691   5.739 -0.2678 -0.3882  0.2702
   70MOL   C36134999   1.463   4.766   5.616  0.6621 -0.0120  0.2031
   70MOL   C36235000   1.489   4.693   5.497  0.0649 -0.0373 -0.2168
   70MOL   C36335001   1.500   4.557   5.497  0.0761  0.2158  0.6698
   70MOL   C36435002   1.498   4.481   5.617 -0.1421  0.6977 -0.0132
   70MOL   H36535003   0.944   4.438   5.887  0.1953 -0.2171 -1.8809
   70MOL   H36635004   1.086   4.534   5.875  1.9891  1.6522 -5.5127
   70MOL   H36735005   1.195   4.260   6.088 -2.4618 -1.5937  1.0132
   70MOL   H36835006   1.016   4.316   6.089 -0.3201 -0.3043 -0.0320
   70MOL   H36935007   1.148   4.422   6.093  3.6720 -1.0802 -0.6881
   70MOL   H37035008   1.506   4.546   5.927  0.0739  1.0875 -1.2219
   70MOL   H37135009   1.529   4.382   5.861  0.9130  0.3825  0.5917
   70MOL   H37235010   1.430   4.742   5.831 -2.4543 -1.4108  0.3221
   70MOL   H37335011   1.449   4.873   5.609  1.9645  0.1388 -0.1268
   70MOL   H37435012   1.490   4.742   5.401 -1.1598 -2.4320 -1.4886
   70MOL   H37535013   1.514   4.519   5.397  0.3663  1.5383  0.1895
   70MOL   H37635014   1.508   4.374   5.605  1.5926  0.8580 -0.1461
   70MOL   C37735015   1.052   4.186   5.833  0.2294 -0.0329 -0.4581
   70MOL   C37835016   1.062   4.049   5.904 -0.0420  0.0646  0.3539
   70MOL   C37935017   1.203   4.010   5.939  0.4691 -0.0695  0.4627
   70MOL   C38035018   0.999   3.951   5.802  0.0168 -0.1797  0.2140
   70MOL   O38135019   0.894   3.975   5.738 -0.4535 -0.2700 -0.8189
   70MOL   O38235020   1.065   3.837   5.785 -0.1770  0.2685  0.5169
   70MOL   C38335021   1.021   3.735   5.694  0.2571 -0.7481  0.2986
   70MOL   C38435022   1.093   3.608   5.725 -0.7834  0.7709  0.2061
   70MOL   C38535023   1.207   3.602   5.812 -0.4543  0.2555  0.0309
   70MOL   C38635024   1.272   3.480   5.845 -0.1002  0.3237  0.4895
   70MOL   C38735025   1.236   3.362   5.777 -0.4187  0.6487  0.5228
   70MOL   C38835026   1.121   3.370   5.698  0.5797  0.0760  0.2395
   70MOL   C38935027   1.056   3.488   5.662  0.3781 -0.2747  0.5061
   70MOL   H39035028   1.090   4.174   5.731  1.9314 -2.1690  0.3912
   70MOL   H39135029   0.948   4.213   5.816  0.5731  1.0974 -0.8223
   70MOL   H39235030   1.247   4.050   6.031  3.7914 -1.1713 -0.5529
   70MOL   H39335031   1.277   4.040   5.865  1.1985 -0.6183  0.9610
   70MOL   H39435032   1.222   3.903   5.942  1.2134  0.0710  0.9945
   70MOL   H39535033   0.915   3.715   5.704  0.2814 -1.7596 -1.3658
   70MOL   H39635034   1.045   3.758   5.590  2.9332  1.3417  1.2926
   70MOL   H39735035   1.239   3.682   5.877  0.7730  1.0196 -1.4735
   70MOL   H39835036   1.353   3.479   5.916  0.6553 -0.3604 -0.3769
   70MOL   H39935037   1.294   3.274   5.797 -0.9773  0.5227  1.6004
   70MOL   H40035038   1.078   3.282   5.651 -0.2270  0.7405 -0.2782
   70MOL   H40135039   0.986   3.475   5.582  0.5635 -1.2651  0.4955
   70MOL   C40235040   0.969   4.052   6.029 -0.2965  0.1220 -0.2331
   70MOL   C40335041   0.897   3.934   6.109  0.3784  0.2842  0.6053
   70MOL   C40435042   0.776   3.877   6.024 -0.1041  0.3160 -0.7822
   70MOL   C40535043   0.853   3.988   6.242  0.2721 -0.3065 -0.6129
   70MOL   O40635044   0.921   4.073   6.298 -0.4869  0.2612 -0.1567
   70MOL   O40735045   0.745   3.929   6.293 -0.6663 -0.3604 -0.4095
   70MOL   C40835046   0.687   3.973   6.414 -0.7428  0.2448 -0.6652
   70MOL   C40935047   0.538   3.978   6.391  0.3600 -0.5108  0.7290
   70MOL   C41035048   0.462   4.092   6.426  1.3346  0.4336 -0.9367
   70MOL   C41135049   0.321   4.085   6.412  0.2306  0.1089 -0.3037
   70MOL   C41235050   0.258   3.971   6.360 -0.1175 -0.6754 -0.6079
   70MOL   C41335051   0.333   3.860   6.317 -0.0369  0.6380 -0.0070
   70MOL   C41435052   0.474   3.865   6.333  0.0794  0.3306 -0.5760
   70MOL   H41535053   0.890   4.126   6.013  1.4987  1.9838 -0.7477
   70MOL   H41635054   1.043   4.094   6.097 -0.0842 -0.5822 -0.0244
   70MOL   H41735055   0.790   3.845   5.920 -1.4641 -2.5962 -0.1184
   70MOL   H41835056   0.701   3.955   6.011 -0.3015  0.0980 -0.9678
   70MOL   H41935057   0.723   3.797   6.075  0.2950  1.0877  0.8768
   70MOL   H42035058   0.715   3.908   6.496  1.2774  1.5050 -0.3246
   70MOL   H42135059   0.712   4.074   6.445 -0.6570  0.2606 -0.7823
   70MOL   H42235060   0.513   4.176   6.472  0.7792  0.7143 -0.8358
   70MOL   H42335061   0.257   4.167   6.439  0.1260  0.9131 -2.8897
   70MOL   H42435062   0.150   3.967   6.351 -0.2623 -0.8854  1.1711
   70MOL   H42535063   0.279   3.779   6.272  0.1031 -0.5019  1.8291
   70MOL   H42635064   0.547   3.795   6.294  0.7704  1.0706 -0.6262
   70MOL   C42735065   1.004   3.815   6.131  0.6024 -0.1853  0.1466
   70MOL   C42835066   0.988   3.674   6.200  0.6266  0.1515 -0.0948
   70MOL   C42935067   0.886   3.671   6.324 -0.3501  0.0588  0.5723
   70MOL   C43035068   1.125   3.643   6.258  0.3027  0.2262 -0.2568
   70MOL   O43135069   1.144   3.606   6.373 -0.4066 -0.5133 -0.2161
   70MOL   O43235070   1.231   3.669   6.175  0.6624 -0.9018  0.1721
   70MOL   C43335071   1.369   3.654   6.224 -0.1409 -0.3082 -0.8346
   70MOL   C43435072   1.421   3.763   6.310 -0.6796 -0.5231 -0.3652
   70MOL   C43535073   1.533   3.746   6.387  0.2810 -0.2544  0.2867
   70MOL   C43635074   1.599   3.853   6.453 -0.9541  1.0938 -0.3055
   70MOL   C43735075   1.543   3.978   6.447  0.3361  0.0441  0.5339
   70MOL   C43835076   1.429   4.001   6.364 -0.3813 -0.1988  0.2831
   70MOL   C43935077   1.372   3.896   6.289  0.4530  0.7001 -0.4356
   70MOL   H44035078   1.082   3.868   6.185 -1.6785  4.3979 -0.7847
   70MOL   H44135079   1.044   3.794   6.031 -1.3093 -0.4943 -0.5841
   70MOL   H44235080   0.921   3.747   6.394  3.1102  0.6780 -1.7038
   70MOL   H44335081   0.893   3.575   6.375 -2.5040  0.1751  1.1434
   70MOL   H44435082   0.783   3.693   6.296  0.3488  1.0854 -1.2564
   70MOL   H44535083   1.377   3.565   6.286 -0.8398  0.3931  0.2831
   70MOL   H44635084   1.436   3.647   6.138 -0.2120 -0.3551 -0.8862
   70MOL   H44735085   1.577   3.649   6.401 -0.6240 -0.9817 -1.8224
   70MOL   H44835086   1.690   3.833   6.507 -0.3981  1.5453 -1.0664
   70MOL   H44935087   1.587   4.064   6.496 -2.8761  2.7300 -1.0725
   70MOL   H45035088   1.383   4.099   6.357 -2.0748 -1.0813 -1.4769
   70MOL   H45135089   1.284   3.911   6.229 -0.0424 -1.1128 -0.1974
   70MOL   C45235090   0.946   3.565   6.087  0.6336  0.4090  0.3467
   70MOL   C45335091   0.896   3.420   6.109 -0.5767 -0.4656 -0.1018
   70MOL   C45435092   0.743   3.438   6.153  0.0706 -0.1738  0.3448
   70MOL   C45535093   0.980   3.345   6.213  0.0592 -0.1944 -0.0615
   70MOL   O45635094   1.101   3.350   6.197  0.1967  0.3805 -0.0016
   70MOL   O45735095   0.907   3.286   6.307  0.1292  0.0749  0.5092
   70MOL   C45835096   0.961   3.202   6.402  0.0598 -0.7487 -0.1911
   70MOL   C45935097   0.939   3.052   6.365 -0.3684 -0.1610 -0.2957
   70MOL   C46035098   0.813   2.998   6.337  0.2718  0.2257  0.5993
   70MOL   C46135099   0.802   2.857   6.302  0.0938  0.1049  0.5435
   70MOL   C46235100   0.913   2.774   6.324 -0.0754 -0.8430 -0.6885
   70MOL   C46335101   1.041   2.826   6.359  0.1680  0.9415  0.3853
   70MOL   C46435102   1.050   2.965   6.376 -0.3904  0.2956 -0.0682
   70MOL   H46535103   1.031   3.559   6.019  0.5200  1.2738  0.1194
   70MOL   H46635104   0.880   3.614   6.015 -0.4340 -0.0434  1.0062
   70MOL   H46735105   0.703   3.338   6.164  0.7453 -0.3990  0.7701
   70MOL   H46835106   0.697   3.502   6.077 -0.6156 -1.0375  0.0345
   70MOL   H46935107   0.722   3.490   6.246 -2.7714 -3.2317  1.4829
   70MOL   H47035108   1.066   3.229   6.413 -0.7440  1.6525  2.1294
   70MOL   H47135109   0.911   3.212   6.498 -0.7472  0.1347 -0.6932
   70MOL   H47235110   0.730   3.067   6.330  0.3731  0.2355 -0.6108
   70MOL   H47335111   0.709   2.816   6.267  0.3995 -0.5381  0.4739
   70MOL   H47435112   0.902   2.670   6.300  0.8472 -0.7460 -1.5808
   70MOL   H47535113   1.123   2.756   6.362 -0.7147 -0.0761  1.1543
   70MOL   H47635114   1.151   3.000   6.387 -0.2372 -0.8171  2.1208
   70MOL   C47735115   0.896   3.343   5.978 -0.1361 -0.1943 -0.0259
   70MOL   C47835116   0.876   3.195   5.985 -0.5941 -0.2018  0.9211
   70MOL   C47935117   1.009   3.118   5.979 -0.1556 -0.1473  0.1327
   70MOL   C48035118   0.786   3.138   5.877  0.4889  0.5224 -0.0467
   70MOL   O48135119   0.687   3.073   5.898 -0.0330  0.1721  0.2952
   70MOL   O48235120   0.831   3.166   5.749 -0.3073 -0.7428  0.4378
   70MOL   C48335121   0.756   3.113   5.638 -0.4869 -0.2699 -0.2954
   70MOL   C48435122   0.753   3.212   5.523 -0.0653 -0.3647 -0.2596
   70MOL   C48535123   0.867   3.232   5.444  0.8124 -0.7822  0.7991
   70MOL   C48635124   0.864   3.331   5.338 -0.4625  0.6333  0.3708
   70MOL   C48735125   0.745   3.400   5.307 -0.0984 -0.4857 -0.0300
   70MOL   C48835126   0.640   3.373   5.390  0.1100  0.8816 -0.5470
   70MOL   C48935127   0.632   3.275   5.491 -0.3474  0.1025  0.0191
   70MOL   H49035128   0.998   3.365   5.946  0.6561  1.1944  3.2524
   70MOL   H49135129   0.840   3.401   5.904  0.8960 -0.7214 -1.2443
   70MOL   H49235130   1.076   3.151   6.059 -1.5016  0.8333  0.8891
   70MOL   H49335131   1.063   3.127   5.885 -0.9932  1.7374 -0.1855
   70MOL   H49435132   0.986   3.014   6.004  0.2760 -0.2217  0.2221
   70MOL   H49535133   0.807   3.021   5.609  1.0648 -0.7112  3.5960
   70MOL   H49635134   0.656   3.078   5.663 -0.5791  0.2757  0.1071
   70MOL   H49735135   0.963   3.190   5.469  1.4479 -0.6098 -1.2412
   70MOL   H49835136   0.950   3.363   5.281 -2.0820  0.0061 -2.5005
   70MOL   H49935137   0.743   3.486   5.242  0.9551  1.0088  1.8542
   70MOL   H50035138   0.550   3.432   5.384  0.8699  2.2453  0.9426
   70MOL   H50135139   0.541   3.263   5.548 -0.0613 -2.5118 -0.0034
   70MOL   H50235140   0.820   3.174   6.077 -3.0062 -0.2433 -0.5014
   71MOL     C135141   7.614   3.025   4.161 -0.4971 -0.6194 -0.1697
   71MOL     C235142   7.725   3.009   4.273  0.6518 -0.2846  0.0959
   71MOL     C335143   7.663   2.932   4.397 -0.1311 -0.4136  0.0568
   71MOL     C435144   7.752   3.151   4.334 -0.4273 -0.2377  0.5532
   71MOL     O535145   7.682   3.250   4.306 -0.4138 -0.2034 -0.4570
   71MOL     O635146   7.865   3.156   4.409  0.1580  0.5378 -0.2578
   71MOL     C735147   7.922   3.283   4.441 -0.3910 -0.0838 -0.3531
   71MOL     C835148   0.061   3.265   4.495  0.0894 -0.1569  0.0853
   71MOL     C935149   0.154   3.193   4.424 -0.8692  0.2027  0.4804
   71MOL    C1035150   0.280   3.177   4.478  0.1793  0.1897 -0.1896
   71MOL    C1135151   0.313   3.230   4.604 -0.2291  0.4726 -0.5267
   71MOL    C1235152   0.214   3.288   4.684  0.1472 -0.5704  1.0030
   71MOL    C1335153   0.093   3.318   4.621 -0.4028 -0.1572  0.3631
   71MOL    H1435154   7.651   3.083   4.076 -0.1409  1.2929  1.2578
   71MOL    H1535155   7.566   2.928   4.143  0.1816 -0.7719 -1.1954
   71MOL    H1635156   7.727   2.922   4.484 -1.5320  0.3234  1.1948
   71MOL    H1735157   7.622   2.834   4.374 -1.3693 -0.2438  1.4696
   71MOL    H1835158   7.581   2.989   4.440  0.7929  0.6802  0.4124
   71MOL    H1935159   7.917   3.349   4.354 -0.0862 -0.2421 -0.4897
   71MOL    H2035160   7.863   3.336   4.516  2.3031  0.4693  1.4259
   71MOL    H2135161   0.121   3.136   4.339 -0.3299  1.8455 -0.8488
   71MOL    H2235162   0.354   3.116   4.429  2.3139  0.2883  2.7992
   71MOL    H2335163   0.409   3.218   4.653 -1.6350 -0.0372  2.2194
   71MOL    H2435164   0.231   3.326   4.784  3.3318  0.0951  0.2683
   71MOL    H2535165   0.014   3.360   4.680 -2.6784 -2.1754 -1.1497
   71MOL    H2635166   7.528   3.071   4.210  0.4027  1.2554 -0.3139
   71MOL    C2735167   7.852   2.933   4.225  0.2221 -0.0385 -0.5631
   71MOL    C2835168   7.934   2.964   4.097 -0.2554  0.2003 -0.2976
   71MOL    C2935169   7.950   3.118   4.080  0.1254 -0.3595 -0.1997
   71MOL    C3035170   7.870   2.916   3.970  0.2505 -0.0945  1.3178
   71MOL    O3135171   7.906   2.970   3.862  0.2271  0.0553 -0.0660
   71MOL    O3235172   7.770   2.841   3.984  0.4820 -0.7772  0.2089
   71MOL    C3335173   7.700   2.807   3.866 -0.7072 -1.3242 -0.0089
   71MOL    C3435174   7.552   2.782   3.875  0.7164 -0.5820 -0.2098
   71MOL    C3535175   7.464   2.889   3.894 -0.6556 -0.3359 -0.2739
   71MOL    C3635176   7.322   2.865   3.899 -0.5527  0.0245  0.4911
   71MOL    C3735177   7.281   2.728   3.892  0.0195  0.0486 -0.8171
   71MOL    C3835178   7.366   2.616   3.886 -0.4343 -0.4637 -0.2409
   71MOL    C3935179   7.505   2.648   3.868  1.0858 -0.4463  0.3446
   71MOL    H4035180   7.822   2.828   4.221  0.0049  0.1028 -4.4852
   71MOL    H4135181   7.921   2.957   4.307 -0.5987  2.0757 -0.4518
   71MOL    H4235182   7.977   3.169   4.173 -1.9627  0.6878 -0.1414
   71MOL    H4335183   7.857   3.165   4.046  0.2702 -0.2078 -0.3882
   71MOL    H4435184   0.017   3.144   4.004  0.4109  1.2173  0.5824
   71MOL    H4535185   7.698   2.886   3.791 -1.3065  0.3862  1.7635
   71MOL    H4635186   7.756   2.723   3.825  0.3585 -1.3737  1.5186
   71MOL    H4735187   7.498   2.991   3.894 -0.4314 -0.3996 -2.5450
   71MOL    H4835188   7.245   2.941   3.903  0.1210  0.8282 -1.1543
   71MOL    H4935189   7.177   2.699   3.897 -0.3910  1.1454 -2.4748
   71MOL    H5035190   7.341   2.511   3.881 -2.7552  0.0450  0.4942
   71MOL    H5135191   7.572   2.564   3.855  0.6484 -0.4501 -2.1839
   71MOL    C5235192   0.069   2.903   4.096 -0.1379 -0.1943 -0.1973
   71MOL    C5335193   0.103   2.753   4.142 -0.4473 -0.3654  0.0384
   71MOL    C5435194   0.008   2.658   4.057 -0.1681 -0.7472 -0.4122
   71MOL    C5535195   0.084   2.727   4.291  0.3479 -0.3113 -0.6757
   71MOL    O5635196   0.075   2.808   4.380  0.5401 -0.1971  0.2546
   71MOL    O5735197   0.082   2.585   4.316  0.4812 -0.0578  0.6076
   71MOL    C5835198   0.095   2.539   4.456 -1.0243 -0.0532 -0.7460
   71MOL    C5935199   0.121   2.389   4.465  0.8770  0.2584 -0.4015
   71MOL    C6035200   0.152   2.317   4.345  0.2971 -0.0086  0.3831
   71MOL    C6135201   0.171   2.182   4.357  0.0405  0.5625  0.0957
   71MOL    C6235202   0.162   2.119   4.483  0.5302 -0.0837  0.5324
   71MOL    C6335203   0.121   2.191   4.599 -1.2282 -0.1393  0.3742
   71MOL    C6435204   0.106   2.327   4.590 -0.5021 -0.1602  0.4744
   71MOL    H6535205   0.133   2.964   4.159  1.1003 -0.3967 -1.2395
   71MOL    H6635206   0.114   2.923   3.999  0.5752 -0.0698  0.1518
   71MOL    H6735207   0.008   2.674   3.949  1.9441  0.0705 -0.3138
   71MOL    H6835208   7.917   2.674   4.101  0.5109  2.7626 -0.0279
   71MOL    H6935209   0.042   2.555   4.073 -0.6104 -1.0341 -1.2980
   71MOL    H7035210   0.179   2.593   4.501 -1.3127 -1.6265  1.7478
   71MOL    H7135211   0.009   2.578   4.510  0.9992  0.5347  2.1494
   71MOL    H7235212   0.154   2.355   4.244  2.8199 -0.7592  0.1123
   71MOL    H7335213   0.197   2.122   4.271 -3.1110 -1.4661  0.4401
   71MOL    H7435214   0.177   2.012   4.484 -1.1299 -0.3345  0.7755
   71MOL    H7535215   0.100   2.142   4.694 -2.3789 -0.5707 -0.0873
   71MOL    H7635216   0.084   2.388   4.677  0.9348  0.1842  0.6181
   71MOL    C7735217   0.243   2.712   4.095  0.1839  0.1359  0.4449
   71MOL    C7835218   0.382   2.775   4.138 -0.2373 -0.0242  0.0345
   71MOL    C7935219   0.382   2.808   4.287  0.3176 -0.4107 -0.2751
   71MOL    C8035220   0.412   2.889   4.044 -0.4996  0.1029  0.7526
   71MOL    O8135221   0.365   2.900   3.927  0.7061 -0.2887 -0.0770
   71MOL    O8235222   0.483   2.990   4.102 -0.4477 -0.1014  0.0941
   71MOL    C8335223   0.497   3.112   4.033 -0.0405 -0.3440  0.0883
   71MOL    C8435224   0.585   3.203   4.118  0.7804 -0.0266 -0.5593
   71MOL    C8535225   0.528   3.283   4.218  0.7620 -0.2190 -0.0425
   71MOL    C8635226   0.603   3.364   4.307  0.1812 -0.2848 -0.4118
   71MOL    C8735227   0.740   3.372   4.287 -0.5287 -0.5195 -0.0126
   71MOL    C8835228   0.803   3.291   4.186 -0.2876  0.6358 -0.7305
   71MOL    C8935229   0.726   3.208   4.102 -0.5058  0.4560  0.0441
   71MOL    H9035230   0.244   2.702   3.987  1.4366 -0.8057  0.5242
   71MOL    H9135231   0.240   2.604   4.110 -1.0139 -0.1010 -1.3431
   71MOL    H9235232   0.361   2.719   4.345 -0.9569  0.0645  0.0155
   71MOL    H9335233   0.313   2.884   4.324  1.1661  0.3084 -0.1389
   71MOL    H9435234   0.484   2.839   4.312  0.0261  2.3039 -2.1359
   71MOL    H9535235   0.549   3.109   3.937 -3.1604 -0.9421 -1.6539
   71MOL    H9635236   0.408   3.174   4.019  0.3339 -0.0622 -1.0924
   71MOL    H9735237   0.425   3.260   4.242  1.7929 -1.6492  3.1844
   71MOL    H9835238   0.559   3.412   4.393 -3.0462 -0.5337 -1.8511
   71MOL    H9935239   0.793   3.443   4.348  0.7580 -0.9261 -0.6448
   71MOL   H10035240   0.911   3.294   4.188 -0.2711  0.0558 -0.8467
   71MOL   H10135241   0.785   3.147   4.036 -1.1980  1.0828 -1.1770
   71MOL   C10235242   0.510   2.680   4.119 -0.2634  0.4419 -0.3712
   71MOL   C10335243   0.534   2.567   4.011  0.8607 -0.7466  0.0470
   71MOL   C10435244   0.534   2.638   3.870  0.0639 -0.1399 -0.0353
   71MOL   C10535245   0.424   2.452   4.009  0.2193 -0.4374 -0.6258
   71MOL   O10635246   0.416   2.369   4.096  0.1449  0.0123 -0.1938
   71MOL   O10735247   0.345   2.460   3.906  0.1278 -0.0759  0.3649
   71MOL   C10835248   0.232   2.373   3.894  0.2970 -0.3465 -0.5708
   71MOL   C10935249   0.122   2.433   3.813  0.4047  0.3617  0.3039
   71MOL   C11035250   8.004   2.366   3.792 -0.0021  0.1205 -0.3645
   71MOL   C11135251   7.910   2.421   3.698  0.0684  0.1410  0.2892
   71MOL   C11235252   7.937   2.533   3.623  0.0915 -0.1166  0.3492
   71MOL   C11335253   0.054   2.584   3.634 -0.5413 -0.2594 -0.6031
   71MOL   C11435254   0.148   2.544   3.732 -0.3953 -0.0642 -0.3508
   71MOL   H11535255   0.497   2.620   4.210  0.5482 -0.2526 -0.7042
   71MOL   H11635256   0.597   2.744   4.129  1.2657 -1.5862 -0.2426
   71MOL   H11735257   0.600   2.723   3.891 -0.8607  0.5494  0.1252
   71MOL   H11835258   0.435   2.680   3.854 -0.1937 -1.2988 -1.5466
   71MOL   H11935259   0.557   2.588   3.776 -1.2468 -2.8896  1.0507
   71MOL   H12035260   0.250   2.275   3.850 -2.4665 -0.7128 -0.9843
   71MOL   H12135261   0.178   2.364   3.989  1.0337 -0.4433 -0.1516
   71MOL   H12235262   7.981   2.281   3.855  1.3130  0.7399  0.9609
   71MOL   H12335263   7.811   2.379   3.692 -0.1737  0.8819 -1.0747
   71MOL   H12435264   7.870   2.561   3.543  1.6562 -0.1542 -0.9922
   71MOL   H12535265   0.087   2.671   3.579 -0.1518 -1.2471 -1.9481
   71MOL   H12635266   0.243   2.595   3.725 -0.0487 -0.4316  1.5191
   71MOL   C12735267   0.674   2.505   4.056  0.1421  0.1119  0.4949
   71MOL   C12835268   0.782   2.441   3.958 -0.2533 -0.3508  0.0773
   71MOL   C12935269   0.874   2.563   3.921 -0.0401 -0.2817 -0.6382
   71MOL   C13035270   0.714   2.371   3.842  0.7835  0.0558  1.0477
   71MOL   O13135271   0.726   2.412   3.724 -0.1589 -0.3753 -0.2065
   71MOL   O13235272   0.632   2.267   3.876 -0.1313 -0.1570  0.2790
   71MOL   C13335273   0.551   2.202   3.778  0.8043 -0.3806 -0.1437
   71MOL   C13435274   0.479   2.085   3.840  0.6859 -1.0509  0.0077
   71MOL   C13535275   0.416   2.003   3.751  0.4804  0.1052  0.0460
   71MOL   C13635276   0.353   1.888   3.805  0.5884  0.3566  0.0804
   71MOL   C13735277   0.336   1.865   3.941 -0.1171  0.0277 -0.2398
   71MOL   C13835278   0.392   1.957   4.031 -0.3287  0.7072  0.0279
   71MOL   C13935279   0.468   2.064   3.981 -0.7869 -0.3952  0.7576
   71MOL   H14035280   0.656   2.434   4.137 -0.4868 -1.2868 -0.8708
   71MOL   H14135281   0.729   2.581   4.112 -0.6190 -0.5254  2.1324
   71MOL   H14235282   0.822   2.659   3.918 -2.1119 -1.3890 -5.2654
   71MOL   H14335283   0.934   2.548   3.832  1.1315 -0.3921  0.1609
   71MOL   H14435284   0.948   2.576   4.000  0.8393 -2.1274 -1.1396
   71MOL   H14535285   0.470   2.267   3.746  0.7008  0.2992  1.4516
   71MOL   H14635286   0.616   2.177   3.694  0.3466 -0.4989 -0.4644
   71MOL   H14735287   0.421   2.019   3.645 -1.7031 -0.8505 -0.2267
   71MOL   H14835288   0.299   1.830   3.732  0.4033  0.2182  0.3234
   71MOL   H14935289   0.268   1.792   3.981  1.0635 -0.5800  0.6507
   71MOL   H15035290   0.372   1.941   4.136 -1.2136 -0.1755 -0.2610
   71MOL   H15135291   0.514   2.138   4.043 -0.3684 -0.3203  0.3609
   71MOL   C15235292   0.877   2.344   4.044 -0.7951  0.0083  0.2152
   71MOL   C15335293   0.971   2.232   3.978 -0.3151  0.5786  0.4019
   71MOL   C15435294   1.097   2.229   4.074  0.4009  0.1643 -0.2109
   71MOL   C15535295   1.024   2.271   3.840 -0.2746  0.4498 -0.1422
   71MOL   O15635296   1.121   2.345   3.823  0.5376 -0.3784 -0.2351
   71MOL   O15735297   0.948   2.227   3.739 -0.2405  0.3347  0.2807
   71MOL   C15835298   0.991   2.246   3.610 -0.1259  0.0241 -0.1931
   71MOL   C15935299   0.880   2.200   3.512 -0.0231  0.1717  0.2639
   71MOL   C16035300   0.815   2.075   3.530  0.2197 -0.0783 -0.2999
   71MOL   C16135301   0.723   2.025   3.449  0.2016 -0.4146 -0.1542
   71MOL   C16235302   0.665   2.111   3.351 -0.0832  0.7112 -0.0904
   71MOL   C16335303   0.713   2.249   3.337 -0.6529  0.6111  0.0631
   71MOL   C16435304   0.827   2.288   3.415 -0.3000  0.0563  0.4946
   71MOL   H16535305   0.815   2.278   4.105  0.0855 -0.5182  0.5423
   71MOL   H16635306   0.937   2.402   4.114 -0.1091 -0.6598  0.1745
   71MOL   H16735307   1.064   2.214   4.177 -3.2210 -0.6285 -1.4100
   71MOL   H16835308   1.136   2.331   4.076  1.0885 -0.0308 -2.3730
   71MOL   H16935309   1.174   2.164   4.032  0.8624  1.4284 -1.3534
   71MOL   H17035310   1.020   2.350   3.595  0.3084  0.0188  0.6252
   71MOL   H17135311   1.082   2.188   3.596  0.3118  0.6499  0.0865
   71MOL   H17235312   0.852   2.015   3.612  1.1243  1.0615  0.1522
   71MOL   H17335313   0.683   1.926   3.464 -0.6446 -0.4840 -2.7852
   71MOL   H17435314   0.582   2.079   3.290  0.0081 -0.4321  0.3703
   71MOL   H17535315   0.668   2.320   3.268 -1.0981 -0.9376 -1.2665
   71MOL   H17635316   0.862   2.390   3.413  1.5391 -0.5540  0.0525
   71MOL   C17735317   0.908   2.090   3.968  0.0309  0.0592 -0.1774
   71MOL   C17835318   0.884   1.980   4.076  1.1152 -0.5746 -0.4596
   71MOL   C17935319   0.786   2.047   4.184  0.3238 -0.3263  0.4247
   71MOL   C18035320   1.018   1.934   4.146 -0.7855 -0.2594 -0.5404
   71MOL   O18135321   1.043   1.922   4.266  0.0307 -0.2311 -0.3685
   71MOL   O18235322   1.112   1.902   4.049  0.4283 -0.2840 -0.3094
   71MOL   C18335323   1.243   1.865   4.082 -0.5091  0.0632  0.3599
   71MOL   C18435324   1.345   1.930   3.991 -0.0369 -0.3636 -0.3043
   71MOL   C18535325   1.470   1.979   4.037  0.4257  0.2598 -0.1220
   71MOL   C18635326   1.571   2.022   3.954  0.4065 -0.2217 -0.0338
   71MOL   C18735327   1.549   2.022   3.812 -0.2058  0.8201  0.3613
   71MOL   C18835328   1.422   1.987   3.759 -0.7048  0.0361  0.4280
   71MOL   C18935329   1.321   1.940   3.850  0.7419 -0.6309 -0.5868
   71MOL   H19035330   0.968   2.039   3.893  0.1140 -0.6433  0.3672
   71MOL   H19135331   0.818   2.112   3.911 -0.7688 -1.3221  0.5437
   71MOL   H19235332   0.738   1.970   4.245  1.9823 -1.4917  0.2816
   71MOL   H19335333   0.698   2.099   4.146 -0.1298 -1.3752  0.0111
   71MOL   H19435334   0.846   2.107   4.253 -0.8309  0.7776  0.4857
   71MOL   H19535335   1.276   1.891   4.182  1.0446 -0.6610  0.0642
   71MOL   H19635336   1.255   1.756   4.083 -2.3076 -0.1447 -0.1000
   71MOL   H19735337   1.491   1.983   4.143 -1.1727 -0.0471  0.2219
   71MOL   H19835338   1.661   2.067   3.992  1.6633 -1.9864 -0.8465
   71MOL   H19935339   1.631   2.055   3.750 -1.3397  0.6621 -1.2594
   71MOL   H20035340   1.400   1.987   3.654 -1.9470 -0.1671  0.6793
   71MOL   H20135341   1.225   1.917   3.806  0.1654  0.9513 -0.2215
   71MOL   C20235342   0.800   1.859   4.004 -0.2206 -0.2540  0.3703
   71MOL   C20335343   0.798   1.713   4.050  0.8457 -0.1582  0.5526
   71MOL   C20435344   0.770   1.712   4.207  0.3440 -0.3468 -0.3823
   71MOL   C20535345   0.945   1.656   4.011  0.4737 -0.1007 -0.3336
   71MOL   O20635346   1.024   1.608   4.100 -0.5599 -0.0159 -0.0525
   71MOL   O20735347   0.971   1.653   3.877  0.1817  0.0079 -0.3922
   71MOL   C20835348   1.092   1.597   3.827  0.1523  0.3517  0.2757
   71MOL   C20935349   1.140   1.665   3.697 -0.0336  0.4665 -0.0033
   71MOL   C21035350   1.244   1.597   3.628  0.5589 -0.6797 -0.9301
   71MOL   C21135351   1.301   1.654   3.511 -0.3544  0.3132 -1.0272
   71MOL   C21235352   1.239   1.766   3.450  0.2244  0.2353 -0.0465
   71MOL   C21335353   1.139   1.835   3.516 -0.5153 -0.3185 -0.5041
   71MOL   C21435354   1.096   1.783   3.641 -0.1093  0.3135 -0.0857
   71MOL   H21535355   0.827   1.864   3.899  1.2656 -1.3052  0.6843
   71MOL   H21635356   0.701   1.905   4.007 -0.4085 -0.6222 -0.0446
   71MOL   H21735357   0.841   1.765   4.270  0.5020  0.2020 -1.0182
   71MOL   H21835358   0.788   1.611   4.241  1.4382 -0.2396 -0.6273
   71MOL   H21935359   0.664   1.730   4.225  0.6631 -0.5138  1.7083
   71MOL   H22035360   1.175   1.605   3.897 -0.0169  1.5224  0.3517
   71MOL   H22135361   1.082   1.489   3.815  1.1510  0.1776  1.0023
   71MOL   H22235362   1.276   1.504   3.673 -2.7884 -0.3254  2.4230
   71MOL   H22335363   1.387   1.608   3.464 -1.5017 -1.3263 -1.5409
   71MOL   H22435364   1.275   1.794   3.352  0.0468  1.1243  0.1422
   71MOL   H22535365   1.100   1.921   3.464 -1.0634 -0.8459 -0.9587
   71MOL   H22635366   1.032   1.849   3.698  2.0144  1.3472  1.1512
   71MOL   C22735367   0.681   1.642   3.968  0.3596  0.1970  0.1639
   71MOL   C22835368   0.638   1.493   3.980  0.5519 -0.2054  0.5412
   71MOL   C22935369   0.496   1.491   4.051  0.3476 -0.2744 -0.1392
   71MOL   C23035370   0.734   1.403   4.064 -0.3418 -0.6109  0.0042
   71MOL   O23135371   0.715   1.377   4.184  0.1958 -0.5479  0.3272
   71MOL   O23235372   0.849   1.355   4.003 -0.2085 -0.2760  0.0925
   71MOL   C23335373   0.956   1.305   4.080  0.2225  0.4858  0.6707
   71MOL   C23435374   1.056   1.244   3.980 -0.2892 -0.7756  0.0371
   71MOL   C23535375   1.008   1.152   3.885  0.6334 -0.0050  0.3527
   71MOL   C23635376   1.095   1.089   3.798  0.0134  0.3335  0.3184
   71MOL   C23735377   1.237   1.098   3.815 -0.1020  0.1384  0.8091
   71MOL   C23835378   1.280   1.194   3.905 -0.2478 -0.4977 -0.8473
   71MOL   C23935379   1.193   1.260   3.994  0.8505  0.3863 -0.1378
   71MOL   H24035380   0.721   1.648   3.867 -0.6435 -0.0121 -0.2531
   71MOL   H24135381   0.593   1.706   3.975  0.9435  1.1154 -0.9747
   71MOL   H24235382   0.418   1.549   4.003  3.3866  2.1856 -2.2361
   71MOL   H24335383   0.502   1.519   4.157  0.8649  0.3316 -0.3304
   71MOL   H24435384   0.447   1.393   4.049 -2.3878  1.0589 -3.4599
   71MOL   H24535385   0.990   1.389   4.140  2.1356  1.9011 -2.2942
   71MOL   H24635386   0.937   1.217   4.143  1.2892  0.7558  1.3859
   71MOL   H24735387   0.901   1.143   3.874  0.5575  1.2122  0.0217
   71MOL   H24835388   1.054   1.014   3.732  0.7744  0.5902 -0.4618
   71MOL   H24935389   1.303   1.040   3.752 -0.5981  0.5666 -0.1226
   71MOL   H25035390   1.387   1.210   3.918 -0.6767  0.6678  1.8226
   71MOL   H25135391   1.222   1.320   4.079 -0.8575  0.2509  0.5481
   71MOL   C25235392   0.631   1.422   3.841  0.1320 -0.1741 -0.4455
   71MOL   C25335393   0.530   1.454   3.725 -0.2642 -0.4570  0.4205
   71MOL   C25435394   0.500   1.603   3.703 -0.6541  0.2161  0.7186
   71MOL   C25535395   0.392   1.386   3.751  0.1683 -1.0240  0.1205
   71MOL   O25635396   0.393   1.291   3.832 -0.3095  0.4643 -0.3362
   71MOL   O25735397   0.284   1.426   3.681  0.5257  0.8414 -0.3556
   71MOL   C25835398   0.157   1.379   3.712  0.7678 -0.8036  0.2953
   71MOL   C25935399   0.051   1.454   3.641  0.2531  0.1879 -0.3940
   71MOL   C26035400   0.052   1.596   3.643  0.0274  0.1825  0.5666
   71MOL   C26135401   7.963   1.662   3.566  0.6860 -0.0709  0.5195
   71MOL   C26235402   7.861   1.594   3.490  0.3275 -0.1597 -0.3729
   71MOL   C26335403   7.863   1.452   3.494  0.6219 -0.0223 -0.1195
   71MOL   C26435404   7.954   1.383   3.577 -0.0957  0.2807  0.0396
   71MOL   H26535405   0.639   1.315   3.861 -0.8172 -0.3781 -1.1529
   71MOL   H26635406   0.732   1.430   3.801 -0.4814 -0.1933 -2.0425
   71MOL   H26735407   0.592   1.658   3.682 -0.2684 -0.8648 -0.4875
   71MOL   H26835408   0.462   1.631   3.801 -0.0471 -1.9739  1.6082
   71MOL   H26935409   0.422   1.619   3.628  1.0075 -1.3987 -1.3878
   71MOL   H27035410   0.151   1.276   3.676 -0.0541 -0.1499 -1.4619
   71MOL   H27135411   0.134   1.378   3.819 -0.0049 -1.2983  0.1253
   71MOL   H27235412   0.137   1.650   3.681 -0.7046  1.6639  0.1431
   71MOL   H27335413   7.974   1.770   3.569 -1.2968  0.1336  1.5059
   71MOL   H27435414   7.785   1.652   3.439  1.6065  1.0650 -0.9381
   71MOL   H27535415   7.792   1.391   3.439  0.3007 -0.1309  0.4124
   71MOL   H27635416   7.946   1.277   3.597 -0.2018  0.0577 -1.1274
   71MOL   C27735417   0.583   1.394   3.585 -0.3427 -0.0455 -0.1195
   71MOL   C27835418   0.690   1.460   3.492  0.2173 -0.0946 -0.0495
   71MOL   C27935419   0.812   1.514   3.568 -0.0671  0.7351 -0.4650
   71MOL   C28035420   0.628   1.574   3.413  0.1591  0.4294  0.1787
   71MOL   O28135421   0.691   1.683   3.396  0.6846  0.4999  0.1670
   71MOL   O28235422   0.500   1.549   3.369 -0.3438  0.0641 -0.0053
   71MOL   C28335423   0.422   1.655   3.312  0.4042  0.4903 -0.1241
   71MOL   C28435424   0.315   1.587   3.235  1.2197  0.0399  0.4455
   71MOL   C28535425   0.331   1.559   3.095  0.4622  0.1216 -0.4118
   71MOL   C28635426   0.217   1.529   3.020  0.0650  0.0652  0.3508
   71MOL   C28735427   0.087   1.516   3.082 -0.6760 -0.3902  0.2966
   71MOL   C28835428   0.072   1.543   3.219 -0.3438 -0.8504  0.2612
   71MOL   C28935429   0.182   1.584   3.289  0.7353  0.4554 -0.7607
   71MOL   H29035430   0.493   1.374   3.528  0.2433  3.5096 -2.4302
   71MOL   H29135431   0.622   1.297   3.617 -0.2057 -0.8738 -2.6373
   71MOL   H29235432   0.859   1.436   3.629  2.1563  0.0371 -2.9495
   71MOL   H29335433   0.789   1.592   3.640 -0.9934 -0.7256  0.8523
   71MOL   H29435434   0.890   1.549   3.501 -0.4642  1.0157 -0.7796
   71MOL   H29535435   0.377   1.711   3.394  0.9396  0.5173  0.1508
   71MOL   H29635436   0.493   1.714   3.255 -0.0572 -0.2619 -1.5000
   71MOL   H29735437   0.422   1.573   3.039  1.5982 -2.3324  0.7376
   71MOL   H29835438   0.224   1.528   2.912  1.8172  2.2000  0.4336
   71MOL   H29935439   8.005   1.505   3.023 -0.5384  2.5485 -0.5451
   71MOL   H30035440   7.983   1.564   3.264  0.2499  1.2077  0.6228
   71MOL   H30135441   0.168   1.610   3.393  0.5655 -1.8699 -0.1713
   71MOL   C30235442   0.755   1.339   3.400 -0.2907  0.1643  0.1204
   71MOL   C30335443   0.709   1.289   3.255  0.6578 -0.3043  0.3275
   71MOL   C30435444   0.718   1.411   3.157  0.1795 -0.0495  0.1128
   71MOL   C30535445   0.559   1.248   3.251 -0.1531 -0.3909  0.0986
   71MOL   O30635446   0.503   1.201   3.349  0.5496  0.2814 -0.1490
   71MOL   O30735447   0.501   1.247   3.129  0.2140 -0.1254 -0.2020
   71MOL   C30835448   0.364   1.205   3.112 -0.2514 -0.7253 -0.0581
   71MOL   C30935449   0.369   1.066   3.060  0.1405  0.3029 -0.6060
   71MOL   C31035450   0.336   0.949   3.134  0.1029 -0.6512  0.7644
   71MOL   C31135451   0.373   0.823   3.082 -0.0743  0.9761 -0.2470
   71MOL   C31235452   0.413   0.814   2.945  0.9752 -0.1798 -0.3643
   71MOL   C31335453   0.431   0.927   2.870 -0.1130 -0.0695  0.1367
   71MOL   C31435454   0.421   1.051   2.933  0.5115  0.4028  0.2887
   71MOL   H31535455   0.750   1.249   3.462  2.9645  0.6446  1.1950
   71MOL   H31635456   0.861   1.363   3.394 -0.6535  1.7714 -0.1128
   71MOL   H31735457   0.781   1.481   3.211  0.3942 -1.6629  1.9782
   71MOL   H31835458   0.624   1.467   3.152 -0.2826 -0.7890  0.4661
   71MOL   H31935459   0.759   1.390   3.058 -2.0968 -0.3639 -0.7961
   71MOL   H32035460   0.320   1.221   3.210 -0.2279 -0.7587 -0.0423
   71MOL   H32135461   0.308   1.256   3.033  0.0618 -0.7614 -0.3053
   71MOL   H32235462   0.314   0.967   3.238 -2.4639  0.5562  0.0345
   71MOL   H32335463   0.357   0.738   3.147  0.5121  0.2795 -0.9964
   71MOL   H32435464   0.431   0.714   2.909  0.8458 -1.4632  2.9226
   71MOL   H32535465   0.465   0.923   2.767  3.3593  1.4556  1.1737
   71MOL   H32635466   0.453   1.139   2.878  1.9141  1.1100  2.1692
   71MOL   C32735467   0.799   1.176   3.194 -0.1879  0.2920 -0.6024
   71MOL   C32835468   0.830   1.043   3.273 -0.3617 -1.0403  0.3798
   71MOL   C32935469   0.697   0.976   3.322  0.2082 -0.1391 -0.1303
   71MOL   C33035470   0.927   1.069   3.394 -0.3203  0.1780 -0.2331
   71MOL   O33135471   0.890   1.043   3.511 -0.2062  0.7396  0.0700
   71MOL   O33235472   1.044   1.121   3.365  0.2440  0.4075  0.3978
   71MOL   C33335473   1.139   1.133   3.463 -0.0104  0.1533 -0.0103
   71MOL   C33435474   1.285   1.141   3.408  0.0414 -0.2472  0.2359
   71MOL   C33535475   1.382   1.050   3.452  0.0591  0.2125 -0.7164
   71MOL   C33635476   1.516   1.070   3.417 -0.2906 -0.6515 -0.0016
   71MOL   C33735477   1.557   1.176   3.335  0.2358 -0.5642  0.4257
   71MOL   C33835478   1.451   1.262   3.292 -0.3154 -0.1526 -0.3436
   71MOL   C33935479   1.316   1.244   3.323 -0.5553  0.1918  0.2821
   71MOL   H34035480   0.894   1.223   3.166  0.8462 -0.4316  1.5865
   71MOL   H34135481   0.761   1.155   3.094  0.2117  1.6685 -1.0650
   71MOL   H34235482   0.714   0.873   3.353  0.0326 -0.8522 -2.3041
   71MOL   H34335483   0.623   0.969   3.242  0.8516 -1.0645 -0.6638
   71MOL   H34435484   0.660   1.031   3.408 -0.3519  0.0367 -0.4787
   71MOL   H34535485   1.130   1.226   3.520 -0.6032 -0.2983  0.6392
   71MOL   H34635486   1.121   1.046   3.526  0.0258 -1.2896 -1.9621
   71MOL   H34735487   1.363   0.969   3.521 -0.1934 -0.5971 -1.7229
   71MOL   H34835488   1.593   1.012   3.466  2.2560  1.9013 -0.8269
   71MOL   H34935489   1.654   1.193   3.291 -0.3394 -0.0659 -0.6689
   71MOL   H35035490   1.478   1.346   3.229 -1.8982 -0.5936 -1.6456
   71MOL   H35135491   1.243   1.312   3.281  0.3953  0.5198 -0.8451
   71MOL   C35235492   0.909   0.940   3.177  0.0958 -0.0213 -0.4466
   71MOL   C35335493   0.844   0.847   3.074 -0.7899 -0.7186 -0.0742
   71MOL   C35435494   0.743   0.933   2.994  0.3452  0.8809  0.3430
   71MOL   C35535495   0.776   0.724   3.138 -0.3055  0.9755 -0.3095
   71MOL   O35635496   0.809   0.686   3.252  0.6079  0.9329  0.0183
   71MOL   O35735497   0.680   0.661   3.059  0.7923  0.4950  0.1920
   71MOL   C35835498   0.603   0.557   3.113 -0.6697  0.7271 -0.0107
   71MOL   C35935499   0.666   0.415   3.088 -0.4288  0.4387 -0.5191
   71MOL   C36035500   0.630   0.303   3.162 -0.2324  1.3139  0.3646
   71MOL   C36135501   0.692   0.179   3.133 -0.1599  0.0501  0.9857
   71MOL   C36235502   0.795   0.165   3.038  0.5309 -0.3233  0.0666
   71MOL   C36335503   0.834   0.275   2.965  0.3423 -0.7509 -0.4254
   71MOL   C36435504   0.773   0.402   2.991  0.1508 -0.0414 -0.4419
   71MOL   H36535505   0.968   0.877   3.243  1.3067  1.8419  0.3148
   71MOL   H36635506   0.990   0.997   3.131 -1.3759  2.2119 -0.3617
   71MOL   H36735507   0.791   1.012   2.935  1.6200  0.9534  1.4633
   71MOL   H36835508   0.665   0.984   3.050  0.6608 -0.6423  2.1862
   71MOL   H36935509   0.697   0.869   2.919  2.1470  0.3187 -0.3141
   71MOL   H37035510   0.590   0.575   3.220 -0.9059  1.3682 -0.1440
   71MOL   H37135511   0.508   0.552   3.059 -1.9157  0.7877  2.1374
   71MOL   H37235512   0.555   0.308   3.240 -0.3519  0.0678  0.3416
   71MOL   H37335513   0.679   0.092   3.195  1.2299 -0.2547  0.8578
   71MOL   H37435514   0.852   0.074   3.026  1.2765 -0.1501  2.0724
   71MOL   H37535515   0.921   0.264   2.903  1.4624  0.4690  0.8892
   71MOL   H37635516   0.793   0.492   2.936 -2.0823  2.1898  2.2104
   71MOL   C37735517   0.945   0.797   2.958  0.7679  0.1205  0.6003
   71MOL   C37835518   1.090   0.732   2.989 -0.4674 -0.4835 -0.3591
   71MOL   C37935519   1.080   0.604   3.079 -0.7912  0.2865 -0.2893
   71MOL   C38035520   1.183   0.836   3.058 -0.6240 -0.0427 -0.3219
   71MOL   O38135521   1.217   0.822   3.178  0.1252  0.9591  0.1813
   71MOL   O38235522   1.223   0.941   2.983  0.1054  0.3451 -0.1543
   71MOL   C38335523   1.296   1.054   3.033  0.3343 -0.2371 -0.2553
   71MOL   C38435524   1.257   1.195   2.988 -0.2853 -0.2421 -0.3613
   71MOL   C38535525   1.122   1.222   2.963 -0.0108  0.2877  0.5013
   71MOL   C38635526   1.094   1.343   2.908  0.3245 -0.0717  0.3851
   71MOL   C38735527   1.191   1.434   2.860 -0.6206  0.5001 -0.1747
   71MOL   C38835528   1.326   1.410   2.896 -0.1817 -0.0601 -0.3860
   71MOL   C38935529   1.358   1.289   2.958 -0.0474 -0.6652  0.2388
   71MOL   H39035530   0.970   0.886   2.901  3.1823  0.9255  2.7632
   71MOL   H39135531   0.894   0.730   2.889 -0.2844 -0.7189  2.1651
   71MOL   H39235532   1.021   0.525   3.031 -0.3952 -0.3506  0.2647
   71MOL   H39335533   1.027   0.633   3.170  1.2796  0.9066  0.7511
   71MOL   H39435534   1.182   0.572   3.099 -1.1589 -0.0221  1.1542
   71MOL   H39535535   1.285   1.053   3.141  2.4085 -0.7377 -0.0264
   71MOL   H39635536   1.401   1.037   3.011  0.8398  2.6830 -0.3034
   71MOL   H39735537   1.043   1.150   2.978  0.5688 -0.3229  0.6383
   71MOL   H39835538   0.990   1.362   2.886  0.0515 -1.1252  0.7667
   71MOL   H39935539   1.166   1.525   2.807  1.1122  1.3977  0.4989
   71MOL   H40035540   1.406   1.479   2.871 -2.0858  2.4371  0.2024
   71MOL   H40135541   1.460   1.265   2.985 -0.8284 -2.1476  2.0283
   71MOL   C40235542   1.141   0.690   2.845 -0.5881  0.3066  0.2885
   71MOL   C40335543   1.271   0.610   2.800  0.2599  0.0798 -0.2761
   71MOL   C40435544   1.398   0.668   2.870  0.0130 -0.2915  0.1572
   71MOL   C40535545   1.286   0.640   2.649 -0.8997 -0.6981  0.1663
   71MOL   O40635546   1.382   0.704   2.598 -0.1480 -0.0379  0.2006
   71MOL   O40735547   1.190   0.591   2.581 -0.0935 -0.0252  0.0300
   71MOL   C40835548   1.187   0.606   2.442  0.6734  0.2451  0.6635
   71MOL   C40935549   1.089   0.715   2.403  0.1490  0.2672 -0.4886
   71MOL   C41035550   0.980   0.672   2.335  0.0504 -0.5644  0.2032
   71MOL   C41135551   0.884   0.769   2.284 -0.6695 -0.0438  0.2339
   71MOL   C41235552   0.890   0.903   2.320 -0.1471 -0.9996 -0.4315
   71MOL   C41335553   1.008   0.954   2.389 -0.0260 -0.3681 -0.1525
   71MOL   C41435554   1.103   0.857   2.433 -0.6095  0.7900 -0.5149
   71MOL   H41535555   1.129   0.782   2.787  5.3079  0.1058 -1.5964
   71MOL   H41635556   1.056   0.627   2.821 -1.0079  1.4237 -1.2754
   71MOL   H41735557   1.490   0.635   2.824  1.5649  1.6777  1.7538
   71MOL   H41835558   1.393   0.644   2.977  0.3094  0.7763  0.4155
   71MOL   H41935559   1.385   0.776   2.865 -1.9431 -0.5383 -0.5509
   71MOL   H42035560   1.289   0.624   2.409 -0.0857  0.4336 -1.7014
   71MOL   H42135561   1.172   0.511   2.391  1.4688 -0.2956  1.4304
   71MOL   H42235562   0.963   0.568   2.311  0.1860 -0.0439 -2.2416
   71MOL   H42335563   0.795   0.730   2.237 -0.2911  0.0376 -0.5654
   71MOL   H42435564   0.822   0.976   2.280 -0.3856 -0.7490  0.4338
   71MOL   H42535565   1.031   1.056   2.417 -1.3637  0.2187 -1.1371
   71MOL   H42635566   1.195   0.880   2.484  0.0975 -1.4764 -0.6824
   71MOL   C42735567   1.245   0.458   2.825  0.2822  0.0165 -0.4748
   71MOL   C42835568   1.342   0.341   2.784 -1.1579 -0.3181 -0.0703
   71MOL   C42935569   1.247   0.221   2.800  0.6267  0.3725 -0.7826
   71MOL   C43035570   1.450   0.334   2.896 -0.1190 -0.0408 -0.0754
   71MOL   O43135571   1.567   0.370   2.873 -0.4161 -0.1713  0.2470
   71MOL   O43235572   1.406   0.294   3.019 -0.2765 -0.2227  0.0362
   71MOL   C43335573   1.490   0.318   3.135  0.0513  0.3192  0.3723
   71MOL   C43435574   1.526   0.463   3.168  0.2391  0.4726  0.1651
   71MOL   C43535575   1.441   0.542   3.239 -0.0257 -0.1065 -0.9180
   71MOL   C43635576   1.481   0.666   3.291 -0.5933 -0.1400 -0.0971
   71MOL   C43735577   1.611   0.718   3.273  0.2148  1.0368  0.2792
   71MOL   C43835578   1.695   0.637   3.190  0.2146  0.3860  0.4106
   71MOL   C43935579   1.654   0.514   3.138 -0.2465 -0.4652  0.9708
   71MOL   H44035580   1.148   0.434   2.780  0.2440  0.2225 -0.5025
   71MOL   H44135581   1.229   0.437   2.930 -0.8210 -0.6555 -0.7696
   71MOL   H44235582   1.300   0.126   2.798  1.7128  0.9770 -1.2893
   71MOL   H44335583   1.182   0.215   2.713 -1.8698  0.4969  1.0079
   71MOL   H44435584   1.190   0.220   2.893 -1.1766  1.0835 -1.8649
   71MOL   H44535585   1.435   0.276   3.219  1.1039  1.2209  1.5387
   71MOL   H44635586   1.578   0.256   3.115  0.4811  1.2174 -0.5695
   71MOL   H44735587   1.340   0.511   3.261  0.5590 -3.1476 -2.2802
   71MOL   H44835588   1.406   0.718   3.349 -0.2974  0.2994 -0.1060
   71MOL   H44935589   1.638   0.805   3.331 -0.8955  1.1275  0.6733
   71MOL   H45035590   1.790   0.677   3.157 -0.8120  1.6030 -1.1702
   71MOL   H45135591   1.736   0.465   3.087 -0.7496  0.4776 -0.7988
   71MOL   C45235592   1.391   0.346   2.630  0.1916 -0.6760 -0.5709
   71MOL   C45335593   1.449   0.219   2.555  0.0987 -0.2640  0.4307
   71MOL   C45435594   1.528   0.267   2.427 -0.4337 -0.0007  0.2595
   71MOL   C45535595   1.339   0.124   2.492 -0.2864 -0.9952  0.8080
   71MOL   O45635596   1.319   0.003   2.524  0.2585 -0.0842 -0.7078
   71MOL   O45735597   1.263   0.188   2.384  0.3228  0.1717 -0.1298
   71MOL   C45835598   1.161   0.120   2.327 -0.0899  0.0903 -0.2883
   71MOL   C45935599   1.027   0.171   2.377 -0.0759 -0.1498  0.5424
   71MOL   C46035600   0.942   0.248   2.294  0.0219  0.0718  0.2025
   71MOL   C46135601   0.817   0.287   2.339 -0.2474  0.3848 -0.5279
   71MOL   C46235602   0.777   0.266   2.473 -0.4778 -0.3159 -0.0459
   71MOL   C46335603   0.865   0.197   2.566  0.0220  0.2523 -0.1750
   71MOL   C46435604   0.987   0.148   2.515  0.0146 -0.4428 -0.8916
   71MOL   H46535605   1.469   0.422   2.623 -0.9526  1.0848  4.1190
   71MOL   H46635606   1.309   0.381   2.568 -0.2942 -1.8229 -0.5841
   71MOL   H46735607   1.615   0.318   2.468 -0.3903  1.3402 -1.4355
   71MOL   H46835608   1.472   0.344   2.375  0.1939 -0.2495 -0.8036
   71MOL   H46935609   1.549   0.199   2.344 -1.2494  0.1264 -0.0568
   71MOL   H47035610   1.160   0.141   2.220 -0.8378 -0.0013 -0.3007
   71MOL   H47135611   1.157   0.012   2.342 -1.2878  0.0910 -0.6088
   71MOL   H47235612   0.962   0.274   2.191  2.9843  2.0078  1.1996
   71MOL   H47335613   0.761   0.354   2.275  2.2508 -0.4298 -3.6847
   71MOL   H47435614   0.680   0.310   2.493 -0.3491  0.3674 -0.8961
   71MOL   H47535615   0.837   0.173   2.668 -1.1319 -0.9628 -0.7632
   71MOL   H47635616   1.052   0.100   2.587 -0.5729  1.4825  0.9984
   71MOL   C47735617   1.556   0.139   2.638  0.4392 -0.0211  0.1188
   71MOL   C47835618   1.635   0.030   2.564  0.3875 -0.0879 -0.2207
   71MOL   C47935619   1.633   7.905   2.648 -0.3100 -0.4796 -0.2199
   71MOL   C48035620   1.777   0.067   2.536 -0.0820 -0.0620 -0.2403
   71MOL   O48135621   1.860   0.063   2.624  0.1721  0.2427 -0.5117
   71MOL   O48235622   1.801   0.096   2.412 -0.2712  0.7346 -0.0259
   71MOL   C48335623   1.918   0.160   2.376 -0.4483 -0.0533  0.6742
   71MOL   C48435624   1.983   0.105   2.252  0.6883  0.6116 -0.0531
   71MOL   C48535625   2.039   0.193   2.160 -0.1938  0.0293 -0.3266
   71MOL   C48635626   2.099   0.148   2.039 -0.5715 -0.1974  0.0544
   71MOL   C48735627   2.090   0.014   2.006 -0.0155 -0.3864  0.1429
   71MOL   C48835628   2.020   7.927   2.089  0.2010 -0.4205  0.2003
   71MOL   C48935629   1.966   7.976   2.210 -0.3629  0.0794  0.1241
   71MOL   H49035630   1.504   0.083   2.716  1.1187 -2.2145 -0.9783
   71MOL   H49135631   1.611   0.211   2.698 -1.6799  1.3472  0.4778
   71MOL   H49235632   1.662   7.918   2.752 -0.4119  2.2647 -0.4833
   71MOL   H49335633   1.692   7.829   2.596  0.6926  0.1813 -0.0654
   71MOL   H49435634   1.529   7.882   2.667 -0.2560  0.4619  1.2904
   71MOL   H49535635   1.897   0.266   2.367  2.2430  0.4432 -0.3717
   71MOL   H49635636   1.994   0.141   2.452 -1.7849  2.8829  2.8371
   71MOL   H49735637   2.051   0.298   2.183  1.9066 -0.0017 -1.1586
   71MOL   H49835638   2.159   0.214   1.979  0.9709 -2.1360 -0.5926
   71MOL   H49935639   2.121   7.977   1.912 -0.3614 -0.6520  0.1526
   71MOL   H50035640   2.013   7.824   2.055 -0.9669 -1.0169  2.1405
   71MOL   H50135641   1.909   7.908   2.271  1.6864  0.2883  2.3600
   71MOL   H50235642   1.580   0.010   2.473 -0.7032 -2.5023  0.9357
   72MOL     C135643   5.998   2.921   1.034  0.8062  0.0130 -0.7114
   72MOL     C235644   6.111   2.934   1.137 -0.5734 -0.5997  0.0687
   72MOL     C335645   6.228   2.871   1.062 -0.0517  0.0501  0.8163
   72MOL     C435646   6.074   2.862   1.267 -0.9232 -0.9674 -0.7612
   72MOL     O535647   5.965   2.815   1.286  0.7614  0.0407 -0.1930
   72MOL     O635648   6.174   2.843   1.355  0.6413 -0.2744  0.5515
   72MOL     C735649   6.134   2.776   1.480 -0.6456 -0.0759  0.1572
   72MOL     C835650   6.244   2.782   1.586 -0.2219  0.0784  0.3847
   72MOL     C935651   6.300   2.665   1.631 -0.1778  0.2882  0.5724
   72MOL    C1035652   6.416   2.665   1.705  0.4442 -0.5965  0.3036
   72MOL    C1135653   6.481   2.781   1.738 -0.3730 -0.7169  0.0101
   72MOL    C1235654   6.414   2.902   1.714  0.6343 -0.7147 -0.6063
   72MOL    C1335655   6.298   2.905   1.632 -0.1005  0.1653  0.3010
   72MOL    H1435656   5.988   2.817   1.001 -1.3434  0.1622 -0.6407
   72MOL    H1535657   5.902   2.961   1.067  1.0258  0.8552 -1.0754
   72MOL    H1635658   6.234   2.904   0.958  1.9757 -0.8424  0.6352
   72MOL    H1735659   6.209   2.765   1.045 -2.1514  0.2460  1.7155
   72MOL    H1835660   6.331   2.870   1.096  0.2016 -0.5000  0.0468
   72MOL    H1935661   6.047   2.828   1.520 -0.1073 -0.4149  1.8229
   72MOL    H2035662   6.098   2.673   1.476  2.5354 -1.1957 -0.9729
   72MOL    H2135663   6.257   2.566   1.620  2.7835 -1.2393  2.0675
   72MOL    H2235664   6.451   2.566   1.732 -1.4938 -1.3052  0.2966
   72MOL    H2335665   6.562   2.777   1.809  0.7303 -1.5557 -1.3076
   72MOL    H2435666   6.455   2.985   1.771  2.4953  0.2245 -3.1829
   72MOL    H2535667   6.245   2.997   1.612  0.2379  0.2473 -0.2033
   72MOL    H2635668   6.015   2.975   0.941 -0.0900  2.1159  0.3167
   72MOL    C2735669   6.152   3.084   1.170  0.3276  0.0925  0.8320
   72MOL    C2835670   6.067   3.200   1.236  0.2352  0.3068 -0.1548
   72MOL    C2935671   6.050   3.175   1.389 -0.5216  0.3001  0.3011
   72MOL    C3035672   5.922   3.205   1.177 -0.0444  0.3388  0.1645
   72MOL    O3135673   5.823   3.195   1.248  0.2307  0.4126  0.2415
   72MOL    O3235674   5.925   3.226   1.045 -0.2512 -0.0729  0.5665
   72MOL    C3335675   5.801   3.232   0.973  0.3513  0.2290  0.5190
   72MOL    C3435676   5.737   3.369   0.992  1.1961  1.1416  0.3333
   72MOL    C3535677   5.786   3.481   0.921  0.3336 -0.0631  0.1677
   72MOL    C3635678   5.718   3.605   0.938 -0.5130 -0.1674  0.0122
   72MOL    C3735679   5.611   3.620   1.023  1.2930  0.6127 -0.5434
   72MOL    C3835680   5.553   3.503   1.074  0.2672  0.7430  0.3901
   72MOL    C3935681   5.623   3.383   1.079  0.2107  0.2524  0.1118
   72MOL    H4035682   6.202   3.124   1.081 -0.9201  0.0041  0.0789
   72MOL    H4135683   6.240   3.071   1.234  1.8768  0.4314 -1.1582
   72MOL    H4235684   5.994   3.086   1.418 -1.1176  0.5326 -0.1163
   72MOL    H4335685   5.988   3.254   1.431 -0.8728  0.1396  0.0859
   72MOL    H4435686   6.139   3.168   1.451  0.4451 -0.3383 -1.1557
   72MOL    H4535687   5.821   3.191   0.874 -0.6318 -2.2948  1.3387
   72MOL    H4635688   5.730   3.161   1.014  0.8599 -0.3698  0.3661
   72MOL    H4735689   5.868   3.474   0.852 -0.9479 -0.7328 -1.3141
   72MOL    H4835690   5.758   3.696   0.895 -1.3092 -0.3879 -1.1984
   72MOL    H4935691   5.559   3.714   1.033 -0.8964 -0.7427  1.2149
   72MOL    H5035692   5.459   3.500   1.129 -0.4765 -2.4175 -0.9442
   72MOL    H5135693   5.580   3.304   1.139 -1.4107  0.9514 -0.1111
   72MOL    C5235694   6.126   3.338   1.197 -0.2384  0.4933 -0.8579
   72MOL    C5335695   6.279   3.378   1.220  0.2946 -0.0356  0.0140
   72MOL    C5435696   6.396   3.288   1.158  0.1447 -0.7203 -0.0196
   72MOL    C5535697   6.308   3.397   1.373 -0.5658  0.1668 -0.1706
   72MOL    O5635698   6.398   3.335   1.432  0.2649 -0.4232  0.3670
   72MOL    O5735699   6.218   3.476   1.436  0.2272  0.0028  0.3173
   72MOL    C5835700   6.226   3.496   1.577  0.5050  0.6378 -0.2133
   72MOL    C5935701   6.132   3.406   1.654 -0.5213 -0.9517 -0.5083
   72MOL    C6035702   6.181   3.278   1.709 -0.2164  0.0454  0.2113
   72MOL    C6135703   6.087   3.192   1.780  0.4434  0.9565 -0.2326
   72MOL    C6235704   5.955   3.230   1.800  0.3087  0.2508 -0.2295
   72MOL    C6335705   5.908   3.339   1.735 -0.3681  0.4133  0.5311
   72MOL    C6435706   5.992   3.431   1.663  0.8295  0.1667 -0.0749
   72MOL    H6535707   6.070   3.413   1.253  1.3551 -0.5225  2.2034
   72MOL    H6635708   6.117   3.347   1.088  1.4117 -1.7934 -1.2291
   72MOL    H6735709   6.501   3.312   1.175  0.1268  0.8309 -1.9757
   72MOL    H6835710   6.384   3.279   1.050  2.9205  0.5103 -0.4853
   72MOL    H6935711   6.392   3.184   1.190  1.3447 -0.6148  0.4945
   72MOL    H7035712   6.332   3.486   1.602  0.4432  1.0592  0.2209
   72MOL    H7135713   6.200   3.599   1.601  0.9105  1.2638 -2.3594
   72MOL    H7235714   6.287   3.256   1.701 -0.0545  0.9294 -0.1154
   72MOL    H7335715   6.124   3.102   1.825  3.7989  0.8358 -2.9900
   72MOL    H7435716   5.890   3.169   1.861  1.6713 -2.3775 -1.2963
   72MOL    H7535717   5.809   3.376   1.757  0.6772  2.1625  2.4803
   72MOL    H7635718   5.942   3.519   1.625 -1.4785 -1.6330 -1.3845
   72MOL    C7735719   6.274   3.520   1.153  0.0420 -0.0017 -0.4578
   72MOL    C7835720   6.398   3.587   1.086  0.4153 -0.2613  0.6140
   72MOL    C7935721   6.418   3.554   0.938 -0.2401 -0.6914 -0.3160
   72MOL    C8035722   6.531   3.572   1.165 -0.2389 -0.1201 -0.5260
   72MOL    O8135723   6.637   3.528   1.118 -0.2181  0.4767 -0.3038
   72MOL    O8235724   6.527   3.617   1.294  0.0575  0.6202  0.2028
   72MOL    C8335725   6.644   3.616   1.367 -0.4303 -0.1282  0.3676
   72MOL    C8435726   6.629   3.696   1.498 -0.5204  0.6445 -0.0049
   72MOL    C8535727   6.531   3.797   1.511  0.4762 -0.7668  0.5238
   72MOL    C8635728   6.523   3.873   1.627 -0.2484  0.1076 -0.7415
   72MOL    C8735729   6.623   3.862   1.727  0.7858  0.7966  0.2347
   72MOL    C8835730   6.724   3.766   1.711  0.6652  0.1007  0.5527
   72MOL    C8935731   6.728   3.681   1.598 -0.2652  0.0117 -0.4152
   72MOL    H9035732   6.223   3.588   1.221  0.8908  1.1215 -0.9218
   72MOL    H9135733   6.208   3.525   1.067  0.5001 -3.7270 -1.1058
   72MOL    H9235734   6.323   3.546   0.884 -1.1390  0.3748  1.0593
   72MOL    H9335735   6.466   3.457   0.926  1.0533  0.0111 -0.7960
   72MOL    H9435736   6.482   3.618   0.878  0.9933 -1.8829 -0.2828
   72MOL    H9535737   6.678   3.516   1.392 -0.5694 -0.3751 -0.4186
   72MOL    H9635738   6.723   3.654   1.303 -0.1848 -1.0412  0.1169
   72MOL    H9735739   6.459   3.802   1.430  0.5068 -0.8301  0.4924
   72MOL    H9835740   6.439   3.940   1.635 -1.4773 -1.6795  2.3535
   72MOL    H9935741   6.624   3.907   1.825  0.2609 -1.0347  1.0965
   72MOL   H10035742   6.793   3.747   1.792 -0.1572 -0.0838  1.2122
   72MOL   H10135743   6.805   3.607   1.585 -1.1483 -1.3293  1.7979
   72MOL   C10235744   6.383   3.750   1.095 -0.0822  0.3066  0.1673
   72MOL   C10335745   6.250   3.831   1.046  0.3404 -0.0875  0.1858
   72MOL   C10435746   6.280   3.985   1.067  0.3224  0.1187  0.1123
   72MOL   C10535747   6.127   3.806   1.139 -0.2403  0.2441  0.7017
   72MOL   O10635748   6.024   3.768   1.092 -0.1833  0.0713  0.0627
   72MOL   O10735749   6.155   3.827   1.267  0.3477  0.4617  0.3738
   72MOL   C10835750   6.062   3.789   1.363  0.1394 -0.2521  0.3876
   72MOL   C10935751   6.058   3.879   1.487  0.3403  0.2202  0.0178
   72MOL   C11035752   6.155   3.978   1.501  0.6261  0.2705  0.5595
   72MOL   C11135753   6.157   4.067   1.612 -0.8987  0.1659 -0.0515
   72MOL   C11235754   6.048   4.073   1.701 -0.6792 -1.4347  0.1182
   72MOL   C11335755   5.954   3.969   1.695  0.0569  0.2846  0.4364
   72MOL   C11435756   5.958   3.874   1.588 -0.4683 -0.2209  0.8279
   72MOL   H11535757   6.467   3.791   1.039 -1.2021 -0.3822 -2.0659
   72MOL   H11635758   6.407   3.793   1.192  0.8420  0.2848 -0.0522
   72MOL   H11735759   6.295   4.010   1.173 -1.3483  1.0351  0.1490
   72MOL   H11835760   6.197   4.041   1.025  0.2266  0.2347  0.4519
   72MOL   H11935761   6.369   4.020   1.016 -0.3545  1.4418 -0.1968
   72MOL   H12035762   5.964   3.791   1.317  0.5773 -1.9798 -0.6833
   72MOL   H12135763   6.080   3.684   1.389 -0.3489 -0.6539 -0.8472
   72MOL   H12235764   6.239   3.973   1.432 -0.6762  0.8821 -1.1037
   72MOL   H12335765   6.240   4.134   1.630 -0.1238 -0.2416 -1.9498
   72MOL   H12435766   6.059   4.140   1.785 -0.3850 -0.9055 -0.3382
   72MOL   H12535767   5.874   3.955   1.766 -0.2667  4.5225  0.9925
   72MOL   H12635768   5.882   3.798   1.578  0.2161 -0.7518 -0.4459
   72MOL   C12735769   6.218   3.791   0.895 -0.1047  0.0581 -0.6135
   72MOL   C12835770   6.134   3.876   0.793 -0.0212 -0.2012  0.3667
   72MOL   C12935771   5.994   3.922   0.850  0.1232  0.0914 -0.7848
   72MOL   C13035772   6.113   3.783   0.674 -0.2397  0.5199  0.9537
   72MOL   O13135773   5.996   3.748   0.643 -0.5348  0.2182 -0.1591
   72MOL   O13235774   6.221   3.730   0.623  0.1617  0.2002 -0.3290
   72MOL   C13335775   6.208   3.628   0.527 -0.0977  0.2688 -0.2488
   72MOL   C13435776   6.205   3.490   0.579 -0.5401 -0.5599 -0.6576
   72MOL   C13535777   6.318   3.406   0.589 -0.1194  0.1324 -0.7907
   72MOL   C13635778   6.307   3.276   0.645 -0.2788 -0.0425  0.3475
   72MOL   C13735779   6.187   3.227   0.692  0.4438  0.3827  0.7349
   72MOL   C13835780   6.072   3.315   0.691  0.4913  0.2413 -0.2391
   72MOL   C13935781   6.084   3.441   0.628 -0.3725 -0.6498  0.3298
   72MOL   H14035782   6.180   3.689   0.894 -0.2470  0.0419  2.6405
   72MOL   H14135783   6.313   3.774   0.844 -0.7678 -2.8926 -0.9059
   72MOL   H14235784   6.008   3.996   0.929 -3.0924  2.2344 -2.0888
   72MOL   H14335785   5.927   3.845   0.886 -1.5469  2.2629  0.8970
   72MOL   H14435786   5.930   3.967   0.773 -1.5591  1.9326  1.6218
   72MOL   H14535787   6.120   3.646   0.466  2.2316 -0.2262 -3.9595
   72MOL   H14635788   6.301   3.630   0.470 -0.1949  1.3179 -0.3622
   72MOL   H14735789   6.409   3.436   0.538  0.0888 -3.7029 -2.8367
   72MOL   H14835790   6.396   3.221   0.670  0.3918  1.3317  1.0427
   72MOL   H14935791   6.187   3.129   0.737  0.1646 -0.0528 -0.2120
   72MOL   H15035792   5.981   3.270   0.729  0.2761 -0.2956 -1.3621
   72MOL   H15135793   6.002   3.509   0.616  1.1933  1.0810 -0.7452
   72MOL   C15235794   6.225   3.997   0.741 -0.5709  0.0483  0.1008
   72MOL   C15335795   6.172   4.112   0.645  0.1014 -0.0825  0.3680
   72MOL   C15435796   6.091   4.215   0.732 -0.3997  0.7530 -0.5620
   72MOL   C15535797   6.078   4.066   0.526  0.4828 -0.2436  0.2109
   72MOL   O15635798   5.957   4.094   0.523  0.2634 -0.3729  0.5015
   72MOL   O15735799   6.136   3.992   0.429  0.2854 -0.3747 -0.0906
   72MOL   C15835800   6.062   3.934   0.322  0.1145  0.2778 -0.0038
   72MOL   C15935801   6.137   3.943   0.188  0.0367 -0.8299 -0.3712
   72MOL   C16035802   6.101   4.048   0.101  0.0873 -0.1869  0.6915
   72MOL   C16135803   6.158   4.056   7.984  0.6067  0.2918 -0.4624
   72MOL   C16235804   6.251   3.959   7.940  0.2288 -0.0651  0.4925
   72MOL   C16335805   6.277   3.844   0.010 -1.2843 -0.4835 -0.0646
   72MOL   C16435806   6.220   3.837   0.138  0.6951 -0.5996 -0.1001
   72MOL   H16535807   6.317   3.957   0.700 -0.3151  2.5071 -1.8686
   72MOL   H16635808   6.279   4.044   0.823  1.0143  2.0948 -2.0428
   72MOL   H16735809   6.145   4.267   0.811 -1.1569 -1.8792  1.7708
   72MOL   H16835810   6.012   4.154   0.775  0.8932  0.0578  0.8752
   72MOL   H16935811   6.041   4.290   0.672  2.6310  2.3675 -1.1711
   72MOL   H17035812   6.037   3.830   0.340 -0.8826  0.4977 -0.0922
   72MOL   H17135813   5.969   3.990   0.309 -0.3315 -0.6387 -0.7318
   72MOL   H17235814   6.032   4.128   0.124 -2.2918 -1.7891 -0.7050
   72MOL   H17335815   6.136   4.142   7.922  1.2058 -0.1328 -1.2679
   72MOL   H17435816   6.289   3.979   7.841  4.4545  0.4654  2.1358
   72MOL   H17535817   6.338   3.760   7.986 -1.2063 -0.7010  0.6677
   72MOL   H17635818   6.225   3.748   0.199  0.2222 -0.4682  0.1294
   72MOL   C17735819   6.305   4.193   0.599 -0.0802  0.0281  0.2351
   72MOL   C17835820   6.305   4.300   0.477 -0.2696  0.1312 -0.0772
   72MOL   C17935821   6.177   4.376   0.454 -0.8300  0.1215 -0.1226
   72MOL   C18035822   6.330   4.224   0.344 -0.2532  0.0663  0.0446
   72MOL   O18135823   6.273   4.249   0.242 -0.2522  0.3672  0.2408
   72MOL   O18235824   6.435   4.137   0.348 -0.4693 -0.5874 -0.5782
   72MOL   C18335825   6.500   4.084   0.240 -0.0222  0.5172  0.0028
   72MOL   C18435826   6.566   3.948   0.274  0.1173  0.1172  0.3374
   72MOL   C18535827   6.705   3.933   0.259  0.6397  0.1038  0.2221
   72MOL   C18635828   6.767   3.819   0.299 -0.2794 -0.5848 -0.8626
   72MOL   C18735829   6.696   3.712   0.353  1.0059 -0.3181  0.3652
   72MOL   C18835830   6.559   3.726   0.368  0.2239 -0.4719  0.2684
   72MOL   C18935831   6.492   3.844   0.340 -0.9033  0.6293 -0.1839
   72MOL   H19035832   6.386   4.122   0.581  1.0365  0.9601  1.5166
   72MOL   H19135833   6.335   4.243   0.691  1.7722 -1.9511  0.7466
   72MOL   H19235834   6.192   4.452   0.378  4.1365 -2.0278 -1.5432
   72MOL   H19335835   6.151   4.427   0.546 -1.7451 -0.5905  0.0213
   72MOL   H19435836   6.085   4.322   0.433 -0.7429 -0.0259 -0.1333
   72MOL   H19535837   6.432   4.059   0.159 -0.8875 -0.3271  0.9798
   72MOL   H19635838   6.584   4.149   0.216  0.1932  0.6701  1.1195
   72MOL   H19735839   6.768   4.014   0.224  2.3030 -1.5338 -0.6553
   72MOL   H19835840   6.875   3.812   0.297 -0.1180 -0.9283  3.5055
   72MOL   H19935841   6.749   3.620   0.375  0.1054 -0.5970  1.4133
   72MOL   H20035842   6.514   3.641   0.418  1.7114  0.5688  3.5186
   72MOL   H20135843   6.385   3.858   0.350 -1.2447 -0.2773 -2.2063
   72MOL   C20235844   6.432   4.392   0.492 -0.4429 -0.2321  0.0056
   72MOL   C20335845   6.444   4.528   0.580 -0.5990  0.2828 -0.8849
   72MOL   C20435846   6.413   4.496   0.726 -0.0824 -0.1792 -0.1769
   72MOL   C20535847   6.339   4.631   0.529  0.5418 -0.0005  0.4144
   72MOL   O20635848   6.248   4.685   0.599 -0.1274  0.6908  0.5150
   72MOL   O20735849   6.354   4.647   0.399 -0.4990 -0.1191  0.1964
   72MOL   C20835850   6.258   4.713   0.318 -0.0319 -0.0389  0.2322
   72MOL   C20935851   6.285   4.696   0.167  0.1056  0.5038 -0.1051
   72MOL   C21035852   6.405   4.632   0.118  1.0357  0.2026 -0.5246
   72MOL   C21135853   6.426   4.620   7.983 -0.3471  0.2484 -0.0710
   72MOL   C21235854   6.334   4.667   7.899  0.3016 -0.0396  0.2622
   72MOL   C21335855   6.219   4.733   7.939  0.3418 -0.4415  0.7860
   72MOL   C21435856   6.196   4.749   0.071  0.5184  0.0815 -0.6956
   72MOL   H21535857   6.460   4.420   0.390  0.9967 -0.0787  0.4345
   72MOL   H21635858   6.511   4.323   0.523  0.2003  0.4668 -0.0566
   72MOL   H21735859   6.471   4.411   0.763  1.5643  1.1002  0.2256
   72MOL   H21835860   6.314   4.450   0.725  0.2445 -0.9967  1.7394
   72MOL   H21935861   6.422   4.577   0.799 -1.0960 -1.3224  1.2528
   72MOL   H22035862   6.156   4.677   0.335 -0.1274 -1.2681 -2.5582
   72MOL   H22135863   6.250   4.821   0.333 -0.4075 -0.4746  3.3230
   72MOL   H22235864   6.477   4.586   0.185 -0.1042 -1.1495 -0.2091
   72MOL   H22335865   6.511   4.566   7.944  1.3050  1.1932  2.0818
   72MOL   H22435866   6.359   4.656   7.794 -2.2436 -0.3146 -0.3577
   72MOL   H22535867   6.147   4.774   7.869  2.5958  0.6157 -0.9613
   72MOL   H22635868   6.111   4.800   0.113 -0.1252 -1.3229 -0.2791
   72MOL   C22735869   6.585   4.577   0.570 -0.0345  0.1378  0.4291
   72MOL   C22835870   6.653   4.693   0.651 -0.0241  0.2209  0.6310
   72MOL   C22935871   6.773   4.714   0.562 -0.6405 -0.1048  0.5612
   72MOL   C23035872   6.686   4.642   0.795 -0.2494  0.1432  0.3699
   72MOL   O23135873   6.620   4.663   0.892  0.0014 -0.4995 -0.1300
   72MOL   O23235874   6.790   4.551   0.799  0.6453  0.6592  0.0243
   72MOL   C23335875   6.842   4.507   0.925 -0.0400  0.2740 -1.0001
   72MOL   C23435876   6.986   4.458   0.917 -0.4018  0.2135  0.0021
   72MOL   C23535877   7.010   4.321   0.926 -0.5662  0.1567 -0.0062
   72MOL   C23635878   7.144   4.269   0.912  0.3678  0.2591 -0.0525
   72MOL   C23735879   7.251   4.364   0.898 -0.6263 -0.1478  0.3662
   72MOL   C23835880   7.225   4.499   0.891  0.2447  1.1659 -0.0050
   72MOL   C23935881   7.093   4.549   0.894  0.4840  0.4108 -0.2259
   72MOL   H24035882   6.595   4.602   0.465 -1.0806  0.5886  0.4362
   72MOL   H24135883   6.660   4.499   0.587  0.1823  0.7051  2.2180
   72MOL   H24235884   6.749   4.732   0.458 -0.1638  1.9416  0.7809
   72MOL   H24335885   6.844   4.632   0.576 -0.6646 -0.0852  0.8191
   72MOL   H24435886   6.850   4.785   0.594  0.5425 -0.4075 -1.5292
   72MOL   H24535887   6.836   4.594   0.990 -2.9498  0.7377 -1.7973
   72MOL   H24635888   6.777   4.431   0.971  0.9243  0.6034  0.9697
   72MOL   H24735889   6.923   4.259   0.943  0.7840 -1.8551 -0.2869
   72MOL   H24835890   7.161   4.163   0.908 -1.4896 -0.0533 -0.0548
   72MOL   H24935891   7.354   4.334   0.893 -0.3366  0.8100  0.5465
   72MOL   H25035892   7.308   4.568   0.880  0.7859  0.8292  1.8292
   72MOL   H25135893   7.075   4.655   0.911 -0.9914 -0.3226  3.1677
   72MOL   C25235894   6.565   4.826   0.645  0.2741 -0.3388  0.2456
   72MOL   C25335895   6.622   4.973   0.671 -0.1913  0.2622  0.2931
   72MOL   C25435896   6.686   5.024   0.544  0.7256 -0.2122 -0.3115
   72MOL   C25535897   6.726   4.981   0.786 -0.1665 -0.4771 -0.0790
   72MOL   O25635898   6.844   5.002   0.754  0.0243  0.6518  0.3106
   72MOL   O25735899   6.685   4.947   0.908  0.6993  0.0967 -0.2060
   72MOL   C25835900   6.777   4.913   1.012 -1.2807 -0.3467 -0.4469
   72MOL   C25935901   6.828   5.039   1.088 -0.2807  0.4515 -0.2481
   72MOL   C26035902   6.752   5.096   1.191 -0.3356 -0.1332  0.4091
   72MOL   C26135903   6.790   5.214   1.251  0.7965  0.4172 -0.3743
   72MOL   C26235904   6.913   5.263   1.206 -0.5118  0.0169 -0.5905
   72MOL   C26335905   6.995   5.213   1.102 -0.5008  0.0788 -0.0326
   72MOL   C26435906   6.946   5.094   1.045 -0.2740 -0.3747  0.4706
   72MOL   H26535907   6.476   4.821   0.707  0.2778  1.5493  0.4425
   72MOL   H26635908   6.501   4.830   0.556 -1.3425  0.6889  1.4228
   72MOL   H26735909   6.608   5.046   0.471 -1.1354 -2.1234  1.0104
   72MOL   H26835910   6.756   4.955   0.497  0.9995 -0.1051 -0.0650
   72MOL   H26935911   6.735   5.119   0.565 -0.6857  0.4551  0.0309
   72MOL   H27035912   6.716   4.850   1.076 -0.1663  0.1434  1.1372
   72MOL   H27135913   6.866   4.853   0.994  0.4919  1.7673  1.0351
   72MOL   H27235914   6.659   5.053   1.226  0.1754 -0.2710  1.6203
   72MOL   H27335915   6.730   5.252   1.333  0.4816  1.5703 -1.1257
   72MOL   H27435916   6.943   5.359   1.245  0.2803 -0.8032  0.8358
   72MOL   H27535917   7.091   5.251   1.071 -0.6545  0.0278 -0.5733
   72MOL   H27635918   6.993   5.043   0.962 -1.3701 -1.3897  0.4516
   72MOL   C27735919   6.501   5.066   0.709 -0.5992 -0.0050  0.7073
   72MOL   C27835920   6.496   5.227   0.717 -0.4845 -0.5141 -0.6197
   72MOL   C27935921   6.356   5.244   0.782  0.4665 -0.1700  0.6077
   72MOL   C28035922   6.494   5.290   0.577  0.4059  0.4030  0.1655
   72MOL   O28135923   6.596   5.311   0.518 -0.2953 -0.0047 -0.4971
   72MOL   O28235924   6.369   5.308   0.521  0.3277 -0.1041  0.1427
   72MOL   C28335925   6.359   5.379   0.394  0.3084  0.2275  0.3734
   72MOL   C28435926   6.337   5.275   0.280  0.2786  0.3188  0.2954
   72MOL   C28535927   6.222   5.294   0.201  0.1410  0.8209  0.1492
   72MOL   C28635928   6.194   5.192   0.108  0.6518 -0.0192 -0.3979
   72MOL   C28735929   6.275   5.083   0.086 -0.8490  0.2760  0.4304
   72MOL   C28835930   6.394   5.069   0.164 -0.1672 -0.1529 -0.3768
   72MOL   C28935931   6.420   5.166   0.259  0.4783  0.7994 -0.5855
   72MOL   H29035932   6.448   5.025   0.795 -1.6053 -1.6061 -0.6415
   72MOL   H29135933   6.426   5.036   0.636 -0.1431  0.1343  0.1858
   72MOL   H29235934   6.308   5.339   0.761  0.2065 -0.3185  0.5183
   72MOL   H29335935   6.368   5.241   0.891 -0.6336  0.1607  0.7429
   72MOL   H29435936   6.281   5.171   0.750  1.2022 -0.9050  0.5422
   72MOL   H29535937   6.269   5.441   0.404  0.0423  0.4077 -2.7196
   72MOL   H29635938   6.447   5.442   0.381  0.9003 -0.0763  2.7294
   72MOL   H29735939   6.142   5.365   0.212 -2.3373 -1.6122 -1.5387
   72MOL   H29835940   6.105   5.207   0.048  1.1872  2.2249 -0.6432
   72MOL   H29935941   6.247   5.001   0.021  1.5288 -1.0388  0.9908
   72MOL   H30035942   6.471   4.994   0.156  0.5338  0.3241  1.6009
   72MOL   H30135943   6.515   5.162   0.310  1.2723 -0.2551 -2.1080
   72MOL   C30235944   6.609   5.284   0.804 -0.6803 -0.4636  0.3632
   72MOL   C30335945   6.629   5.436   0.850 -0.3261 -0.2885 -0.2900
   72MOL   C30435946   6.741   5.429   0.963 -0.3875 -0.4595 -0.2842
   72MOL   C30535947   6.500   5.497   0.913 -0.2975 -0.5814 -0.2455
   72MOL   O30635948   6.427   5.575   0.858  0.3956  0.0514 -0.2762
   72MOL   O30735949   6.480   5.447   1.046 -0.1431  0.3602  0.5075
   72MOL   C30835950   6.386   5.510   1.131 -0.0327  0.2195 -0.0052
   72MOL   C30935951   6.358   5.419   1.259  0.3012  1.0499  0.4455
   72MOL   C31035952   6.229   5.429   1.312  0.0110  0.5495  0.3010
   72MOL   C31135953   6.208   5.356   1.429  0.2018 -0.2490 -0.7339
   72MOL   C31235954   6.307   5.268   1.482 -0.2710  0.0866 -0.0221
   72MOL   C31335955   6.440   5.263   1.438 -0.8500 -0.0533  0.3762
   72MOL   C31435956   6.459   5.335   1.314  0.0448 -0.5057  0.0693
   72MOL   H31535957   6.695   5.238   0.756 -1.2704  0.0750 -1.2270
   72MOL   H31635958   6.589   5.225   0.894 -2.5011  1.1149  1.0330
   72MOL   H31735959   6.750   5.526   1.011 -0.0585 -0.6820  0.1073
   72MOL   H31835960   6.834   5.399   0.914 -0.9761  0.4662 -2.0029
   72MOL   H31935961   6.704   5.359   1.038  0.0652 -0.3670  0.0242
   72MOL   H32035962   6.414   5.612   1.156  1.9171 -0.7024  1.7232
   72MOL   H32135963   6.289   5.522   1.082 -0.4817 -1.6427  0.3839
   72MOL   H32235964   6.158   5.502   1.276 -1.0180  0.2908  1.7570
   72MOL   H32335965   6.106   5.354   1.465  0.3815  0.2750 -0.1942
   72MOL   H32435966   6.277   5.213   1.571  1.8371  0.0406  0.6985
   72MOL   H32535967   6.518   5.193   1.464 -1.9322 -0.7450  1.8519
   72MOL   H32635968   6.557   5.342   1.269  1.1070 -2.3107  1.9456
   72MOL   C32735969   6.690   5.514   0.727 -0.1129 -1.0204 -0.1366
   72MOL   C32835970   6.766   5.656   0.738  0.7569  0.3682 -0.4197
   72MOL   C32935971   6.792   5.695   0.593  0.9095  0.1999  0.2178
   72MOL   C33035972   6.912   5.634   0.799  0.4450  0.1374  0.3507
   72MOL   O33135973   6.946   5.678   0.905 -0.5062 -0.6985  0.5443
   72MOL   O33235974   6.993   5.557   0.715 -0.8581  0.2506 -0.0244
   72MOL   C33335975   7.121   5.525   0.754 -0.1493  0.0494 -0.2230
   72MOL   C33435976   7.221   5.633   0.721  0.1393  0.6838  0.6129
   72MOL   C33535977   7.264   5.645   0.583  0.3360  0.0024  0.0598
   72MOL   C33635978   7.367   5.742   0.554  0.0562 -0.1940 -0.5335
   72MOL   C33735979   7.422   5.820   0.655 -0.7035  1.1634  0.1095
   72MOL   C33835980   7.371   5.814   0.785 -0.6599 -0.0849  0.3823
   72MOL   C33935981   7.274   5.720   0.819 -0.8982  0.4221 -0.4345
   72MOL   H34035982   6.606   5.540   0.662 -0.4826  1.2480  1.1890
   72MOL   H34135983   6.765   5.453   0.677  0.0219 -0.3060 -0.8136
   72MOL   H34235984   6.833   5.612   0.535 -0.1490  0.2648 -0.6438
   72MOL   H34335985   6.865   5.774   0.581 -0.4242  1.4327  0.0205
   72MOL   H34435986   6.696   5.730   0.553  0.6390  0.6489  1.2496
   72MOL   H34535987   7.139   5.503   0.859  0.5983 -1.5585 -0.6724
   72MOL   H34635988   7.141   5.432   0.701 -1.0390 -1.0799  1.4089
   72MOL   H34735989   7.218   5.577   0.513 -1.6978  0.0790  1.2719
   72MOL   H34835990   7.414   5.753   0.457  0.7832 -0.6800 -0.2390
   72MOL   H34935991   7.491   5.897   0.623  0.2508  0.6901  1.0029
   72MOL   H35035992   7.420   5.873   0.861  0.8696 -3.3063  2.0073
   72MOL   H35135993   7.260   5.708   0.926  2.2580  0.4095  0.0367
   72MOL   C35235994   6.670   5.762   0.809 -0.1022 -0.7378 -0.0535
   72MOL   C35335995   6.710   5.914   0.855  0.6466  0.1579 -0.3176
   72MOL   C35435996   6.780   5.975   0.731  0.1126  0.3613  0.1750
   72MOL   C35535997   6.806   5.931   0.987 -0.5031  0.3131 -0.1408
   72MOL   O35635998   6.899   6.008   0.986 -0.3297 -0.0554  0.6999
   72MOL   O35735999   6.766   5.854   1.090 -0.1395  0.3921  0.6854
   72MOL   C35836000   6.836   5.855   1.211 -0.4453 -1.1255 -0.9145
   72MOL   C35936001   6.770   5.767   1.310  0.3641  0.0815 -0.1805
   72MOL   C36036002   6.654   5.806   1.385  0.1580  0.3618  0.0581
   72MOL   C36136003   6.583   5.728   1.479  0.2338  0.8455  0.5683
   72MOL   C36236004   6.625   5.592   1.487  0.2136  0.8205 -0.1781
   72MOL   C36336005   6.734   5.545   1.409  0.2597  0.6716  0.6434
   72MOL   C36436006   6.809   5.634   1.326 -0.9858  0.6903  0.3119
   72MOL   H36536007   6.642   5.705   0.898 -3.6234  0.7429 -0.1491
   72MOL   H36636008   6.589   5.771   0.737  0.3276  0.4328 -0.4038
   72MOL   H36736009   6.886   5.950   0.729  1.3066  4.9276  0.0620
   72MOL   H36836010   6.775   6.081   0.756  2.9351  0.4826  0.3883
   72MOL   H36936011   6.731   5.943   0.639  3.3995 -1.6985 -0.9492
   72MOL   H37036012   6.939   5.818   1.209 -0.5025 -1.3052 -0.4702
   72MOL   H37136013   6.831   5.960   1.240 -0.7665 -1.3739 -0.0578
   72MOL   H37236014   6.614   5.905   1.369 -0.6432  0.0801  0.2611
   72MOL   H37336015   6.503   5.765   1.541 -0.6082 -0.3485  0.2203
   72MOL   H37436016   6.584   5.523   1.559  1.7069 -0.3296 -0.4012
   72MOL   H37536017   6.769   5.443   1.418 -0.2404  0.4750  0.3605
   72MOL   H37636018   6.893   5.600   1.266 -2.0453 -1.0448 -0.2127
   72MOL   C37736019   6.573   6.000   0.867  0.2900 -0.1835 -0.0485
   72MOL   C37836020   6.548   6.132   0.958  0.1227 -0.2591  0.1550
   72MOL   C37936021   6.669   6.231   0.965  0.3874  0.1704 -0.3833
   72MOL   C38036022   6.515   6.071   1.098  0.7007  0.1996 -0.5503
   72MOL   O38136023   6.588   6.090   1.198  0.3171  0.1539 -0.1141
   72MOL   O38236024   6.402   6.008   1.094  0.0725 -0.6575  0.1172
   72MOL   C38336025   6.386   5.924   1.208 -0.0947 -0.2664  0.8190
   72MOL   C38436026   6.249   5.857   1.210  0.0105  0.3287 -0.4850
   72MOL   C38536027   6.197   5.813   1.333  0.2836  0.0088  0.3703
   72MOL   C38636028   6.074   5.746   1.346 -0.7581 -0.2600 -0.4005
   72MOL   C38736029   6.001   5.733   1.227 -0.1275 -0.3513  0.7937
   72MOL   C38836030   6.047   5.783   1.106 -0.1972 -0.0072 -0.2159
   72MOL   C38936031   6.174   5.839   1.090  0.0140  0.0560 -0.7536
   72MOL   H39036032   6.496   5.923   0.879 -3.4611  3.6079  1.3424
   72MOL   H39136033   6.546   6.028   0.765  0.3025  0.7131  0.1913
   72MOL   H39236034   6.772   6.197   0.950  1.1894  2.1346  0.4219
   72MOL   H39336035   6.684   6.280   1.061 -0.5298  1.2496 -0.7749
   72MOL   H39436036   6.659   6.316   0.897  0.1710  0.8360  0.4775
   72MOL   H39536037   6.467   5.851   1.212  0.5473  0.4530  0.9168
   72MOL   H39636038   6.399   5.979   1.300  0.2846  0.9809  0.0230
   72MOL   H39736039   6.268   5.827   1.414  1.6054 -1.2063 -0.5326
   72MOL   H39836040   6.036   5.706   1.439 -0.7630 -0.2600 -0.4027
   72MOL   H39936041   5.904   5.684   1.224 -0.0792 -0.3932 -1.0663
   72MOL   H40036042   5.992   5.777   1.013  0.0162  1.9077 -0.4925
   72MOL   H40136043   6.212   5.856   0.990 -2.3611 -0.8541 -1.8432
   72MOL   C40236044   6.420   6.205   0.900 -0.3172  0.5524 -0.3971
   72MOL   C40336045   6.337   6.325   0.976  0.3047 -0.3730 -0.6166
   72MOL   C40436046   6.257   6.393   0.858  0.0779  0.1186  0.2467
   72MOL   C40536047   6.434   6.425   1.040  0.2635 -0.1350  0.2110
   72MOL   O40636048   6.463   6.426   1.162  0.1113 -0.1281 -0.2212
   72MOL   O40736049   6.489   6.506   0.945  0.1067  0.7231  0.1819
   72MOL   C40836050   6.571   6.616   0.986  0.0938  0.4292  0.0815
   72MOL   C40936051   6.526   6.738   0.913  0.1189  0.0034 -0.7042
   72MOL   C41036052   6.619   6.814   0.831 -0.1028  0.4410 -0.8409
   72MOL   C41136053   6.567   6.920   0.758  0.3191 -0.3814 -0.0884
   72MOL   C41236054   6.435   6.960   0.774  0.0985 -1.5820 -0.0022
   72MOL   C41336055   6.353   6.897   0.866  0.3568 -0.3094 -0.0881
   72MOL   C41436056   6.400   6.786   0.939 -0.2998  0.5605  0.1712
   72MOL   H41536057   6.348   6.140   0.852  0.0289 -0.3327  0.2547
   72MOL   H41636058   6.459   6.250   0.809  0.1024 -1.3349 -1.1821
   72MOL   H41736059   6.204   6.488   0.872  3.1236  1.7879  0.8202
   72MOL   H41836060   6.194   6.323   0.802  2.0955  0.1963 -2.2180
   72MOL   H41936061   6.325   6.429   0.781 -0.5493 -0.8080 -0.7608
   72MOL   H42036062   6.568   6.631   1.093  0.0361  0.6200  0.0537
   72MOL   H42136063   6.674   6.591   0.960  0.3657  1.8718 -0.2580
   72MOL   H42236064   6.717   6.769   0.822  0.8565  1.8908  1.7267
   72MOL   H42336065   6.635   6.969   0.691  0.4842 -1.1067 -0.4529
   72MOL   H42436066   6.401   7.052   0.729 -1.0489 -1.1041  1.8114
   72MOL   H42536067   6.250   6.925   0.877  0.2825 -0.9427  0.8850
   72MOL   H42636068   6.335   6.731   1.005 -1.1434 -2.5838 -3.1255
   72MOL   C42736069   6.245   6.265   1.083  0.7168  1.1991  0.3523
   72MOL   C42836070   6.104   6.313   1.138 -0.1633  0.1414 -0.3179
   72MOL   C42936071   5.996   6.283   1.024  0.5228 -0.0594 -0.5027
   72MOL   C43036072   6.113   6.469   1.161  0.4347 -0.1455  0.1102
   72MOL   O43136073   6.066   6.553   1.086  0.1265  0.3615  0.1934
   72MOL   O43236074   6.190   6.504   1.268 -0.2120  0.6521  0.3660
   72MOL   C43336075   6.201   6.636   1.301  0.0025 -0.7934  0.3317
   72MOL   C43436076   6.237   6.666   1.443  0.0968 -0.6566  0.2691
   72MOL   C43536077   6.144   6.710   1.534  0.3554  0.2643 -0.1391
   72MOL   C43636078   6.176   6.742   1.666  0.0525 -0.0159 -0.2198
   72MOL   C43736079   6.307   6.723   1.713  0.2905  0.4926  0.5135
   72MOL   C43836080   6.405   6.683   1.621 -0.7048  0.8057  0.4361
   72MOL   C43936081   6.366   6.655   1.490  0.0324 -0.1947 -0.3128
   72MOL   H44036082   6.312   6.232   1.163  2.2335  1.0693 -0.9539
   72MOL   H44136083   6.213   6.172   1.035 -0.3111  1.2894  0.8542
   72MOL   H44236084   5.900   6.331   1.045  0.7851  0.1932  0.1386
   72MOL   H44336085   5.989   6.178   0.998  1.4258 -0.5693  1.2437
   72MOL   H44436086   6.029   6.334   0.933  2.4588  0.6951  0.5955
   72MOL   H44536087   6.273   6.690   1.241 -0.8140 -1.0307 -0.9018
   72MOL   H44636088   6.115   6.693   1.265  0.4914 -0.6701 -0.6458
   72MOL   H44736089   6.045   6.736   1.498  0.9350  1.4215 -0.9164
   72MOL   H44836090   6.105   6.788   1.734  1.1706  1.8872 -0.3119
   72MOL   H44936091   6.322   6.755   1.816  1.6149  1.5121  0.0204
   72MOL   H45036092   6.505   6.663   1.655 -0.7133 -0.7156 -0.4285
   72MOL   H45136093   6.437   6.601   1.429  0.0323 -1.8851  1.1208
   72MOL   C45236094   6.080   6.234   1.271 -0.4347 -0.0173 -0.3592
   72MOL   C45336095   5.948   6.227   1.358 -0.3234  0.5004  0.0220
   72MOL   C45436096   5.843   6.134   1.283 -0.3780 -0.0732 -0.0334
   72MOL   C45536097   5.892   6.372   1.384  0.2195  0.3256 -0.5687
   72MOL   O45636098   5.906   6.432   1.491 -0.4264 -0.2012 -0.4063
   72MOL   O45736099   5.815   6.416   1.281  0.1130  0.3129  0.1677
   72MOL   C45836100   5.773   6.543   1.286 -0.0155  0.2700 -0.6038
   72MOL   C45936101   5.681   6.581   1.166 -0.3892 -0.7152  0.3963
   72MOL   C46036102   5.543   6.610   1.191 -0.5546  1.0574  0.0609
   72MOL   C46136103   5.448   6.631   1.089 -0.2408  0.2178  0.1565
   72MOL   C46236104   5.491   6.619   0.954 -0.1351 -0.3803  0.3126
   72MOL   C46336105   5.625   6.589   0.928  0.3325  0.9108  0.1589
   72MOL   C46436106   5.720   6.569   1.031  0.2215 -0.4562  0.0095
   72MOL   H46536107   6.158   6.266   1.340 -1.3465 -0.4715  0.9073
   72MOL   H46636108   6.096   6.130   1.242  0.4851 -0.0936  0.4312
   72MOL   H46736109   5.806   6.196   1.202 -1.1547 -0.2314  0.1898
   72MOL   H46836110   5.758   6.109   1.347  0.9196 -1.0755  1.3434
   72MOL   H46936111   5.896   6.063   1.220 -4.7886 -2.2515 -1.4747
   72MOL   H47036112   5.713   6.540   1.377 -0.1455  0.5117 -0.6799
   72MOL   H47136113   5.857   6.613   1.283 -0.2778  0.6748  0.9489
   72MOL   H47236114   5.487   6.613   1.284  1.0071  0.4773  1.0338
   72MOL   H47336115   5.346   6.637   1.124 -0.1191  0.8865  0.3908
   72MOL   H47436116   5.411   6.615   0.882  2.1728 -1.7065 -2.2591
   72MOL   H47536117   5.651   6.580   0.824 -0.1813 -1.4468  0.1908
   72MOL   H47636118   5.818   6.533   1.002  0.2418 -0.4639  0.0879
   72MOL   C47736119   5.996   6.160   1.492  0.3145 -0.1451 -0.2984
   72MOL   C47836120   5.902   6.133   1.610  0.3997  0.1775 -0.9647
   72MOL   C47936121   5.986   6.090   1.733  0.4861 -0.8994 -1.4697
   72MOL   C48036122   5.804   6.009   1.599  0.2213  0.1298 -0.0186
   72MOL   O48136123   5.841   5.906   1.540  0.2909 -0.0943 -0.3822
   72MOL   O48236124   5.687   6.023   1.666  0.3461  0.4943 -0.3059
   72MOL   C48336125   5.597   5.908   1.673 -1.2280  0.0813 -0.0955
   72MOL   C48436126   5.603   5.829   1.800 -0.3263  0.3913 -0.0052
   72MOL   C48536127   5.485   5.815   1.876  0.1196 -0.3149 -0.0282
   72MOL   C48636128   5.487   5.727   1.987 -0.4055  0.4381  0.4020
   72MOL   C48736129   5.610   5.675   2.031  0.1201 -0.2563 -0.1219
   72MOL   C48836130   5.734   5.697   1.962  0.0230 -0.4522 -0.1019
   72MOL   C48936131   5.735   5.780   1.844 -0.4420  0.2158 -0.2391
   72MOL   H49036132   6.076   6.228   1.521 -0.1582  0.6027 -0.7457
   72MOL   H49136133   6.027   6.061   1.457  0.5953  0.0534 -0.6176
   72MOL   H49236134   5.939   6.087   1.831 -1.5418  1.4877 -2.3297
   72MOL   H49336135   6.066   6.161   1.754 -1.6883  1.5583 -1.2296
   72MOL   H49436136   6.029   5.989   1.727  3.6416  0.0428  2.8721
   72MOL   H49536137   5.504   5.966   1.669 -1.6329 -0.6520 -1.8646
   72MOL   H49636138   5.611   5.839   1.590 -0.2293  0.1203  0.0333
   72MOL   H49736139   5.386   5.852   1.852 -0.4871 -1.4038  0.7463
   72MOL   H49836140   5.400   5.708   2.049  1.7258 -1.4557  2.8929
   72MOL   H49936141   5.603   5.619   2.123  0.6171  0.4839  0.3790
   72MOL   H50036142   5.826   5.656   2.000  0.9617  0.6832 -1.0992
   72MOL   H50136143   5.825   5.802   1.788 -0.2817  2.2242  0.7549
   72MOL   H50236144   5.849   6.224   1.639 -0.1865 -0.7227  0.9180
   73MOL     C136145   3.576   7.636   1.409  0.5086  0.8958  0.4245
   73MOL     C236146   3.559   7.492   1.355  0.2812 -0.1916 -0.7179
   73MOL     C336147   3.638   7.475   1.224  0.0363 -0.1687 -0.2647
   73MOL     C436148   3.407   7.464   1.330  0.2765  0.0507  0.3632
   73MOL     O536149   3.326   7.556   1.321  0.3021  0.0312 -0.4315
   73MOL     O636150   3.374   7.337   1.300 -0.0924 -0.4348  0.2220
   73MOL     C736151   3.240   7.303   1.249 -0.2247 -0.4317  0.4229
   73MOL     C836152   3.229   7.281   1.100  0.8841  0.0141  0.0725
   73MOL     C936153   3.104   7.281   1.042 -0.2034 -0.2303  0.8241
   73MOL    C1036154   3.096   7.242   0.906 -0.0809  0.8311  0.0768
   73MOL    C1136155   3.207   7.187   0.838 -1.1015 -0.3476  0.1060
   73MOL    C1236156   3.337   7.197   0.896 -0.0884 -0.7013 -0.1220
   73MOL    C1336157   3.347   7.249   1.026  0.4746  0.3375  0.3200
   73MOL    H1436158   3.680   7.666   1.423  0.9543 -1.0084  1.2595
   73MOL    H1536159   3.536   7.703   1.332 -0.1431 -0.4460 -0.4264
   73MOL    H1636160   3.599   7.534   1.141 -1.0384 -1.6168 -0.8208
   73MOL    H1736161   3.631   7.374   1.181  3.0458  0.1333 -1.5978
   73MOL    H1836162   3.741   7.509   1.227  0.1356 -0.2808 -1.8009
   73MOL    H1936163   3.225   7.206   1.297 -0.6160 -0.2633  0.6370
   73MOL    H2036164   3.162   7.372   1.278  1.2061  0.6218  1.8459
   73MOL    H2136165   3.018   7.307   1.102 -0.8160  3.8838 -1.6727
   73MOL    H2236166   2.997   7.234   0.863  0.3423  0.5603 -0.8569
   73MOL    H2336167   3.184   7.145   0.741 -0.5914 -0.7549  0.1590
   73MOL    H2436168   3.426   7.162   0.846  0.4517 -0.5171  0.7081
   73MOL    H2536169   3.446   7.246   1.070  0.4188 -0.4016  0.4003
   73MOL    H2636170   3.521   7.666   1.498 -0.9817 -4.8998  1.6109
   73MOL    C2736171   3.611   7.387   1.461  0.3488  0.3817 -0.5096
   73MOL    C2836172   3.561   7.365   1.607 -0.5842 -0.5576 -0.6276
   73MOL    C2936173   3.417   7.324   1.610  0.1513 -0.1918  0.2803
   73MOL    C3036174   3.581   7.494   1.690  1.3632 -0.2809  0.3732
   73MOL    O3136175   3.486   7.550   1.746  0.2385  0.1649 -0.1051
   73MOL    O3236176   3.706   7.528   1.693 -0.0130  0.2923  0.1634
   73MOL    C3336177   3.751   7.623   1.796  0.5963 -0.2766 -0.2944
   73MOL    C3436178   3.795   7.550   1.926  0.6101 -0.2471 -0.3062
   73MOL    C3536179   3.903   7.459   1.930  0.3284 -0.2894  0.7731
   73MOL    C3636180   3.946   7.399   2.046 -0.8462 -0.4166  0.7930
   73MOL    C3736181   3.875   7.427   2.165  0.2709 -0.2728 -0.8490
   73MOL    C3836182   3.762   7.512   2.164 -0.3135  0.4479 -0.1595
   73MOL    C3936183   3.729   7.580   2.046 -0.1583  0.0127 -0.3137
   73MOL    H4036184   3.719   7.397   1.468  0.3457  1.4488 -1.7549
   73MOL    H4136185   3.609   7.293   1.407  0.6594  0.2401 -0.2740
   73MOL    H4236186   3.395   7.245   1.539  0.6664 -1.6906  1.7521
   73MOL    H4336187   3.351   7.407   1.582  0.0686 -0.5393 -0.5589
   73MOL    H4436188   3.398   7.285   1.710 -0.7411 -0.7315 -0.0925
   73MOL    H4536189   3.839   7.669   1.752  1.0645 -1.0998 -0.2263
   73MOL    H4636190   3.673   7.695   1.822  1.6890  0.3174  1.4406
   73MOL    H4736191   3.945   7.434   1.833 -0.9751  2.4636 -0.5591
   73MOL    H4836192   4.033   7.335   2.048 -0.1681  0.4960  0.4503
   73MOL    H4936193   3.906   7.374   2.254  2.0581 -0.2906 -1.4547
   73MOL    H5036194   3.714   7.532   2.259  0.0209  1.8527 -0.2697
   73MOL    H5136195   3.650   7.655   2.042 -0.5944 -0.3858  0.5603
   73MOL    C5236196   3.649   7.253   1.686 -0.1473  0.2919 -0.3018
   73MOL    C5336197   3.639   7.095   1.669 -0.7386  0.3516  0.7078
   73MOL    C5436198   3.654   7.065   1.517 -0.6235  0.6058 -0.5481
   73MOL    C5536199   3.506   7.048   1.730 -0.0994 -0.4278  0.1614
   73MOL    O5636200   3.427   6.973   1.671  0.1607  0.0262 -0.2437
   73MOL    O5736201   3.485   7.087   1.853 -0.3633 -0.6760 -0.6637
   73MOL    C5836202   3.378   7.043   1.924 -0.4582 -0.4098 -0.6448
   73MOL    C5936203   3.356   7.135   2.039 -0.7534 -0.7127 -0.0468
   73MOL    C6036204   3.250   7.102   2.127  0.2743 -0.6198 -0.7164
   73MOL    C6136205   3.212   7.191   2.231 -0.0923 -0.1946  0.1344
   73MOL    C6236206   3.295   7.311   2.247  0.8638 -0.0843 -0.5035
   73MOL    C6336207   3.410   7.340   2.168 -0.2719 -0.2842  0.3690
   73MOL    C6436208   3.435   7.259   2.055  0.2181 -0.1050  0.2938
   73MOL    H6536209   3.631   7.263   1.793  0.1906 -0.6195 -0.1589
   73MOL    H6636210   3.755   7.274   1.675  0.9051 -4.1994  0.3475
   73MOL    H6736211   3.564   7.077   1.458 -1.5186 -1.3688  0.3625
   73MOL    H6836212   3.674   6.962   1.486  1.7143  1.0516 -0.6239
   73MOL    H6936213   3.739   7.124   1.484 -1.7267  3.1687  1.0472
   73MOL    H7036214   3.286   7.045   1.865 -1.5622  0.1261  1.0728
   73MOL    H7136215   3.397   6.941   1.956 -0.4571 -0.2565 -0.1595
   73MOL    H7236216   3.196   7.010   2.111 -0.3729 -0.2449 -0.7201
   73MOL    H7336217   3.130   7.172   2.299 -0.9679 -0.5534 -1.0070
   73MOL    H7436218   3.277   7.378   2.329  0.8630  2.6354 -2.6344
   73MOL    H7536219   3.468   7.426   2.200 -0.6486 -0.2070  0.8403
   73MOL    H7636220   3.517   7.280   1.987  0.9384 -0.8009  0.9427
   73MOL    C7736221   3.765   7.028   1.737  0.0702 -0.2614  0.3295
   73MOL    C7836222   3.776   6.871   1.782 -0.1279  0.0808 -0.4532
   73MOL    C7936223   3.730   6.784   1.664  0.2326 -0.0851  0.0115
   73MOL    C8036224   3.683   6.846   1.910 -0.0906 -0.0334  0.3111
   73MOL    O8136225   3.604   6.754   1.929  0.0379 -0.2823  0.1544
   73MOL    O8236226   3.702   6.942   2.002 -0.6292 -0.0261  0.7785
   73MOL    C8336227   3.636   6.939   2.123  0.2068  0.0825  0.4732
   73MOL    C8436228   3.685   7.037   2.233  0.0540  0.0955  0.3005
   73MOL    C8536229   3.825   7.059   2.242 -0.0250  0.1152  0.3433
   73MOL    C8636230   3.869   7.140   2.350  0.5104 -0.4406 -0.1917
   73MOL    C8736231   3.781   7.204   2.444 -0.4662  0.0474  0.4335
   73MOL    C8836232   3.642   7.191   2.419 -0.7615  0.3680 -0.0643
   73MOL    C8936233   3.595   7.100   2.322 -0.2444 -0.1193 -0.2633
   73MOL    H9036234   3.794   7.090   1.822  0.8105 -1.2875  0.8424
   73MOL    H9136235   3.841   7.051   1.663  0.2300  0.6153  0.7619
   73MOL    H9236236   3.793   6.787   1.575  1.2194 -0.1897  0.7095
   73MOL    H9336237   3.628   6.812   1.635  1.1582 -0.1522 -3.5571
   73MOL    H9436238   3.738   6.677   1.682 -1.2032 -0.2269 -0.1169
   73MOL    H9536239   3.530   6.963   2.114 -0.0596 -0.5797  1.7954
   73MOL    H9636240   3.656   6.840   2.163 -0.1862 -0.6789 -1.1638
   73MOL    H9736241   3.890   6.998   2.181  2.6999  1.3573  1.9062
   73MOL    H9836242   3.976   7.146   2.361  0.5310  0.9814 -1.0385
   73MOL    H9936243   3.821   7.266   2.522  2.4923 -0.7949 -0.3308
   73MOL   H10036244   3.565   7.241   2.476 -1.5735 -1.3769  0.3827
   73MOL   H10136245   3.490   7.076   2.320  0.2173 -2.1979 -1.2670
   73MOL   C10236246   3.928   6.836   1.804  0.7987  0.0674  0.6146
   73MOL   C10336247   3.986   6.709   1.878 -0.7856  0.2018  0.3322
   73MOL   C10436248   4.137   6.737   1.876  0.1873  0.3889  0.4104
   73MOL   C10536249   3.964   6.581   1.793  0.6757 -0.1608 -0.5551
   73MOL   O10636250   4.048   6.546   1.712 -0.4760 -0.1078 -0.4580
   73MOL   O10736251   3.856   6.508   1.819 -0.4601  0.3838 -0.6029
   73MOL   C10836252   3.820   6.395   1.748  0.1664 -0.0067 -0.3199
   73MOL   C10936253   3.701   6.412   1.664  0.3136  0.3585 -0.4806
   73MOL   C11036254   3.576   6.456   1.722 -0.1612  0.6658 -0.2883
   73MOL   C11136255   3.463   6.441   1.644  0.6667  0.4511  0.1343
   73MOL   C11236256   3.468   6.416   1.502 -0.3424 -0.0079 -0.7366
   73MOL   C11336257   3.595   6.395   1.447 -0.1007 -0.8598 -0.9267
   73MOL   C11436258   3.710   6.396   1.528 -0.1271 -0.1330  0.2088
   73MOL   H11536259   3.947   6.912   1.880  0.7827  1.9224 -1.2122
   73MOL   H11636260   3.989   6.854   1.716 -3.1325  1.6257 -1.9039
   73MOL   H11736261   4.185   6.744   1.778  0.7610  0.7403  0.7164
   73MOL   H11836262   4.192   6.662   1.931 -2.6066 -1.7702  0.3786
   73MOL   H11936263   4.166   6.830   1.924  0.9064  0.9610 -1.0782
   73MOL   H12036264   3.898   6.354   1.685 -0.3188 -0.3194 -0.7143
   73MOL   H12136265   3.788   6.321   1.821 -0.2155  0.8494  0.3990
   73MOL   H12236266   3.572   6.478   1.828 -2.5506 -0.9112 -0.0044
   73MOL   H12336267   3.364   6.450   1.687 -0.1637 -0.3656 -1.5399
   73MOL   H12436268   3.378   6.410   1.443 -0.5593 -1.4250 -0.2946
   73MOL   H12536269   3.608   6.403   1.340 -1.1011  0.1261 -0.9797
   73MOL   H12636270   3.808   6.374   1.488 -0.1154  1.1897 -0.5154
   73MOL   C12736271   3.933   6.684   2.025  0.4723  0.2730 -0.1150
   73MOL   C12836272   4.000   6.617   2.150  0.6608 -0.5878  0.2335
   73MOL   C12936273   4.123   6.705   2.196 -0.4487  0.1325 -0.7356
   73MOL   C13036274   4.051   6.472   2.119 -1.1148 -0.3482 -0.5504
   73MOL   O13136275   4.169   6.444   2.126  0.1064 -0.1401 -0.2350
   73MOL   O13236276   3.958   6.392   2.093  0.0755 -0.2594 -0.2324
   73MOL   C13336277   3.966   6.252   2.102  0.6044  0.1401  0.0049
   73MOL   C13436278   3.894   6.203   2.227 -0.0664  0.2793  0.7387
   73MOL   C13536279   3.962   6.126   2.328 -0.1761  0.4294 -0.4563
   73MOL   C13636280   3.895   6.096   2.447  0.3268 -0.3625 -0.1412
   73MOL   C13736281   3.757   6.134   2.463  0.2395 -0.3883 -0.0560
   73MOL   C13836282   3.690   6.206   2.362 -0.3745  0.0834  0.7630
   73MOL   C13936283   3.759   6.242   2.245  0.0998  0.0452  0.1778
   73MOL   H14036284   3.828   6.656   2.016  0.7220 -0.8743  0.4658
   73MOL   H14136285   3.916   6.788   2.054 -0.4588  0.0040  0.3109
   73MOL   H14236286   4.214   6.706   2.137  0.3032 -1.2702  0.3637
   73MOL   H14336287   4.162   6.674   2.293  2.5734  1.6236 -1.4106
   73MOL   H14436288   4.085   6.807   2.208 -0.7172  0.2479 -2.5012
   73MOL   H14536289   3.915   6.202   2.019 -1.6818  1.9992  0.2439
   73MOL   H14636290   4.068   6.214   2.100  1.4208  2.2616 -0.3828
   73MOL   H14736291   4.061   6.082   2.321  1.2211  3.2977  0.4550
   73MOL   H14836292   3.955   6.053   2.525  0.6045  0.1291 -0.0801
   73MOL   H14936293   3.705   6.125   2.557 -1.8164  0.3108 -1.0899
   73MOL   H15036294   3.593   6.253   2.377 -0.5620  0.0464 -0.3499
   73MOL   H15136295   3.713   6.296   2.164  0.3897  2.2846  1.4626
   73MOL   C15236296   3.887   6.627   2.253  0.4788  0.7687  0.1999
   73MOL   C15336297   3.908   6.616   2.405  0.2346  0.0552  0.1525
   73MOL   C15436298   4.013   6.505   2.445 -0.0410  0.3249  0.2532
   73MOL   C15536299   3.777   6.573   2.464  0.4063  0.4719  0.2833
   73MOL   O15636300   3.774   6.483   2.548  0.5917  0.3287 -0.3550
   73MOL   O15736301   3.668   6.639   2.427  0.3561 -0.0059 -0.3684
   73MOL   C15836302   3.553   6.634   2.507 -0.1311 -0.3327  0.1864
   73MOL   C15936303   3.429   6.702   2.453  0.0108 -0.0626  0.0768
   73MOL   C16036304   3.413   6.716   2.313 -0.1898 -0.2581 -1.1225
   73MOL   C16136305   3.297   6.775   2.265 -0.2793 -0.4299 -0.6941
   73MOL   C16236306   3.205   6.833   2.351  0.9480 -0.1802 -0.5717
   73MOL   C16336307   3.222   6.827   2.488 -0.5347  0.6430  0.3380
   73MOL   C16436308   3.332   6.756   2.538  0.0468  0.8636 -0.1635
   73MOL   H16536309   3.818   6.555   2.209 -0.0983  1.2515  0.3042
   73MOL   H16636310   3.823   6.715   2.245 -1.6700 -0.7217  0.7577
   73MOL   H16736311   4.037   6.493   2.550  0.7769 -0.1472  0.0136
   73MOL   H16836312   4.110   6.518   2.397 -1.1064  0.7500 -1.8552
   73MOL   H16936313   3.970   6.412   2.407 -0.7542  0.1558  1.4429
   73MOL   H17036314   3.527   6.529   2.514  1.6899 -0.9605 -1.6584
   73MOL   H17136315   3.569   6.675   2.606  2.9717  2.9720 -1.5434
   73MOL   H17236316   3.479   6.667   2.242  1.9775 -0.3433  0.8572
   73MOL   H17336317   3.289   6.769   2.157  0.4309 -4.5313 -0.6249
   73MOL   H17436318   3.109   6.870   2.318  0.8360 -0.5625 -0.6773
   73MOL   H17536319   3.145   6.870   2.549 -0.5816  0.5531  0.3426
   73MOL   H17636320   3.357   6.749   2.643 -1.7602  2.3734  0.3925
   73MOL   C17736321   3.951   6.754   2.472  0.0542 -0.3633 -0.2646
   73MOL   C17836322   3.944   6.810   2.617 -0.3749  0.1486  0.8091
   73MOL   C17936323   3.796   6.843   2.651 -0.5451 -0.0003 -0.2018
   73MOL   C18036324   4.028   6.945   2.621  0.5942 -0.6650 -0.7919
   73MOL   O18136325   3.997   7.052   2.674  0.0324  0.6104 -0.2026
   73MOL   O18236326   4.141   6.927   2.551 -0.4195 -0.3623  0.3019
   73MOL   C18336327   4.247   7.024   2.563  0.4668  0.1564 -0.5422
   73MOL   C18436328   4.254   7.129   2.452 -0.1740 -0.6200  0.0147
   73MOL   C18536329   4.273   7.264   2.488 -0.0515  0.3332 -0.5806
   73MOL   C18636330   4.298   7.364   2.390 -0.1778 -0.3787  0.7508
   73MOL   C18736331   4.299   7.329   2.254  0.2756 -0.2241  0.0338
   73MOL   C18836332   4.288   7.191   2.219  0.0847  0.6394  0.5485
   73MOL   C18936333   4.266   7.093   2.319 -0.9221 -0.9049  1.2895
   73MOL   H19036334   3.894   6.825   2.412 -0.3076 -1.4156 -1.1846
   73MOL   H19136335   4.054   6.762   2.438 -0.2467  0.4671 -1.0076
   73MOL   H19236336   3.729   6.881   2.573 -0.8156 -1.0375 -0.4742
   73MOL   H19336337   3.781   6.912   2.735  0.4121  0.3827 -0.3459
   73MOL   H19436338   3.759   6.748   2.689  0.3930  0.4396  1.8889
   73MOL   H19536339   4.242   7.076   2.659  2.1776 -3.0324  1.3425
   73MOL   H19636340   4.345   6.976   2.570  0.2628 -0.2601 -0.5437
   73MOL   H19736341   4.261   7.292   2.591 -1.4165  1.8543 -1.1253
   73MOL   H19836342   4.304   7.466   2.427  0.5212 -0.7444  1.6728
   73MOL   H19936343   4.315   7.403   2.177  0.0399  2.2002  2.2472
   73MOL   H20036344   4.283   7.164   2.115 -2.2514  1.2263  0.4819
   73MOL   H20136345   4.255   6.988   2.296 -0.2181 -0.3395 -1.7430
   73MOL   C20236346   4.010   6.701   2.713  0.2739  0.5378  0.0002
   73MOL   C20336347   4.059   6.732   2.857 -0.3320 -0.1882  0.2232
   73MOL   C20436348   3.960   6.831   2.929  0.1646  0.2673  0.2731
   73MOL   C20536349   4.201   6.789   2.855  0.2317  0.3316 -0.7899
   73MOL   O20636350   4.270   6.787   2.755  0.1901  0.6195  0.1281
   73MOL   O20736351   4.240   6.833   2.979  0.2992 -0.3516 -0.1045
   73MOL   C20836352   4.376   6.872   3.005  0.7016  0.8408  0.0798
   73MOL   C20936353   4.464   6.757   3.055  0.1991 -0.6462 -0.5781
   73MOL   C21036354   4.525   6.670   2.963 -0.1312 -0.2624 -0.0533
   73MOL   C21136355   4.624   6.581   3.002 -0.3727  0.0243  0.2307
   73MOL   C21236356   4.662   6.576   3.138  0.1359  0.7201 -0.9530
   73MOL   C21336357   4.595   6.651   3.234  0.2704 -0.0788 -0.6421
   73MOL   C21436358   4.495   6.735   3.189  0.6731  0.1900 -0.3842
   73MOL   H21536359   4.098   6.661   2.663 -0.5213 -0.9121 -0.2681
   73MOL   H21636360   3.945   6.614   2.717  0.6452  0.2511 -0.1572
   73MOL   H21736361   3.979   6.853   3.034  1.9792 -1.6927  0.3723
   73MOL   H21836362   3.857   6.796   2.927  0.4900 -0.6706 -0.3902
   73MOL   H21936363   3.972   6.928   2.880  0.4838 -0.0379 -0.2548
   73MOL   H22036364   4.411   6.932   2.921  0.9101  1.8865  0.9079
   73MOL   H22136365   4.361   6.946   3.084  0.8126 -1.0962  1.9550
   73MOL   H22236366   4.498   6.682   2.859  1.1774 -0.9972 -0.4907
   73MOL   H22336367   4.668   6.522   2.924 -0.1010  0.8892 -0.2824
   73MOL   H22436368   4.735   6.503   3.167 -0.8894 -0.3737 -1.0965
   73MOL   H22536369   4.629   6.654   3.336  1.4283  1.7299 -1.0702
   73MOL   H22636370   4.449   6.808   3.254 -1.3848 -0.2997 -1.2489
   73MOL   C22736371   4.066   6.596   2.950  0.1549  0.2167  0.2059
   73MOL   C22836372   4.123   6.456   2.923  0.2357  0.0433  0.0980
   73MOL   C22936373   4.260   6.456   2.851  0.1214 -0.6116 -0.4713
   73MOL   C23036374   4.018   6.368   2.855 -0.2486  0.2733 -0.0541
   73MOL   O23136375   4.036   6.319   2.741  0.0639 -0.2375 -0.1863
   73MOL   O23236376   3.911   6.351   2.924  0.5109  0.0376  0.1232
   73MOL   C23336377   3.795   6.304   2.855  0.7276 -0.0250 -0.0580
   73MOL   C23436378   3.667   6.377   2.897  0.6686 -0.0596 -0.3727
   73MOL   C23536379   3.637   6.398   3.036  0.1916 -0.9616  0.0776
   73MOL   C23636380   3.513   6.454   3.075  0.0363 -0.6693 -0.2728
   73MOL   C23736381   3.424   6.503   2.979 -0.2265 -0.1442  0.2066
   73MOL   C23836382   3.452   6.475   2.844 -0.0154 -0.1643  0.1866
   73MOL   C23936383   3.571   6.416   2.800 -0.0961  0.8278  0.2869
   73MOL   H24036384   3.959   6.582   2.969  0.3058  0.7258  1.4693
   73MOL   H24136385   4.122   6.628   3.038 -0.1246  1.6657 -0.1259
   73MOL   H24236386   4.284   6.356   2.814  1.0428  0.3738 -2.6787
   73MOL   H24336387   4.340   6.481   2.921  1.2228 -1.6075 -1.3490
   73MOL   H24436388   4.263   6.517   2.761  0.1361 -1.6788 -1.2012
   73MOL   H24536389   3.797   6.289   2.747 -4.0445  1.4720 -0.4512
   73MOL   H24636390   3.779   6.199   2.881 -0.8120  0.7398  2.2911
   73MOL   H24736391   3.714   6.372   3.107  1.5487  0.9198 -0.6854
   73MOL   H24836392   3.486   6.485   3.175  0.7035  0.1506 -0.3429
   73MOL   H24936393   3.336   6.552   3.017 -0.9604 -1.0034 -0.3816
   73MOL   H25036394   3.377   6.501   2.772  0.4284  2.3912  0.6098
   73MOL   H25136395   3.605   6.410   2.698  2.2847  1.4572  0.9993
   73MOL   C25236396   4.158   6.401   3.072  0.0776  0.1776  1.0394
   73MOL   C25336397   4.222   6.263   3.117 -0.1775 -0.7814  0.5219
   73MOL   C25436398   4.361   6.244   3.058  0.2058 -0.1414 -0.1802
   73MOL   C25536399   4.128   6.146   3.067 -1.5475  0.5967 -0.2092
   73MOL   O25636400   4.158   6.082   2.969  0.0032  0.8029 -0.3687
   73MOL   O25736401   4.016   6.137   3.131  0.0206 -0.2563 -0.1130
   73MOL   C25836402   3.923   6.037   3.107 -0.1178 -0.0013 -0.2450
   73MOL   C25936403   3.886   5.967   3.239  0.3085  0.1289 -0.2329
   73MOL   C26036404   3.882   5.828   3.250 -0.2994  0.4099 -0.4680
   73MOL   C26136405   3.849   5.771   3.371 -0.3572 -0.4784  0.0430
   73MOL   C26236406   3.807   5.847   3.484 -0.0854  0.0086  0.0256
   73MOL   C26336407   3.814   5.992   3.469 -1.1741 -0.0366 -0.3156
   73MOL   C26436408   3.843   6.046   3.344 -0.2354 -0.1763 -0.6785
   73MOL   H26536409   4.071   6.412   3.136  0.3271 -1.4713  1.6990
   73MOL   H26636410   4.237   6.469   3.104  0.9350  0.2442 -1.1220
   73MOL   H26736411   4.425   6.330   3.080 -2.1732  1.8331 -0.8068
   73MOL   H26836412   4.364   6.239   2.949 -0.0864 -0.6880 -0.1651
   73MOL   H26936413   4.415   6.153   3.083  1.3403  0.7968  0.8411
   73MOL   H27036414   3.827   6.070   3.066 -0.0077  1.2190  0.4653
   73MOL   H27136415   3.952   5.952   3.045  1.8164  0.2651  0.2687
   73MOL   H27236416   3.883   5.769   3.159 -0.9678  0.6976 -0.6626
   73MOL   H27336417   3.840   5.664   3.363  4.8651 -1.0448  0.3235
   73MOL   H27436418   3.773   5.796   3.573 -2.2171 -2.2071 -2.0208
   73MOL   H27536419   3.809   6.060   3.553 -0.5215 -0.9897  0.5079
   73MOL   H27636420   3.831   6.153   3.332  0.0047 -0.0611  0.0545
   73MOL   C27736421   4.231   6.272   3.276  0.7234 -0.7025  0.3468
   73MOL   C27836422   4.307   6.187   3.376 -0.2770 -0.3081  0.3076
   73MOL   C27936423   4.238   6.227   3.509  0.2246 -0.6082  0.2376
   73MOL   C28036424   4.461   6.224   3.382  0.7599 -0.0793  0.0308
   73MOL   O28136425   4.499   6.303   3.468 -0.2224  0.0550 -0.3633
   73MOL   O28236426   4.545   6.152   3.305 -0.3599 -0.0389 -0.2356
   73MOL   C28336427   4.691   6.152   3.326  0.5273 -0.4053 -0.4216
   73MOL   C28436428   4.750   6.029   3.256  0.4913 -0.8555  0.2215
   73MOL   C28536429   4.711   6.003   3.121 -0.1335 -0.3771 -0.3416
   73MOL   C28636430   4.752   5.888   3.056 -0.8727 -0.3779 -0.5265
   73MOL   C28736431   4.836   5.793   3.121 -0.2215 -0.1574  0.1540
   73MOL   C28836432   4.878   5.822   3.256  0.4548  0.3513  0.7068
   73MOL   C28936433   4.839   5.941   3.321  0.3163  0.5880 -0.5014
   73MOL   H29036434   4.131   6.300   3.307 -0.5411 -0.8978 -3.2726
   73MOL   H29136435   4.280   6.368   3.293 -0.7139 -0.3692  2.7625
   73MOL   H29236436   4.143   6.176   3.517  0.1159 -0.3575  0.5539
   73MOL   H29336437   4.208   6.331   3.520  1.4670 -0.2913  0.7459
   73MOL   H29436438   4.295   6.199   3.598  1.3064 -1.1143 -0.6064
   73MOL   H29536439   4.732   6.248   3.295  1.1722 -1.1197 -1.8006
   73MOL   H29636440   4.722   6.138   3.430 -0.0266  3.6332  0.3751
   73MOL   H29736441   4.640   6.071   3.075 -2.5355 -2.8111 -0.3846
   73MOL   H29836442   4.711   5.868   2.959 -0.5300  2.1315 -1.2293
   73MOL   H29936443   4.875   5.705   3.071 -0.2262 -0.2679  0.3438
   73MOL   H30036444   4.937   5.749   3.309 -0.2626 -1.8572 -1.3811
   73MOL   H30136445   4.846   5.963   3.426 -3.1599  0.3277 -0.1392
   73MOL   C30236446   4.277   6.033   3.340  1.1254  0.3334 -0.2546
   73MOL   C30336447   4.333   5.900   3.416 -0.2069 -0.5711 -0.2726
   73MOL   C30436448   4.206   5.834   3.477  0.2864  0.0358  0.3820
   73MOL   C30536449   4.434   5.930   3.534 -0.5735  0.2559 -0.0510
   73MOL   O30636450   4.554   5.903   3.521 -0.1079 -0.2161 -0.1498
   73MOL   O30736451   4.373   5.985   3.645 -0.2338  0.1630 -0.0402
   73MOL   C30836452   4.448   6.039   3.751 -0.0486 -0.4322 -0.5790
   73MOL   C30936453   4.426   5.952   3.873 -0.4883  0.4785 -0.2344
   73MOL   C31036454   4.523   5.959   3.981  0.2877  0.1205  0.3256
   73MOL   C31136455   4.517   5.864   4.085  0.9535 -0.7240  0.9204
   73MOL   C31236456   4.417   5.766   4.086 -0.3758 -0.3305  0.2062
   73MOL   C31336457   4.324   5.748   3.982 -0.3250  0.4065  0.4812
   73MOL   C31436458   4.327   5.843   3.878  0.0043  0.2497 -0.5066
   73MOL   H31536459   4.340   6.021   3.252  0.9319 -0.4918 -0.2808
   73MOL   H31636460   4.173   6.009   3.319  0.4735  1.0672  1.9730
   73MOL   H31736461   4.149   5.891   3.550 -1.0126 -1.1287  0.2875
   73MOL   H31836462   4.218   5.735   3.522  2.0894  0.5849  1.1610
   73MOL   H31936463   4.137   5.822   3.394 -0.3845  0.3498  0.8946
   73MOL   H32036464   4.554   6.035   3.727  0.6826  0.3159  2.2927
   73MOL   H32136465   4.433   6.146   3.766 -0.8029 -0.8045  1.5158
   73MOL   H32236466   4.605   6.029   3.972 -0.3271  0.8671  0.5464
   73MOL   H32336467   4.591   5.861   4.163  2.5459 -2.1398 -0.6007
   73MOL   H32436468   4.416   5.700   4.171 -0.2146 -1.5340 -0.7006
   73MOL   H32536469   4.245   5.674   3.984  1.5905 -1.7983 -1.5388
   73MOL   H32636470   4.263   5.840   3.791 -0.0505  0.6438 -0.4807
   73MOL   C32736471   4.404   5.797   3.317  0.4637  0.1185  0.2636
   73MOL   C32836472   4.333   5.724   3.193  0.6410 -0.5594  0.2734
   73MOL   C32936473   4.239   5.816   3.109  0.0238 -0.4447  0.3445
   73MOL   C33036474   4.249   5.610   3.240 -0.0590  0.2016  0.2972
   73MOL   O33136475   4.139   5.575   3.193  1.2945 -0.7364  0.3952
   73MOL   O33236476   4.319   5.535   3.321  0.2531 -0.0252  0.4367
   73MOL   C33336477   4.275   5.403   3.364 -0.5506 -0.3370 -0.2632
   73MOL   C33436478   4.240   5.395   3.511 -0.2961  0.6343 -0.0416
   73MOL   C33536479   4.327   5.444   3.617 -0.0636 -0.3162 -0.3144
   73MOL   C33636480   4.297   5.421   3.756  0.1862  0.4141 -0.4856
   73MOL   C33736481   4.191   5.336   3.784 -0.1364 -0.0947 -0.3309
   73MOL   C33836482   4.096   5.297   3.686  0.2670  0.0109 -0.1675
   73MOL   C33936483   4.120   5.326   3.545 -0.3313  0.1959 -0.7664
   73MOL   H34036484   4.454   5.720   3.377  0.5352 -1.4729 -1.7812
   73MOL   H34136485   4.480   5.851   3.261  0.4518 -1.8357 -1.7046
   73MOL   H34236486   4.288   5.909   3.081  1.5729 -0.3140  3.2875
   73MOL   H34336487   4.153   5.841   3.172  0.3103 -0.0463  0.5780
   73MOL   H34436488   4.207   5.770   3.016  1.3000 -1.7368  0.5219
   73MOL   H34536489   4.189   5.376   3.303 -0.5664  0.5884 -0.6520
   73MOL   H34636490   4.362   5.344   3.334 -0.4939 -0.3360 -0.0987
   73MOL   H34736491   4.407   5.513   3.593 -0.8552  1.5073  2.1195
   73MOL   H34836492   4.358   5.462   3.835 -0.5414 -1.1312  0.9172
   73MOL   H34936493   4.178   5.292   3.882  1.5057 -0.8411 -0.4268
   73MOL   H35036494   4.009   5.237   3.708  0.3133  1.0118  3.0456
   73MOL   H35136495   4.063   5.288   3.462  1.0430  1.0386 -2.1170
   73MOL   C35236496   4.454   5.659   3.096  0.2474 -0.5956 -0.4324
   73MOL   C35336497   4.440   5.625   2.938 -0.3411 -0.0996  0.5819
   73MOL   C35436498   4.426   5.765   2.865 -0.1657 -0.4555  0.9077
   73MOL   C35536499   4.322   5.527   2.904  0.0537  0.3241 -0.1902
   73MOL   O35636500   4.243   5.554   2.815 -0.2000  0.1880 -0.6411
   73MOL   O35736501   4.328   5.406   2.960  1.0689 -0.3636  0.7685
   73MOL   C35836502   4.229   5.310   2.920 -0.0415  0.0232  0.3884
   73MOL   C35936503   4.181   5.237   3.043  0.2602  0.1908  0.1438
   73MOL   C36036504   4.252   5.123   3.090  0.3090 -0.3755  0.0599
   73MOL   C36136505   4.202   5.055   3.209  0.1686 -0.1949  1.0681
   73MOL   C36236506   4.081   5.097   3.265  0.3147 -0.6188 -0.5458
   73MOL   C36336507   4.007   5.200   3.209  0.4463 -0.4566  0.5994
   73MOL   C36436508   4.061   5.276   3.104  0.2808  0.1610  0.1248
   73MOL   H36536509   4.490   5.566   3.138 -1.1733 -0.2367  1.6475
   73MOL   H36636510   4.542   5.723   3.103 -2.9930  3.9828  0.3881
   73MOL   H36736511   4.500   5.793   2.790 -0.7731  0.2160  0.5472
   73MOL   H36836512   4.437   5.845   2.938 -2.8854  1.9313 -1.1394
   73MOL   H36936513   4.333   5.789   2.812  2.6478  2.8429 -2.8289
   73MOL   H37036514   4.138   5.353   2.878  0.0566  1.0149  1.1763
   73MOL   H37136515   4.287   5.241   2.859  1.8201  0.4112  1.6970
   73MOL   H37236516   4.338   5.086   3.036  0.5128 -1.1848  0.9419
   73MOL   H37336517   4.264   4.982   3.258  1.4061 -1.1780 -1.9119
   73MOL   H37436518   4.045   5.048   3.355 -0.8202  0.3487 -0.4653
   73MOL   H37536519   3.911   5.223   3.252 -0.2532  2.2203 -2.1660
   73MOL   H37636520   4.005   5.352   3.052  0.9698 -0.1536 -1.1011
   73MOL   C37736521   4.581   5.560   2.892 -0.1808  0.2912  0.2710
   73MOL   C37836522   4.604   5.489   2.745 -0.3135  0.1193 -0.1748
   73MOL   C37936523   4.520   5.560   2.629  0.2469  0.1768  0.5264
   73MOL   C38036524   4.567   5.339   2.748 -1.3215  0.3243 -0.4486
   73MOL   O38136525   4.467   5.301   2.681 -0.2571  0.2914  0.0460
   73MOL   O38236526   4.658   5.262   2.806 -0.0537 -0.3256  0.0272
   73MOL   C38336527   4.643   5.117   2.813  0.5376 -0.2888  0.1378
   73MOL   C38436528   4.755   5.047   2.741  0.0256 -0.0499  0.5259
   73MOL   C38536529   4.775   5.053   2.600  0.3565 -0.2066  0.0992
   73MOL   C38636530   4.874   4.977   2.539 -1.0373 -0.4045  0.1999
   73MOL   C38736531   4.950   4.883   2.619 -0.6978 -0.0799 -0.2865
   73MOL   C38836532   4.937   4.882   2.758  0.0788 -0.9479 -0.4275
   73MOL   C38936533   4.837   4.964   2.819  0.2920  0.2080 -0.3000
   73MOL   H39036534   4.593   5.471   2.953 -1.2770 -1.2610 -1.7362
   73MOL   H39136535   4.661   5.633   2.908  0.0055 -0.1865  1.5653
   73MOL   H39236536   4.525   5.516   2.529  0.4614 -0.0573  0.6418
   73MOL   H39336537   4.550   5.664   2.618  0.2795  0.2016  0.8624
   73MOL   H39436538   4.412   5.564   2.645  0.4911  0.4822  2.1491
   73MOL   H39536539   4.645   5.082   2.916  0.7085  1.5693  0.8003
   73MOL   H39636540   4.548   5.091   2.768  1.3420 -0.8256 -1.2561
   73MOL   H39736541   4.719   5.109   2.527  0.5111 -1.6675 -1.1730
   73MOL   H39836542   4.880   4.982   2.431  2.5961 -0.1052  0.3561
   73MOL   H39936543   5.019   4.821   2.565 -0.0032  0.9180 -0.5613
   73MOL   H40036544   5.003   4.825   2.822  0.9911 -0.8707 -1.2960
   73MOL   H40136545   4.829   4.943   2.925  0.0428 -0.5003 -0.4519
   73MOL   C40236546   4.752   5.503   2.704 -0.2523 -0.0055 -0.3987
   73MOL   C40336547   4.827   5.640   2.649  0.3374  0.6747 -0.4094
   73MOL   C40436548   4.804   5.759   2.742  0.4112 -0.1855 -1.1157
   73MOL   C40536549   4.770   5.667   2.505 -0.6506  0.0742 -0.1754
   73MOL   O40636550   4.741   5.777   2.464 -0.2651  0.1038  0.2227
   73MOL   O40736551   4.754   5.551   2.435  0.4135  0.0483 -0.1264
   73MOL   C40836552   4.718   5.561   2.304  0.3524 -0.0139  0.1375
   73MOL   C40936553   4.742   5.442   2.227 -0.6103  0.9847 -0.3133
   73MOL   C41036554   4.814   5.453   2.100 -0.5174 -0.9635 -0.9950
   73MOL   C41136555   4.830   5.330   2.032  0.3623  0.2133  0.0858
   73MOL   C41236556   4.763   5.208   2.073 -0.2559  0.2232  0.1906
   73MOL   C41336557   4.688   5.207   2.191  0.0951 -0.1267 -0.7566
   73MOL   C41436558   4.687   5.320   2.275 -0.2543  0.0677  0.3394
   73MOL   H41536559   4.781   5.418   2.642 -0.5824 -0.4111  0.0057
   73MOL   H41636560   4.800   5.462   2.792 -1.3576 -2.5506 -0.9225
   73MOL   H41736561   4.861   5.850   2.729  0.5769 -0.3993 -1.9343
   73MOL   H41836562   4.837   5.723   2.839 -0.4421  1.2233 -0.2832
   73MOL   H41936563   4.700   5.789   2.753  0.9075  1.3490 -0.5348
   73MOL   H42036564   4.614   5.594   2.299  0.5429  0.8339  1.6893
   73MOL   H42136565   4.774   5.647   2.269  1.2495  0.1704  1.9633
   73MOL   H42236566   4.856   5.545   2.064 -1.5560  0.5904  1.6781
   73MOL   H42336567   4.881   5.329   1.936  1.1402  0.7579  0.4922
   73MOL   H42436568   4.762   5.118   2.014 -0.8568  1.3222 -1.5203
   73MOL   H42536569   4.640   5.114   2.217 -0.3305  0.7237  1.6208
   73MOL   H42636570   4.624   5.322   2.363 -1.4448  0.7120 -0.5096
   73MOL   C42736571   4.984   5.598   2.652 -0.2685 -0.3621  0.1658
   73MOL   C42836572   5.108   5.674   2.585 -0.5616 -0.0529  0.0448
   73MOL   C42936573   5.242   5.591   2.625 -0.5073  0.2336  0.2959
   73MOL   C43036574   5.120   5.815   2.643 -0.4625 -0.8122  0.0037
   73MOL   O43136575   5.064   5.905   2.582  0.0039 -0.5587 -0.8207
   73MOL   O43236576   5.177   5.820   2.765  0.1807 -0.0775 -0.1606
   73MOL   C43336577   5.172   5.943   2.841 -0.0072 -0.0836 -0.5079
   73MOL   C43436578   5.280   5.955   2.945  0.4571  0.1710 -0.0796
   73MOL   C43536579   5.243   5.995   3.079  0.1745 -0.5157  0.3257
   73MOL   C43636580   5.337   5.994   3.182 -0.2806 -0.3943 -0.1075
   73MOL   C43736581   5.476   5.994   3.149 -0.1440 -0.4487  0.8649
   73MOL   C43836582   5.518   5.965   3.021  0.2455  0.2110 -0.2571
   73MOL   C43936583   5.424   5.936   2.922  0.0003  0.4163 -0.0946
   73MOL   H44036584   4.990   5.496   2.613  0.6642 -0.6601  1.0550
   73MOL   H44136585   5.014   5.588   2.757 -0.5670  1.1817  0.4100
   73MOL   H44236586   5.257   5.497   2.572 -0.1463 -0.4454  1.5783
   73MOL   H44336587   5.248   5.566   2.731  2.1030 -1.1720 -0.1662
   73MOL   H44436588   5.330   5.655   2.615 -1.8649  2.1133  0.0905
   73MOL   H44536589   5.205   6.030   2.783  0.0136  0.8525  0.8791
   73MOL   H44636590   5.075   5.974   2.880 -0.2170  0.0611 -1.1356
   73MOL   H44736591   5.143   6.004   3.118  0.8708 -1.4803  2.3864
   73MOL   H44836592   5.304   6.001   3.285  1.6999 -1.3279  0.6085
   73MOL   H44936593   5.550   6.011   3.227 -0.0348  1.4435  0.3693
   73MOL   H45036594   5.626   5.965   3.014  0.2643 -1.2256 -0.1467
   73MOL   H45136595   5.461   5.907   2.825 -1.8564  2.5076 -1.4765
   73MOL   C45236596   5.096   5.683   2.433  0.9333  0.8317 -0.2140
   73MOL   C45336597   5.193   5.729   2.324 -0.5387 -0.0251 -0.3978
   73MOL   C45436598   5.132   5.710   2.179 -0.2242  0.0912 -0.0370
   73MOL   C45536599   5.329   5.652   2.329 -0.3756 -0.1579 -0.3030
   73MOL   O45636600   5.346   5.534   2.279 -0.5341 -1.1783 -0.1041
   73MOL   O45736601   5.427   5.718   2.389  0.0692 -0.4165  0.8084
   73MOL   C45836602   5.558   5.670   2.398 -0.2333 -0.1083  0.3811
   73MOL   C45936603   5.599   5.656   2.544 -0.3848 -0.4946  0.2111
   73MOL   C46036604   5.568   5.542   2.618  0.1052 -0.1355  0.9209
   73MOL   C46136605   5.600   5.533   2.752 -0.0182 -0.2689  1.0893
   73MOL   C46236606   5.669   5.638   2.811  0.1547 -0.6352 -0.0331
   73MOL   C46336607   5.687   5.756   2.745  0.7634 -0.8804  0.4659
   73MOL   C46436608   5.657   5.762   2.608  0.5693 -0.0191 -0.1803
   73MOL   H46536609   5.007   5.739   2.405  0.1226 -0.1946  0.2802
   73MOL   H46636610   5.093   5.581   2.395 -0.6458  1.6119 -2.2872
   73MOL   H46736611   5.055   5.782   2.150 -0.3217 -0.1770 -0.4371
   73MOL   H46836612   5.092   5.609   2.181 -3.3331  1.1932 -1.7265
   73MOL   H46936613   5.202   5.696   2.097  0.9410  0.9413  0.7967
   73MOL   H47036614   5.579   5.572   2.355 -1.0351  0.8935 -2.3917
   73MOL   H47136615   5.620   5.744   2.347 -1.9691  0.2010 -1.3330
   73MOL   H47236616   5.524   5.462   2.560  0.8781  0.9485 -1.2107
   73MOL   H47336617   5.572   5.445   2.809 -1.4250 -0.0354  0.7774
   73MOL   H47436618   5.705   5.628   2.912  1.4924 -0.1011 -0.4519
   73MOL   H47536619   5.725   5.842   2.799 -0.2011  0.3730 -0.8078
   73MOL   H47636620   5.679   5.849   2.547  0.5438  0.3346  0.3142
   73MOL   C47736621   5.218   5.891   2.337 -0.4547  0.1704  0.2034
   73MOL   C47836622   5.306   5.966   2.225 -0.6820 -0.1297 -0.1888
   73MOL   C47936623   5.394   6.081   2.287  0.3056 -0.7866 -0.3723
   73MOL   C48036624   5.210   6.032   2.126  0.5226  0.4488  0.4977
   73MOL   O48136625   5.195   6.005   2.008 -0.0908 -0.2624 -0.1739
   73MOL   O48236626   5.142   6.134   2.192  0.1400  0.0585 -0.0003
   73MOL   C48336627   5.069   6.235   2.124  0.1072 -0.1163 -0.1497
   73MOL   C48436628   4.915   6.205   2.126 -0.2608  0.7993  0.6513
   73MOL   C48536629   4.854   6.110   2.202 -0.6798  0.5822 -0.1752
   73MOL   C48636630   4.713   6.096   2.201  0.6545 -0.0759 -0.2927
   73MOL   C48736631   4.637   6.161   2.102 -0.0456 -0.7933  0.4492
   73MOL   C48836632   4.702   6.260   2.023  0.2066  0.0947  0.1905
   73MOL   C48936633   4.839   6.277   2.027  0.4599  0.0525 -0.6553
   73MOL   H49036634   5.261   5.912   2.435  1.2554  1.7545 -0.8651
   73MOL   H49136635   5.116   5.931   2.337  0.8849  3.8024 -0.7060
   73MOL   H49236636   5.329   6.136   2.354  2.4819  0.4595  0.7612
   73MOL   H49336637   5.437   6.149   2.213  0.0995  3.0524  2.8982
   73MOL   H49436638   5.471   6.048   2.357  1.5763  1.2421 -0.7799
   73MOL   H49536639   5.101   6.334   2.156  1.6357 -1.4161  2.5342
   73MOL   H49636640   5.087   6.221   2.018  1.9213 -1.6729  0.3252
   73MOL   H49736641   4.910   6.039   2.261 -0.3111 -1.3610 -2.8057
   73MOL   H49836642   4.675   6.015   2.261 -2.1993  0.7211 -0.9458
   73MOL   H49936643   4.537   6.126   2.081  0.0586 -2.1430  2.1122
   73MOL   H50036644   4.641   6.313   1.951  0.5547  3.0799  2.0181
   73MOL   H50136645   4.885   6.351   1.962 -0.4066  2.3001  1.2179
   73MOL   H50236646   5.371   5.891   2.179 -0.3307  0.6516 -0.9862
   74MOL     C136647   2.186   5.757   1.631  0.7419  0.1379 -0.1640
   74MOL     C236648   2.210   5.692   1.496  0.4354 -0.4516  0.3650
   74MOL     C336649   2.075   5.718   1.425  1.2520 -0.5700 -0.3643
   74MOL     C436650   2.223   5.546   1.511 -0.0174  0.0465  0.8658
   74MOL     O536651   2.205   5.478   1.411 -0.4229  0.1803  0.2484
   74MOL     O636652   2.258   5.502   1.635 -1.1829 -0.4740  0.4832
   74MOL     C736653   2.278   5.359   1.648 -0.6631 -0.5394 -0.6946
   74MOL     C836654   2.213   5.293   1.767  0.5439 -0.5337 -0.7367
   74MOL     C936655   2.083   5.339   1.811 -0.0114  0.2393 -0.2459
   74MOL    C1036656   2.022   5.275   1.921 -0.2310  0.2690 -0.1133
   74MOL    C1136657   2.089   5.172   1.987 -0.6651 -0.2992 -0.2512
   74MOL    C1236658   2.207   5.111   1.937  0.0399 -0.8424 -0.1785
   74MOL    C1336659   2.271   5.180   1.832 -0.2296  0.3174  0.6323
   74MOL    H1436660   2.271   5.741   1.697 -0.5509  0.0194  1.5204
   74MOL    H1536661   2.166   5.864   1.626 -1.4224 -0.1227  1.8765
   74MOL    H1636662   1.995   5.659   1.471  1.3843 -0.5984 -0.1750
   74MOL    H1736663   2.074   5.680   1.323  1.0095 -1.1280 -0.1581
   74MOL    H1836664   2.047   5.823   1.414  0.8678 -0.3321  2.6437
   74MOL    H1936665   2.249   5.301   1.560 -2.1948 -0.6095 -0.1563
   74MOL    H2036666   2.385   5.340   1.653 -0.9311 -2.0110 -0.4627
   74MOL    H2136667   2.028   5.416   1.759  0.7871 -0.2625 -1.8722
   74MOL    H2236668   1.926   5.307   1.958 -1.0583  0.9780 -2.7727
   74MOL    H2336669   2.027   5.126   2.063 -0.2241 -0.3821  0.0581
   74MOL    H2436670   2.257   5.026   1.980 -2.2612 -1.1780  1.9356
   74MOL    H2536671   2.367   5.144   1.798  0.6736  2.4994  0.7850
   74MOL    H2636672   2.103   5.704   1.679 -0.9531  1.0346 -2.0299
   74MOL    C2736673   2.327   5.768   1.417  0.0354  0.2783 -0.0127
   74MOL    C2836674   2.476   5.776   1.472 -0.5507  0.1869 -0.1805
   74MOL    C2936675   2.569   5.819   1.352  0.6145 -0.3502 -0.1093
   74MOL    C3036676   2.519   5.638   1.521 -0.0810  0.1858 -0.0893
   74MOL    O3136677   2.540   5.606   1.641  0.1411 -0.5272  0.3556
   74MOL    O3236678   2.519   5.546   1.412  0.5168 -0.0106  0.2701
   74MOL    C3336679   2.622   5.447   1.396  0.0412 -0.3152 -0.2456
   74MOL    C3436680   2.575   5.310   1.438  0.0338  0.2537  0.2533
   74MOL    C3536681   2.652   5.234   1.529 -0.2479  0.2682  0.0961
   74MOL    C3636682   2.611   5.105   1.566  0.4835 -0.1975 -0.1273
   74MOL    C3736683   2.491   5.049   1.505 -0.8310  0.2560  0.4445
   74MOL    C3836684   2.421   5.119   1.405 -0.2522  0.6837 -0.2802
   74MOL    C3936685   2.463   5.250   1.378 -0.0180  0.4108  0.1269
   74MOL    H4036686   2.289   5.867   1.393 -0.5877  0.4606  1.6123
   74MOL    H4136687   2.337   5.722   1.319  1.0267  1.8734 -0.6659
   74MOL    H4236688   2.572   5.746   1.271 -1.0430 -0.3924 -0.1596
   74MOL    H4336689   2.673   5.843   1.375  0.5440  0.3958 -0.5254
   74MOL    H4436690   2.518   5.907   1.313  0.6997 -0.6229 -0.8445
   74MOL    H4536691   2.648   5.440   1.290  1.6046 -1.4399  0.1944
   74MOL    H4636692   2.710   5.482   1.449 -0.0242 -2.4027  1.3132
   74MOL    H4736693   2.746   5.270   1.570 -0.2176 -1.7643  1.9450
   74MOL    H4836694   2.665   5.050   1.642 -1.2542 -0.8585  0.6709
   74MOL    H4936695   2.479   4.952   1.549  0.1584 -0.0784 -0.0282
   74MOL    H5036696   2.331   5.078   1.363  0.6804  1.1046 -2.7432
   74MOL    H5136697   2.402   5.307   1.310  1.2274  2.0439  0.3568
   74MOL    C5236698   2.498   5.878   1.590 -0.6142 -0.5942 -0.6411
   74MOL    C5336699   2.514   6.033   1.584  0.0988 -0.0887 -0.1568
   74MOL    C5436700   2.382   6.090   1.521 -0.8096 -0.0460 -0.3447
   74MOL    C5536701   2.640   6.083   1.504  0.7582 -0.3332 -0.4260
   74MOL    O5636702   2.626   6.172   1.416 -0.1927 -0.0671 -0.7697
   74MOL    O5736703   2.760   6.026   1.545  0.0802 -0.5098 -0.1207
   74MOL    C5836704   2.878   6.064   1.479  0.1115 -0.0379  0.5242
   74MOL    C5936705   2.998   6.090   1.570  1.1849  0.2345  0.3582
   74MOL    C6036706   3.126   6.093   1.516  0.3856 -1.1682 -0.6282
   74MOL    C6136707   3.242   6.124   1.591 -0.4286 -0.1078  0.0387
   74MOL    C6236708   3.224   6.165   1.730 -0.3180  0.8523  1.1087
   74MOL    C6336709   3.094   6.155   1.789  0.2360  0.3455  0.3906
   74MOL    C6436710   2.983   6.118   1.705 -0.1911  0.5874 -0.3604
   74MOL    H6536711   2.581   5.836   1.647 -0.1127 -0.0955 -1.0005
   74MOL    H6636712   2.417   5.862   1.661  1.9514 -2.8508  1.9058
   74MOL    H6736713   2.359   6.195   1.535 -1.4906 -0.5291  2.6152
   74MOL    H6836714   2.295   6.025   1.535 -0.1012 -0.4607  2.5913
   74MOL    H6936715   2.387   6.080   1.413 -0.6347 -2.3621 -0.1528
   74MOL    H7036716   2.909   5.989   1.406 -1.4387  0.2927 -0.4889
   74MOL    H7136717   2.873   6.165   1.437 -0.1288 -0.9890 -1.8264
   74MOL    H7236718   3.135   6.086   1.408 -2.6951 -0.0914 -1.0178
   74MOL    H7336719   3.338   6.125   1.541 -0.2811 -3.7264  0.1377
   74MOL    H7436720   3.304   6.197   1.794  1.3250  0.5242 -0.7260
   74MOL    H7536721   3.082   6.179   1.894 -1.5791  0.9708  0.0734
   74MOL    H7636722   2.882   6.123   1.744  0.2824  0.8434  0.8663
   74MOL    C7736723   2.535   6.081   1.732  0.0970 -0.0900 -0.5071
   74MOL    C7836724   2.543   6.232   1.773 -1.0932 -0.4939  0.5919
   74MOL    C7936725   2.565   6.222   1.927 -0.1867  0.2632 -0.3433
   74MOL    C8036726   2.403   6.294   1.756  0.5055  0.2126  0.1948
   74MOL    O8136727   2.385   6.385   1.672 -0.0198 -0.3409  0.3097
   74MOL    O8236728   2.316   6.246   1.838 -0.2095 -0.1408  0.1072
   74MOL    C8336729   2.196   6.306   1.860  0.0735 -0.1010  0.4928
   74MOL    C8436730   2.077   6.215   1.830  0.2827  0.1602  0.3521
   74MOL    C8536731   2.045   6.188   1.693 -0.9064  0.3294 -0.2111
   74MOL    C8636732   1.951   6.097   1.655  0.0062  0.2891 -0.0093
   74MOL    C8736733   1.888   6.025   1.755 -0.1422  0.2560 -0.1201
   74MOL    C8836734   1.926   6.038   1.889  0.2213  1.2643 -0.5371
   74MOL    C8936735   2.019   6.141   1.933 -0.2680  0.2528  0.0878
   74MOL    H9036736   2.628   6.035   1.766  0.8758  0.2300 -2.1544
   74MOL    H9136737   2.458   6.031   1.791  1.2241  0.4724  1.4662
   74MOL    H9236738   2.663   6.181   1.952  0.2250  0.4491 -1.5926
   74MOL    H9336739   2.496   6.149   1.969  0.9051 -0.1147  0.8310
   74MOL    H9436740   2.557   6.323   1.968  1.3498  0.5254 -0.6417
   74MOL    H9536741   2.181   6.343   1.962  1.9823 -0.3056  0.8627
   74MOL    H9636742   2.175   6.391   1.795  1.2560 -1.2020 -1.3733
   74MOL    H9736743   2.102   6.241   1.618  1.6678 -0.1112  1.3687
   74MOL    H9836744   1.923   6.089   1.551  1.9880  1.3475 -0.6580
   74MOL    H9936745   1.808   5.955   1.737 -0.8178  0.7438  0.9003
   74MOL   H10036746   1.883   5.971   1.961 -1.8378  2.5029 -0.5896
   74MOL   H10136747   2.046   6.146   2.038  0.2134 -2.9286  0.1672
   74MOL   C10236748   2.657   6.326   1.714 -0.4926 -0.3025 -0.3974
   74MOL   C10336749   2.733   6.456   1.772 -0.2320 -0.7753 -0.2731
   74MOL   C10436750   2.821   6.415   1.899  0.2305  0.4297  0.3652
   74MOL   C10536751   2.624   6.560   1.812 -0.0034 -0.0584 -0.0508
   74MOL   O10636752   2.592   6.578   1.930 -0.1890  0.5593 -0.3523
   74MOL   O10736753   2.573   6.621   1.710  0.2622  0.0552 -0.1032
   74MOL   C10836754   2.444   6.683   1.729 -0.6671  0.0162 -0.1311
   74MOL   C10936755   2.448   6.833   1.749  0.6424  0.6252 -0.7080
   74MOL   C11036756   2.386   6.916   1.654  0.4673 -0.4013  0.1434
   74MOL   C11136757   2.375   7.059   1.671 -0.0905  0.6835  0.1981
   74MOL   C11236758   2.438   7.112   1.782 -0.5027 -1.0668  1.0279
   74MOL   C11336759   2.517   7.038   1.875  0.4164  1.0044  0.0862
   74MOL   C11436760   2.521   6.894   1.858 -0.1102  0.2109 -0.1631
   74MOL   H11536761   2.628   6.357   1.613 -0.5969  0.1952 -0.2146
   74MOL   H11636762   2.731   6.253   1.680  0.6113  1.0409 -0.9285
   74MOL   H11736763   2.817   6.493   1.975 -1.8291  0.0253  0.7217
   74MOL   H11836764   2.924   6.391   1.873  1.3737  2.1713  3.0754
   74MOL   H11936765   2.786   6.336   1.966 -2.3141 -0.5189 -1.9851
   74MOL   H12036766   2.411   6.655   1.630  1.1507 -2.7562  0.0091
   74MOL   H12136767   2.370   6.641   1.798 -2.3651 -0.1210 -1.9990
   74MOL   H12236768   2.354   6.868   1.562  0.4035  2.0129 -1.1434
   74MOL   H12336769   2.317   7.121   1.606  1.8389  1.0403 -1.2292
   74MOL   H12436770   2.436   7.220   1.794 -0.7076 -1.3666  4.1092
   74MOL   H12536771   2.569   7.087   1.957 -1.2731  2.0861  0.5279
   74MOL   H12636772   2.563   6.825   1.930 -1.5304 -1.1291 -0.6020
   74MOL   C12736773   2.826   6.495   1.648  0.6445  0.1261 -0.0845
   74MOL   C12836774   2.928   6.615   1.639 -0.5130  0.4156 -1.0164
   74MOL   C12936775   2.984   6.592   1.497 -0.1386 -0.2228 -0.4595
   74MOL   C13036776   3.042   6.588   1.745  0.1516 -0.3714  0.6398
   74MOL   O13136777   3.135   6.510   1.715  0.2921 -0.2787 -0.2086
   74MOL   O13236778   3.026   6.648   1.864  0.0490 -0.1397 -0.2158
   74MOL   C13336779   3.129   6.651   1.955 -0.4699  0.9930 -0.6378
   74MOL   C13436780   3.171   6.524   2.021  0.1717 -0.2308  0.4628
   74MOL   C13536781   3.083   6.461   2.121 -0.2713  0.0400  0.0433
   74MOL   C13636782   3.138   6.357   2.199 -0.2638  0.0704  0.3120
   74MOL   C13736783   3.264   6.306   2.171  0.6504  0.3262  0.1756
   74MOL   C13836784   3.345   6.366   2.071 -0.5455 -0.3039  0.0177
   74MOL   C13936785   3.299   6.474   1.994 -0.0731 -0.3611 -0.4274
   74MOL   H14036786   2.753   6.523   1.572 -0.9133  0.9710  1.6947
   74MOL   H14136787   2.881   6.404   1.624  2.7389  0.9972  1.3305
   74MOL   H14236788   2.918   6.636   1.422  1.3637  0.8400 -1.1866
   74MOL   H14336789   3.013   6.489   1.477 -0.2769 -0.5515  0.9717
   74MOL   H14436790   3.083   6.636   1.484 -0.8569  2.0463  1.2594
   74MOL   H14536791   3.222   6.701   1.929  1.0208 -1.3963 -0.0752
   74MOL   H14636792   3.092   6.712   2.037 -0.3328 -0.1194  0.2692
   74MOL   H14736793   2.990   6.508   2.147 -0.1400  1.1760 -1.4453
   74MOL   H14836794   3.077   6.312   2.276  0.3256 -0.7454  0.3096
   74MOL   H14936795   3.291   6.216   2.224 -0.2186 -0.3961 -0.5913
   74MOL   H15036796   3.441   6.323   2.049 -1.0057 -0.0952 -2.6132
   74MOL   H15136797   3.353   6.532   1.920 -1.3332  0.1209 -0.9896
   74MOL   C15236798   2.853   6.748   1.657 -0.0122  0.1222 -0.2075
   74MOL   C15336799   2.912   6.887   1.618 -1.0082 -0.2896 -0.8017
   74MOL   C15436800   3.033   6.878   1.515 -0.2485  0.4672  0.0405
   74MOL   C15536801   2.972   6.939   1.757 -0.3356  0.0301 -0.0447
   74MOL   O15636802   3.093   6.950   1.786  0.6205  0.0185 -0.0061
   74MOL   O15736803   2.870   6.976   1.845 -0.1554 -0.0268  0.0955
   74MOL   C15836804   2.897   7.050   1.971  0.4192  0.0309  0.0832
   74MOL   C15936805   2.863   6.970   2.096  0.4749  0.9533  0.1208
   74MOL   C16036806   2.852   7.028   2.224  0.0130  0.0610  0.0393
   74MOL   C16136807   2.815   6.953   2.340  0.7728  0.0833  0.0432
   74MOL   C16236808   2.796   6.818   2.323  0.3297 -0.7917  0.2748
   74MOL   C16336809   2.819   6.749   2.201  0.0190 -0.1887  0.2138
   74MOL   C16436810   2.844   6.829   2.083  0.3648  0.6482  0.3612
   74MOL   H16536811   2.820   6.747   1.761  0.1023 -1.3041 -0.1753
   74MOL   H16636812   2.757   6.749   1.607 -0.0777  4.1283 -0.1750
   74MOL   H16736813   3.116   6.816   1.547 -0.1143  0.2288 -0.7461
   74MOL   H16836814   3.078   6.972   1.484  1.3250 -1.0240 -2.3514
   74MOL   H16936815   2.989   6.857   1.417  1.7467  1.6237 -1.1424
   74MOL   H17036816   3.001   7.084   1.975  0.1535  1.0085 -1.0638
   74MOL   H17136817   2.829   7.133   1.951  1.9625  1.0767 -0.9632
   74MOL   H17236818   2.868   7.135   2.231 -0.3581 -0.0012  2.2211
   74MOL   H17336819   2.799   6.997   2.437  1.1671  0.5630 -0.1069
   74MOL   H17436820   2.758   6.759   2.405 -1.8076 -2.9821 -2.1809
   74MOL   H17536821   2.784   6.648   2.185 -4.0490  1.0114  1.0612
   74MOL   H17636822   2.839   6.786   1.984  1.7523  1.0060  0.1257
   74MOL   C17736823   2.799   6.981   1.559  0.1144  0.1044  0.1076
   74MOL   C17836824   2.830   7.118   1.473 -0.1823  0.2447 -0.5840
   74MOL   C17936825   2.864   7.083   1.329 -0.1668 -0.1410  0.2837
   74MOL   C18036826   2.945   7.206   1.538 -0.2177  1.0436  0.1684
   74MOL   O18136827   3.049   7.228   1.474 -0.6498 -0.0416 -0.0292
   74MOL   O18236828   2.922   7.235   1.666 -0.7442 -0.2352  0.5653
   74MOL   C18336829   3.008   7.317   1.737  0.1762  0.4339  0.6376
   74MOL   C18436830   2.957   7.374   1.867 -0.1606  0.2421  0.0380
   74MOL   C18536831   2.824   7.430   1.863 -0.8252 -0.0413  0.0464
   74MOL   C18636832   2.768   7.497   1.973  0.6112 -0.0730  0.1477
   74MOL   C18736833   2.846   7.510   2.088  0.3283 -0.1493  0.0558
   74MOL   C18836834   2.972   7.444   2.099  0.2910  0.6474 -0.3211
   74MOL   C18936835   3.025   7.380   1.990  0.4861  0.5314  0.8712
   74MOL   H19036836   2.721   7.000   1.633  1.8499 -1.5533  2.4470
   74MOL   H19136837   2.735   6.915   1.501 -1.6596  0.9369  1.0789
   74MOL   H19236838   2.960   7.033   1.314  1.2084  1.7627  2.4835
   74MOL   H19336839   2.887   7.175   1.275  1.5560 -1.1685 -0.7944
   74MOL   H19436840   2.796   7.015   1.277  0.6187  0.6039 -1.7635
   74MOL   H19536841   3.100   7.258   1.741 -0.1812 -0.4082 -2.0784
   74MOL   H19636842   3.050   7.394   1.671  0.5593 -0.4681 -0.1894
   74MOL   H19736843   2.756   7.427   1.780 -2.1480 -0.9186  1.1363
   74MOL   H19836844   2.665   7.530   1.970  0.6901  0.2445  0.8068
   74MOL   H19936845   2.803   7.562   2.172 -1.0411  1.3092 -1.5166
   74MOL   H20036846   3.030   7.452   2.189 -0.9171 -1.2093  0.6549
   74MOL   H20136847   3.117   7.327   2.012  1.0473  1.4083  0.6682
   74MOL   C20236848   2.696   7.198   1.480 -0.1708  0.9667 -0.0844
   74MOL   C20336849   2.662   7.319   1.385  0.5034  1.1872  0.0013
   74MOL   C20436850   2.597   7.259   1.257 -0.1421  0.2362 -0.4652
   74MOL   C20536851   2.773   7.417   1.358 -0.1581  0.4070  0.0936
   74MOL   O20636852   2.829   7.425   1.248  0.4088 -0.3514 -0.3451
   74MOL   O20736853   2.809   7.486   1.461  0.1551 -0.5794 -0.3870
   74MOL   C20836854   2.926   7.568   1.453 -0.3612  0.3832 -0.4386
   74MOL   C20936855   2.984   7.630   1.578  0.4983  0.4220 -0.2500
   74MOL   C21036856   2.898   7.705   1.665  0.2231  0.7714 -0.2208
   74MOL   C21136857   2.950   7.763   1.777  0.6206  0.6247  0.0797
   74MOL   C21236858   3.087   7.764   1.803 -0.1377 -0.0424 -0.3935
   74MOL   C21336859   3.177   7.694   1.721 -0.0120  0.7714  0.3687
   74MOL   C21436860   3.125   7.637   1.602 -0.2453  0.8308  0.3756
   74MOL   H21536861   2.696   7.235   1.582  1.2502 -0.3832  0.4208
   74MOL   H21636862   2.621   7.120   1.466 -0.8926  1.4457  1.0627
   74MOL   H21736863   2.581   7.335   1.180 -0.6890 -0.3741 -0.9695
   74MOL   H21836864   2.505   7.205   1.281  0.8493 -0.4359  1.8825
   74MOL   H21936865   2.669   7.186   1.219 -0.6664 -0.4715 -0.1174
   74MOL   H22036866   3.011   7.514   1.412  0.3130  1.7479 -0.8728
   74MOL   H22136867   2.914   7.656   1.389  0.7740  0.9481  0.1076
   74MOL   H22236868   2.794   7.722   1.640  0.0660  1.2627  0.7652
   74MOL   H22336869   2.880   7.823   1.833  0.9254  0.2695  0.8531
   74MOL   H22436870   3.128   7.811   1.891  1.1526 -0.4246 -0.7786
   74MOL   H22536871   3.283   7.700   1.740 -0.1360  2.1292  0.6869
   74MOL   H22636872   3.196   7.599   1.530  0.6534 -1.4884  2.4198
   74MOL   C22736873   2.548   7.386   1.467  0.7259  0.3117  0.5978
   74MOL   C22836874   2.452   7.505   1.428  0.1815  0.3116 -0.2931
   74MOL   C22936875   2.381   7.546   1.559 -0.3482 -0.1626  0.2113
   74MOL   C23036876   2.346   7.451   1.327 -0.3527 -0.2821  0.6754
   74MOL   O23136877   2.345   7.482   1.204  0.2640  0.0893 -0.6831
   74MOL   O23236878   2.258   7.366   1.382 -0.2455 -0.3054  0.3900
   74MOL   C23336879   2.168   7.308   1.297  0.4765  0.2300 -0.0309
   74MOL   C23436880   2.067   7.210   1.369  0.8563  0.3911 -0.6775
   74MOL   C23536881   1.992   7.123   1.288 -0.7082  0.1299  0.2055
   74MOL   C23636882   1.906   7.029   1.345 -0.4139 -0.1645  0.0096
   74MOL   C23736883   1.896   7.020   1.487 -0.2967 -0.5561  0.4351
   74MOL   C23836884   1.972   7.107   1.568  0.6613  0.8181 -0.8556
   74MOL   C23936885   2.054   7.207   1.509  0.3869 -0.3423  0.6719
   74MOL   H24036886   2.590   7.430   1.556 -0.5197  2.8970 -0.0416
   74MOL   H24136887   2.480   7.307   1.501 -1.4801  0.4410 -3.2109
   74MOL   H24236888   2.331   7.458   1.600  1.8259 -0.7020  1.8045
   74MOL   H24336889   2.299   7.618   1.552 -0.8829 -0.7698  0.1823
   74MOL   H24436890   2.450   7.587   1.633  2.0069 -0.1927 -1.8768
   74MOL   H24536891   2.109   7.383   1.245 -0.4043 -1.3895 -1.4149
   74MOL   H24636892   2.235   7.258   1.228 -0.2995  0.5315 -1.0077
   74MOL   H24736893   2.012   7.112   1.182 -1.4753 -1.5129  0.2212
   74MOL   H24836894   1.848   6.962   1.284 -0.3459 -0.3558  0.1553
   74MOL   H24936895   1.836   6.940   1.529  2.6036 -2.1504  1.6857
   74MOL   H25036896   1.961   7.109   1.676  0.7494  0.5868 -0.8426
   74MOL   H25136897   2.107   7.277   1.571  0.2381  0.2550  0.1252
   74MOL   C25236898   2.528   7.634   1.380  0.4474 -0.8867 -0.0592
   74MOL   C25336899   2.477   7.785   1.371  0.2138  0.6077 -0.2127
   74MOL   C25436900   2.479   7.854   1.511  0.1587 -0.4180 -0.1592
   74MOL   C25536901   2.336   7.781   1.307 -0.4896 -0.0154 -0.2516
   74MOL   O25636902   2.238   7.823   1.374  0.4605  0.2063 -0.9445
   74MOL   O25736903   2.337   7.752   1.170  0.2418 -0.1867 -0.2104
   74MOL   C25836904   2.208   7.759   1.097  0.5529 -0.1290  0.3333
   74MOL   C25936905   2.214   7.697   0.959 -0.0349  0.7570 -0.6152
   74MOL   C26036906   2.289   7.753   0.856  0.3199  0.0020  0.5770
   74MOL   C26136907   2.312   7.686   0.731  0.2750  0.4669 -0.3777
   74MOL   C26236908   2.264   7.556   0.715  0.7976 -0.1475 -0.0286
   74MOL   C26336909   2.184   7.502   0.817  0.5741  0.3433  0.1646
   74MOL   C26436910   2.151   7.576   0.937  0.0883  0.5479 -0.3585
   74MOL   H26536911   2.564   7.620   1.278  0.8573 -0.6307  0.0507
   74MOL   H26636912   2.612   7.647   1.448  1.0322 -1.8259 -0.6005
   74MOL   H26736913   2.415   7.806   1.586  0.9469 -1.1066  0.0700
   74MOL   H26836914   2.429   7.950   1.496 -0.6458 -0.9758 -1.1386
   74MOL   H26936915   2.580   7.875   1.544  0.2807 -0.0187 -0.7774
   74MOL   H27036916   2.126   7.711   1.150 -0.0918  0.1255 -0.4194
   74MOL   H27136917   2.169   7.859   1.078  1.1703  0.1411  0.4838
   74MOL   H27236918   2.330   7.853   0.865 -0.9669  0.5703  0.2829
   74MOL   H27336919   2.362   7.739   0.651  0.2345 -0.8599 -1.2989
   74MOL   H27436920   2.277   7.507   0.620  2.5700  0.9462 -0.3772
   74MOL   H27536921   2.133   7.408   0.801 -1.4943  1.7988 -2.2484
   74MOL   H27636922   2.083   7.532   1.008 -2.6067  1.0273 -2.5425
   74MOL   C27736923   2.581   7.861   1.279  0.5971  1.1228 -0.0524
   74MOL   C27836924   2.593   0.014   1.258  0.2715  0.0560 -0.0095
   74MOL   C27936925   2.458   0.069   1.203  0.0395 -1.1367 -0.0468
   74MOL   C28036926   2.695   0.030   1.149 -0.2251 -0.5088 -0.1802
   74MOL   O28136927   2.668   0.094   1.045  0.0915 -0.4294 -0.0528
   74MOL   O28236928   2.815   7.987   1.167  0.0817 -0.2178 -0.1958
   74MOL   C28336929   2.919   0.001   1.067 -0.1191  0.0293  0.3860
   74MOL   C28436930   3.011   7.890   1.049 -0.4600  1.0744  0.6556
   74MOL   C28536931   3.082   7.861   0.929  0.8872  0.2818  0.1487
   74MOL   C28636932   3.145   7.743   0.909 -0.0245 -0.3289  0.2331
   74MOL   C28736933   3.154   7.650   1.013 -0.4005  0.1136 -0.7899
   74MOL   C28836934   3.090   7.676   1.135  0.3398 -0.7411 -0.2941
   74MOL   C28936935   3.022   7.797   1.149 -0.3671  0.0287  0.5771
   74MOL   H29036936   2.593   7.811   1.183  2.6782  0.5040  0.4976
   74MOL   H29136937   2.678   7.834   1.321  0.3290  1.5417  0.8502
   74MOL   H29236938   2.406   0.100   1.294 -0.1118 -1.0987 -0.1473
   74MOL   H29336939   2.408   8.004   1.139  0.2251 -0.2700 -1.1651
   74MOL   H29436940   2.462   0.157   1.139  0.8886 -1.8838 -1.0544
   74MOL   H29536941   2.874   0.014   0.968  1.4180 -1.4508 -0.5342
   74MOL   H29636942   2.972   0.088   1.105 -0.6637  0.9567 -0.9276
   74MOL   H29736943   3.088   7.940   0.855  0.2417  1.2776  1.1336
   74MOL   H29836944   3.195   7.732   0.814 -0.6466 -2.1463  0.1031
   74MOL   H29936945   3.233   7.576   1.010 -0.0347  0.4393  0.6956
   74MOL   H30036946   3.090   7.598   1.210  0.5884 -0.5942 -0.1425
   74MOL   H30136947   2.980   7.820   1.246  1.4114 -0.4643  1.4944
   74MOL   C30236948   2.647   0.082   1.383  0.0246 -0.1916  0.2833
   74MOL   C30336949   2.678   0.239   1.399 -0.3609  0.8872  1.0206
   74MOL   C30436950   2.680   0.264   1.551 -0.3615  0.3851 -0.3412
   74MOL   C30536951   2.566   0.327   1.341 -0.6899 -0.2546 -0.0165
   74MOL   O30636952   2.579   0.396   1.236  0.1456  0.2722  0.3461
   74MOL   O30736953   2.458   0.318   1.410  0.1228  0.4159  0.7119
   74MOL   C30836954   2.343   0.388   1.372  0.3873  0.0992 -0.2237
   74MOL   C30936955   2.250   0.384   1.493 -0.0815  0.5319  0.2467
   74MOL   C31036956   2.249   0.495   1.581  0.4674 -0.0612 -0.2226
   74MOL   C31136957   2.168   0.488   1.697  0.1049  0.5499 -0.2032
   74MOL   C31236958   2.102   0.371   1.730  0.6037 -0.5573  0.0436
   74MOL   C31336959   2.100   0.259   1.644  0.0960  0.1882 -0.0912
   74MOL   C31436960   2.178   0.270   1.526  0.3174  0.6366 -0.2287
   74MOL   H31536961   2.733   0.027   1.421  1.3848  2.5265  1.2427
   74MOL   H31636962   2.575   0.074   1.465  1.1783 -1.3405  1.2002
   74MOL   H31736963   2.584   0.240   1.597 -0.5318 -0.0538 -0.9225
   74MOL   H31836964   2.705   0.369   1.567 -1.0356  0.6841 -1.2131
   74MOL   H31936965   2.753   0.200   1.601  0.5017  1.7509  0.1902
   74MOL   H32036966   2.376   0.487   1.344  0.0970  0.4818  0.7524
   74MOL   H32136967   2.299   0.348   1.280  0.2535 -0.9800  0.2919
   74MOL   H32236968   2.310   0.582   1.561 -3.7479  2.3422 -3.4491
   74MOL   H32336969   2.178   0.567   1.771 -2.7995  0.2152  0.5929
   74MOL   H32436970   2.043   0.365   1.820  0.4661  2.4295  0.2004
   74MOL   H32536971   2.048   0.169   1.671  1.1769 -0.3399  0.2576
   74MOL   H32636972   2.170   0.186   1.458  2.4012  0.1311  0.1167
   74MOL   C32736973   2.822   0.288   1.334 -0.2189 -0.4484 -0.1261
   74MOL   C32836974   2.908   0.413   1.378 -0.3501 -0.5061  0.4818
   74MOL   C32936975   2.809   0.533   1.393 -0.2163 -0.1415  0.0820
   74MOL   C33036976   3.010   0.435   1.264  0.1424  0.5135 -0.5001
   74MOL   O33136977   3.021   0.553   1.223 -0.2660 -0.2148  0.1804
   74MOL   O33236978   3.084   0.326   1.235 -0.0188 -0.2565 -0.0113
   74MOL   C33336979   3.188   0.334   1.137  0.2260 -0.8428 -0.5869
   74MOL   C33436980   3.324   0.376   1.190  0.6400 -0.2412  0.6684
   74MOL   C33536981   3.409   0.282   1.246  0.0564  0.0724 -0.1412
   74MOL   C33636982   3.543   0.314   1.276 -0.3948  0.3092  0.1239
   74MOL   C33736983   3.590   0.449   1.253 -0.4149 -0.1461 -0.0401
   74MOL   C33836984   3.498   0.539   1.195  0.7954 -0.4778 -0.3860
   74MOL   C33936985   3.368   0.505   1.161 -0.7928 -0.0100 -0.0335
   74MOL   H34036986   2.809   0.295   1.226 -1.8603 -0.9489  0.0214
   74MOL   H34136987   2.884   0.199   1.333  1.1458  0.3629  3.8285
   74MOL   H34236988   2.775   0.568   1.295  2.7466  3.4373  0.2143
   74MOL   H34336989   2.867   0.621   1.421  2.0747 -1.0608 -1.5705
   74MOL   H34436990   2.720   0.537   1.455  1.6831  1.2237  2.8459
   74MOL   H34536991   3.198   0.231   1.105 -0.4592 -0.8614 -0.7642
   74MOL   H34636992   3.163   0.401   1.054 -0.4785 -1.5654 -0.9619
   74MOL   H34736993   3.365   0.183   1.253  1.2863 -0.3936  1.4013
   74MOL   H34836994   3.603   0.235   1.320  0.9941  1.8862  1.1341
   74MOL   H34936995   3.687   0.484   1.282 -1.0632  2.7577 -1.2115
   74MOL   H35036996   3.528   0.642   1.184  1.1338 -0.6955 -1.5670
   74MOL   H35136997   3.298   0.580   1.128  1.2133  2.6890  1.6537
   74MOL   C35236998   2.986   0.377   1.508 -0.0479 -0.3910  0.4574
   74MOL   C35336999   3.072   0.479   1.597  0.0860 -0.1752  0.4128
   74MOL   C35437000   3.151   0.589   1.513 -0.1735 -0.1312 -0.8137
   74MOL   C35537001   3.177   0.385   1.666 -0.0822  0.2908 -0.6559
   74MOL   O35637002   3.296   0.381   1.631 -0.2960 -0.0819  0.2807
   74MOL   O35737003   3.126   0.301   1.755 -0.2153 -0.1865 -0.5361
   74MOL   C35837004   3.206   0.208   1.831  0.2135  0.1691  0.4876
   74MOL   C35937005   3.141   0.172   1.964  0.3455 -0.0046  0.0774
   74MOL   C36037006   3.194   0.227   2.085  0.6618 -0.4582  0.3195
   74MOL   C36137007   3.142   0.190   2.208  1.0057  0.5458  0.0493
   74MOL   C36237008   3.026   0.114   2.220 -0.1456  0.3087  0.1421
   74MOL   C36337009   2.975   0.060   2.102  0.5081  0.3433  0.2977
   74MOL   C36437010   3.029   0.090   1.973 -0.2490  0.3497  0.4133
   74MOL   H36537011   3.054   0.297   1.478  0.5604  0.6178 -0.9174
   74MOL   H36637012   2.918   0.324   1.574 -1.8320 -1.0352 -1.8590
   74MOL   H36737013   3.218   0.649   1.575 -1.7544  0.2228  0.5966
   74MOL   H36837014   3.096   0.654   1.446  1.1086  1.0979 -0.6976
   74MOL   H36937015   3.220   0.551   1.437  0.7056  1.8489 -1.0389
   74MOL   H37037016   3.227   0.119   1.770 -1.2567 -0.4164  0.8159
   74MOL   H37137017   3.300   0.258   1.855  0.4834 -0.4576  0.7523
   74MOL   H37237018   3.264   0.309   2.086 -0.2124  0.2914  1.2797
   74MOL   H37337019   3.189   0.213   2.302  0.7402  1.1163  0.0431
   74MOL   H37437020   2.978   0.100   2.315  0.2683  0.8002  0.4229
   74MOL   H37537021   2.874   0.021   2.105  1.3786 -1.9377  0.8468
   74MOL   H37637022   2.973   0.070   1.883  0.0602 -0.1668  0.3316
   74MOL   C37737023   2.971   0.539   1.706  0.5523 -0.3932  0.1127
   74MOL   C37837024   2.998   0.642   1.820  0.8620  0.4219  0.9208
   74MOL   C37937025   3.015   0.790   1.768 -0.4283  0.0043 -0.1932
   74MOL   C38037026   3.133   0.612   1.896 -0.3543  0.3227  0.6501
   74MOL   O38137027   3.130   0.552   2.000  0.1063 -0.0393  0.0822
   74MOL   O38237028   3.253   0.641   1.836 -0.1236 -0.0375  0.0019
   74MOL   C38337029   3.375   0.601   1.887  0.5717  0.0363 -0.0271
   74MOL   C38437030   3.490   0.657   1.807  0.4650  0.1960  0.0620
   74MOL   C38537031   3.526   0.792   1.820 -0.6102 -0.2557  0.2060
   74MOL   C38637032   3.631   0.847   1.741 -0.2227  0.2051  0.7176
   74MOL   C38737033   3.692   0.770   1.639  0.2813 -0.4477  0.0624
   74MOL   C38837034   3.649   0.637   1.625 -0.0443 -0.1637  0.9998
   74MOL   C38937035   3.548   0.580   1.702  0.1069 -0.4948 -0.4438
   74MOL   H39037036   2.929   0.448   1.750 -0.3488  0.5449  1.2238
   74MOL   H39137037   2.895   0.584   1.642  0.7567 -0.3819 -0.1238
   74MOL   H39237038   3.029   0.859   1.852  1.0648 -1.7535  1.0540
   74MOL   H39337039   2.936   0.826   1.702  1.8484  1.2900 -2.3131
   74MOL   H39437040   3.105   0.793   1.708 -1.5066  0.1175 -1.8273
   74MOL   H39537041   3.381   0.643   1.988 -0.8268 -0.7744  0.4032
   74MOL   H39637042   3.381   0.493   1.875  0.1463  0.3528 -3.7299
   74MOL   H39737043   3.475   0.855   1.892 -2.7237 -1.1710 -0.4721
   74MOL   H39837044   3.656   0.952   1.751 -1.1543  0.5399 -0.3652
   74MOL   H39937045   3.774   0.808   1.580  1.6305  1.1187  2.8439
   74MOL   H40037046   3.705   0.586   1.548 -0.9818  0.5319 -0.1650
   74MOL   H40137047   3.510   0.481   1.684  0.4769 -1.1065  2.0383
   74MOL   C40237048   2.881   0.670   1.924 -0.6164 -0.1484  0.5907
   74MOL   C40337049   2.792   0.560   1.987 -0.5290  0.2157 -0.0849
   74MOL   C40437050   2.876   0.440   2.035 -0.1583  0.2880  0.5076
   74MOL   C40537051   2.689   0.493   1.898 -0.4413 -0.2966 -0.2978
   74MOL   O40637052   2.673   0.524   1.780  0.0895  0.2271 -0.0104
   74MOL   O40737053   2.611   0.411   1.965  0.9865 -0.5046 -0.1625
   74MOL   C40837054   2.495   0.354   1.901  0.3646 -0.7035  0.1299
   74MOL   C40937055   2.502   0.203   1.882  0.1610  0.2277  0.4258
   74MOL   C41037056   2.605   0.130   1.941  0.2344 -0.1441 -0.9697
   74MOL   C41137057   2.602   7.996   1.939 -0.8953  0.0891  0.0566
   74MOL   C41237058   2.501   7.933   1.859  0.4288 -0.6928 -0.0358
   74MOL   C41337059   2.394   0.005   1.807  0.5109 -0.0730  0.3892
   74MOL   C41437060   2.398   0.143   1.819  0.6773 -0.5631  0.3243
   74MOL   H41537061   2.811   0.738   1.875 -0.5812  0.9121  1.9783
   74MOL   H41637062   2.923   0.713   2.014 -1.9903  0.9077  0.7592
   74MOL   H41737063   2.937   0.465   2.122 -0.0214  1.3307  0.1225
   74MOL   H41837064   2.925   0.380   1.958 -4.0302 -2.8436  0.3059
   74MOL   H41937065   2.812   0.365   2.080  0.2548 -0.8722 -0.7868
   74MOL   H42037066   2.407   0.385   1.957 -0.2595  0.2298 -1.3397
   74MOL   H42137067   2.476   0.398   1.803  1.3758  1.6858  0.9728
   74MOL   H42237068   2.679   0.176   2.005  1.6852 -3.5602 -0.0855
   74MOL   H42337069   2.679   7.938   1.988  1.0992  0.3226 -2.6691
   74MOL   H42437070   2.504   7.826   1.846  3.3022 -0.5684 -0.6704
   74MOL   H42537071   2.317   7.963   1.750  0.4667 -0.3033  0.6446
   74MOL   H42637072   2.330   0.217   1.779 -1.7503 -1.0015  3.4365
   74MOL   C42737073   2.718   0.620   2.120  0.2472  0.0102 -0.1864
   74MOL   C42837074   2.617   0.740   2.120 -0.2146 -0.0318 -0.8830
   74MOL   C42937075   2.550   0.738   2.263 -0.3220  0.6377 -0.3911
   74MOL   C43037076   2.504   0.718   2.014 -0.1875 -0.2644  0.4090
   74MOL   O43137077   2.397   0.659   2.046 -0.1916 -0.2015  0.4069
   74MOL   O43237078   2.529   0.756   1.886  0.5437  0.2054 -0.5161
   74MOL   C43337079   2.431   0.737   1.788  0.5175  0.3714  0.3242
   74MOL   C43437080   2.464   0.813   1.662 -0.6168  0.1649 -0.0216
   74MOL   C43537081   2.543   0.750   1.561  0.2083 -0.0229  0.0451
   74MOL   C43637082   2.571   0.831   1.447  0.2680  0.9231  0.5253
   74MOL   C43737083   2.530   0.960   1.439 -1.1448 -0.0632  0.2835
   74MOL   C43837084   2.469   1.025   1.552  0.7086 -0.8721  0.0471
   74MOL   C43937085   2.436   0.950   1.660  0.2396 -0.4015  0.2789
   74MOL   H44037086   2.796   0.644   2.193 -1.8489 -0.4538  2.2870
   74MOL   H44137087   2.668   0.534   2.164  0.1062  0.2050  0.0336
   74MOL   H44237088   2.624   0.757   2.341  0.2908  0.1922 -0.8697
   74MOL   H44337089   2.520   0.636   2.286  1.1035  0.0478 -1.1149
   74MOL   H44437090   2.469   0.808   2.287  0.7732  1.6576  0.3781
   74MOL   H44537091   2.412   0.631   1.770 -0.6353  0.6386 -0.0768
   74MOL   H44637092   2.338   0.777   1.830  1.1620  1.2940  0.8949
   74MOL   H44737093   2.573   0.646   1.567 -0.2716 -0.0835  1.7268
   74MOL   H44837094   2.623   0.789   1.362 -1.0440 -4.6014  2.2196
   74MOL   H44937095   2.556   1.024   1.356  1.5137  0.0958  1.2001
   74MOL   H45037096   2.449   1.131   1.556  2.0278 -0.5636 -0.9728
   74MOL   H45137097   2.375   0.985   1.742  0.0008  1.0672 -0.5072
   74MOL   C45237098   2.701   0.877   2.094 -0.4940  0.0310  0.3706
   74MOL   C45337099   2.643   1.025   2.114  1.0478 -0.2626  0.5819
   74MOL   C45437100   2.753   1.122   2.068 -0.0259  0.0231  0.4131
   74MOL   C45537101   2.611   1.052   2.267 -0.1077  0.0402  0.1185
   74MOL   O45637102   2.498   1.068   2.304  0.1079 -0.5357 -0.3627
   74MOL   O45737103   2.714   1.056   2.340 -0.2359  0.4193 -0.2801
   74MOL   C45837104   2.710   1.088   2.482 -0.1549  0.3586 -0.3932
   74MOL   C45937105   2.672   0.964   2.560  0.5165 -0.9902 -0.2233
   74MOL   C46037106   2.755   0.855   2.571  0.1776 -0.4204 -0.6355
   74MOL   C46137107   2.704   0.751   2.644 -1.3009 -0.6483 -0.0301
   74MOL   C46237108   2.574   0.750   2.686  0.3743  0.2179 -0.0891
   74MOL   C46337109   2.482   0.857   2.671 -0.6100  0.2368 -0.0972
   74MOL   C46437110   2.536   0.961   2.599 -0.6455  0.6851  0.1201
   74MOL   H46537111   2.753   0.886   1.999  1.1726  0.7646  1.3279
   74MOL   H46637112   2.790   0.880   2.157 -0.1983 -0.7373 -0.0060
   74MOL   H46737113   2.843   1.125   2.129 -0.2523 -1.4046  0.8514
   74MOL   H46837114   2.702   1.218   2.074  1.2191  0.6427  1.2216
   74MOL   H46937115   2.785   1.094   1.967  0.4360  1.8584  0.0299
   74MOL   H47037116   2.812   1.120   2.502  0.1442 -0.7760 -0.0494
   74MOL   H47137117   2.641   1.170   2.501 -0.0525  0.7473 -1.6777
   74MOL   H47237118   2.859   0.857   2.542  1.1056  1.8936  2.4586
   74MOL   H47337119   2.762   0.663   2.671  0.3797  0.1214 -1.0477
   74MOL   H47437120   2.531   0.670   2.744  1.9696  0.3998  1.3638
   74MOL   H47537121   2.382   0.844   2.710 -0.3796 -1.2347  0.0395
   74MOL   H47637122   2.489   1.058   2.593  0.1723  1.1038  0.4232
   74MOL   C47737123   2.516   1.049   2.025  0.5085 -0.0226 -0.5769
   74MOL   C47837124   2.448   1.185   2.028 -0.5696  0.3039 -0.2745
   74MOL   C47937125   2.302   1.167   2.070 -0.3592  0.3231  0.2855
   74MOL   C48037126   2.449   1.261   1.891  0.3326 -0.4418 -0.7785
   74MOL   O48137127   2.342   1.298   1.834  0.1061 -0.0420  0.9186
   74MOL   O48237128   2.566   1.280   1.849  0.2541 -0.2087  0.4780
   74MOL   C48337129   2.586   1.365   1.732  0.4145  0.3557  0.0583
   74MOL   C48437130   2.709   1.314   1.648  0.4508  0.2553  0.0548
   74MOL   C48537131   2.712   1.294   1.514  0.3951 -0.6776  0.4308
   74MOL   C48637132   2.828   1.245   1.446  0.1507 -0.5300  0.2691
   74MOL   C48737133   2.935   1.196   1.520 -0.7367 -0.8198 -0.0730
   74MOL   C48837134   2.933   1.212   1.661 -0.4252  0.1439  0.8330
   74MOL   C48937135   2.824   1.276   1.722 -0.5171 -0.1607 -0.0027
   74MOL   H49037136   2.437   0.977   2.046 -1.5939  1.7886 -2.1069
   74MOL   H49137137   2.541   1.028   1.921  0.1771  1.9701 -1.0748
   74MOL   H49237138   2.286   1.145   2.175  1.1025  0.7583  0.6036
   74MOL   H49337139   2.246   1.092   2.014 -0.7264  0.3504  0.6171
   74MOL   H49437140   2.249   1.260   2.052 -2.3750 -1.2294 -2.1452
   74MOL   H49537141   2.497   1.366   1.668 -0.2569 -2.2441  0.8777
   74MOL   H49637142   2.616   1.466   1.758 -1.6434  0.5169  2.0035
   74MOL   H49737143   2.619   1.322   1.465  1.2844 -0.2636 -1.0309
   74MOL   H49837144   2.834   1.225   1.340  0.8457  2.8304 -0.3844
   74MOL   H49937145   3.029   1.159   1.483  0.1156 -1.7498  2.8446
   74MOL   H50037146   3.011   1.183   1.730  1.6593  0.9470 -1.1284
   74MOL   H50137147   2.820   1.295   1.828  2.1563  0.4012  0.0538
   74MOL   H50237148   2.497   1.246   2.104  0.9678 -0.7116 -0.4301
   75MOL     C137149   4.932   2.789   6.953  0.5291 -0.6891  1.1093
   75MOL     C237150   4.945   2.937   6.910  0.2081  0.2104 -0.2365
   75MOL     C337151   5.060   2.949   6.815  0.5374 -0.0995  0.7420
   75MOL     C437152   4.984   3.031   7.034  0.3936  0.3581 -0.4052
   75MOL     O537153   5.002   2.992   7.147  0.7500 -0.5726  0.1215
   75MOL     O637154   4.978   3.156   7.000 -0.0210 -0.6265 -0.1716
   75MOL     C737155   5.003   3.256   7.091 -0.6464  0.0344  0.2019
   75MOL     C837156   4.978   3.391   7.032  0.3230 -0.8846 -0.2355
   75MOL     C937157   4.867   3.469   7.070 -0.1545 -0.2350  0.1811
   75MOL    C1037158   4.847   3.602   7.021 -0.3485  0.2234  0.7918
   75MOL    C1137159   4.939   3.648   6.926 -0.1391  0.3421 -0.0178
   75MOL    C1237160   5.051   3.573   6.888 -0.3643 -0.5414 -0.6912
   75MOL    C1337161   5.071   3.443   6.943  0.6093 -0.7788  0.1776
   75MOL    H1437162   4.881   2.766   7.046  0.2556  1.1910  1.4415
   75MOL    H1537163   4.879   2.726   6.882 -0.0308 -1.6491  2.3547
   75MOL    H1637164   5.098   3.043   6.776 -1.5960  0.1663 -0.7945
   75MOL    H1737165   5.025   2.892   6.729 -1.0048  1.4822  0.2928
   75MOL    H1837166   5.150   2.897   6.849  0.2982  0.2821  2.0003
   75MOL    H1937167   4.946   3.240   7.183 -0.8317 -1.5537 -0.1830
   75MOL    H2037168   5.109   3.246   7.112 -1.0223 -1.0693  1.7160
   75MOL    H2137169   4.796   3.424   7.138 -2.0774  0.0662 -1.5767
   75MOL    H2237170   4.758   3.656   7.049 -1.8121 -0.6133 -2.1115
   75MOL    H2337171   4.933   3.748   6.885 -0.0948 -0.4200 -1.9207
   75MOL    H2437172   5.132   3.605   6.825 -1.1899  1.4244 -0.8061
   75MOL    H2537173   5.155   3.382   6.913  1.1243 -0.3830  0.7992
   75MOL    H2637174   5.031   2.753   6.981 -0.1963 -1.9487  2.1251
   75MOL    C2737175   4.814   2.986   6.839  0.7371  0.0189  0.3929
   75MOL    C2837176   4.672   2.986   6.916  0.8615  0.2623 -0.0534
   75MOL    C2937177   4.687   3.016   7.062  0.0932 -0.2108  0.1499
   75MOL    C3037178   4.609   2.845   6.897  0.0751  0.3653  0.2498
   75MOL    O3137179   4.576   2.810   6.787  0.3426  0.0444  0.3358
   75MOL    O3237180   4.597   2.765   7.010  0.1157 -0.3983  0.2511
   75MOL    C3337181   4.555   2.631   6.996 -0.7434  0.9907  0.5583
   75MOL    C3437182   4.667   2.534   7.014  0.0359 -0.2471  0.2025
   75MOL    C3537183   4.720   2.457   6.905  0.1638 -0.4418 -0.3084
   75MOL    C3637184   4.831   2.377   6.930 -0.0308  0.6684 -0.1697
   75MOL    C3737185   4.902   2.372   7.049 -0.0705  0.6977  0.1681
   75MOL    C3837186   4.846   2.449   7.152 -0.2097 -0.6729  0.2613
   75MOL    C3937187   4.737   2.533   7.138 -0.3673  0.7997 -0.3261
   75MOL    H4037188   4.796   2.940   6.742  1.3019 -1.7218  1.1116
   75MOL    H4137189   4.829   3.090   6.808 -1.7341  1.1601  2.8304
   75MOL    H4237190   4.591   3.003   7.112  1.2715  0.0990  2.5243
   75MOL    H4337191   4.734   3.111   7.086  1.1862 -0.7114  0.0185
   75MOL    H4437192   4.750   2.942   7.112  0.3740 -0.4696 -0.5828
   75MOL    H4537193   4.475   2.621   7.069 -1.4189 -0.6780 -0.3778
   75MOL    H4637194   4.484   2.604   6.917 -0.9539 -1.0343  1.3997
   75MOL    H4737195   4.672   2.470   6.809 -1.3747  2.3888  0.7709
   75MOL    H4837196   4.881   2.322   6.852  2.4589  0.4133  1.5799
   75MOL    H4937197   4.992   2.314   7.064  0.2000  1.2495  0.7063
   75MOL    H5037198   4.895   2.439   7.248  0.0485  1.3182  0.3607
   75MOL    H5137199   4.705   2.600   7.216  1.7277  0.8296  0.5367
   75MOL    C5237200   4.587   3.100   6.847  0.9898 -0.2446 -0.0651
   75MOL    C5337201   4.438   3.147   6.878 -0.3467 -0.2964 -0.3097
   75MOL    C5437202   4.431   3.218   7.020  0.0074  0.1343 -0.3744
   75MOL    C5537203   4.352   3.013   6.886 -0.9085 -0.5963 -0.2884
   75MOL    O5637204   4.310   2.970   6.993  0.5052  0.1522 -0.0008
   75MOL    O5737205   4.330   2.955   6.768  0.2237  0.2685 -0.4168
   75MOL    C5837206   4.256   2.835   6.752  0.3012  0.1731  0.4492
   75MOL    C5937207   4.127   2.863   6.683 -0.7901 -0.4992  0.7194
   75MOL    C6037208   4.041   2.962   6.739 -0.0344 -0.4474 -0.0309
   75MOL    C6137209   3.920   2.997   6.674  0.8039 -0.7806  0.0097
   75MOL    C6237210   3.884   2.923   6.555  0.5501 -0.2993 -0.0615
   75MOL    C6337211   3.968   2.823   6.502  0.4284 -0.5862  0.1223
   75MOL    C6437212   4.090   2.798   6.565 -0.3154 -0.4319 -0.2879
   75MOL    H6537213   4.568   3.080   6.742 -2.0201 -0.7641  0.5257
   75MOL    H6637214   4.648   3.190   6.850 -0.2764  0.6205  0.3321
   75MOL    H6737215   4.346   3.280   7.045  0.1637  0.5354 -0.8457
   75MOL    H6837216   4.521   3.277   7.037  1.5119 -2.4745  1.1668
   75MOL    H6937217   4.437   3.143   7.100 -0.2456 -0.3952 -0.8504
   75MOL    H7037218   4.304   2.769   6.680  0.9478  2.9921 -1.7674
   75MOL    H7137219   4.247   2.777   6.844 -0.1056  0.7897  0.8005
   75MOL    H7237220   4.059   3.026   6.825  0.3846 -0.7982  0.1439
   75MOL    H7337221   3.855   3.073   6.716  1.1125 -0.1559 -0.6183
   75MOL    H7437222   3.790   2.953   6.511 -0.4159 -2.2340  0.6353
   75MOL    H7537223   3.930   2.772   6.414 -0.7636 -1.2865  1.0356
   75MOL    H7637224   4.150   2.714   6.530 -2.2430 -1.9863  0.0511
   75MOL    C7737225   4.379   3.230   6.758  0.2489  0.2297  0.7969
   75MOL    C7837226   4.439   3.373   6.710 -0.1861  0.2588 -0.0488
   75MOL    C7937227   4.462   3.464   6.829 -0.2414  0.6139 -0.2485
   75MOL    C8037228   4.328   3.438   6.627  1.0153  0.5412  0.4181
   75MOL    O8137229   4.277   3.549   6.646  0.3012  0.4677  0.1293
   75MOL    O8237230   4.295   3.360   6.523  0.1669  0.2766  0.7565
   75MOL    C8337231   4.193   3.397   6.433 -0.3020  0.7378 -0.0826
   75MOL    C8437232   4.157   3.290   6.327 -0.3515 -0.6073 -1.0196
   75MOL    C8537233   4.064   3.187   6.352 -0.0162 -0.4126  0.2375
   75MOL    C8637234   4.030   3.094   6.255  0.1452 -0.0077  0.5486
   75MOL    C8737235   4.093   3.100   6.129 -0.1534  0.3133  0.1165
   75MOL    C8837236   4.194   3.196   6.102  0.1617 -0.6895 -0.1915
   75MOL    C8937237   4.217   3.295   6.204 -0.4392  0.0587  0.1138
   75MOL    H9037238   4.272   3.237   6.776  0.0389 -1.3445  0.1601
   75MOL    H9137239   4.381   3.173   6.666 -0.4237  2.3952 -0.6130
   75MOL    H9237240   4.549   3.440   6.890 -0.9367 -2.4733 -0.3872
   75MOL    H9337241   4.376   3.476   6.895  0.7367 -1.0317  1.3549
   75MOL    H9437242   4.484   3.568   6.806 -0.2056  1.0851  1.7874
   75MOL    H9537243   4.101   3.409   6.491  0.6338 -0.8245  1.7798
   75MOL    H9637244   4.215   3.490   6.382  2.0330  0.9555  1.2434
   75MOL    H9737245   4.027   3.185   6.454  0.8331 -3.0278  0.5419
   75MOL    H9837246   3.947   3.028   6.278  1.9445 -2.7058 -0.4076
   75MOL    H9937247   4.054   3.040   6.048 -1.8737  2.4790 -0.6923
   75MOL   H10037248   4.229   3.215   6.002 -1.1873  1.1438 -0.3372
   75MOL   H10137249   4.279   3.383   6.193  2.4568 -2.0608 -0.9877
   75MOL   C10237250   4.570   3.364   6.623  0.3080  0.6216  0.3665
   75MOL   C10337251   4.656   3.475   6.552 -0.7082 -0.1255  0.0301
   75MOL   C10437252   4.741   3.544   6.661  0.6265 -0.2873 -0.6316
   75MOL   C10537253   4.571   3.581   6.480  0.0524  0.5240 -1.0604
   75MOL   O10637254   4.532   3.564   6.366  0.1115 -0.0016  0.1418
   75MOL   O10737255   4.536   3.681   6.557  0.5638  0.2101 -0.2390
   75MOL   C10837256   4.454   3.783   6.518  0.6860 -0.1215  0.9372
   75MOL   C10937257   4.503   3.926   6.491 -0.5950  0.5410 -0.1722
   75MOL   C11037258   4.646   3.941   6.494 -0.3792 -0.6296  0.9024
   75MOL   C11137259   4.700   4.066   6.452  0.3886  0.3592  0.4179
   75MOL   C11237260   4.616   4.179   6.452 -0.4699 -0.2275 -0.1483
   75MOL   C11337261   4.475   4.163   6.470 -0.0461  1.2553  0.0268
   75MOL   C11437262   4.418   4.036   6.489  0.2526  0.2819  0.4309
   75MOL   H11537263   4.549   3.289   6.547  0.7132 -0.4317  1.2791
   75MOL   H11637264   4.639   3.317   6.694 -0.8821 -0.0127  1.1127
   75MOL   H11737265   4.785   3.641   6.635  0.5713  0.2442  1.1800
   75MOL   H11837266   4.826   3.483   6.689  0.6053  0.2363  0.6453
   75MOL   H11937267   4.683   3.579   6.747 -0.5623 -2.4638 -0.5366
   75MOL   H12037268   4.384   3.748   6.442  3.4001 -1.1246 -1.1721
   75MOL   H12137269   4.386   3.795   6.603 -0.4675  1.7598 -0.2097
   75MOL   H12237270   4.713   3.857   6.493  0.4212  0.0160 -0.7218
   75MOL   H12337271   4.806   4.081   6.436  0.0439 -0.0193 -2.5396
   75MOL   H12437272   4.645   4.282   6.435  1.1856 -0.9026 -1.5246
   75MOL   H12537273   4.414   4.252   6.461 -0.1629  1.2179  0.4595
   75MOL   H12637274   4.315   4.008   6.505 -0.1681  1.7080  0.2425
   75MOL   C12737275   4.750   3.409   6.442  0.1387 -0.1039 -0.3866
   75MOL   C12837276   4.872   3.474   6.378 -0.1836  0.2013 -0.1232
   75MOL   C12937277   4.992   3.501   6.476  0.3700 -0.2685  0.1250
   75MOL   C13037278   4.836   3.608   6.305 -0.7428 -0.3921 -0.2364
   75MOL   O13137279   4.872   3.717   6.354 -0.1815 -0.0147  0.0364
   75MOL   O13237280   4.754   3.590   6.193  0.5899 -0.1131 -0.1440
   75MOL   C13337281   4.724   3.701   6.120  0.1425  0.1021  0.3379
   75MOL   C13437282   4.605   3.667   6.024 -0.1379 -0.0100 -0.6240
   75MOL   C13537283   4.472   3.677   6.074 -0.0668  0.0205  0.1259
   75MOL   C13637284   4.365   3.650   5.992  0.4824  0.4096  0.1338
   75MOL   C13737285   4.389   3.606   5.861 -0.3240 -0.1739 -0.4700
   75MOL   C13837286   4.517   3.620   5.802 -0.1542  0.4856 -0.1755
   75MOL   C13937287   4.624   3.645   5.886 -0.5744  0.6710  0.2878
   75MOL   H14037288   4.683   3.373   6.365  0.5781 -2.7062  0.3873
   75MOL   H14137289   4.786   3.315   6.484  0.1826  0.0007 -0.1857
   75MOL   H14237290   5.026   3.405   6.514 -1.8727  0.0033  2.9952
   75MOL   H14337291   4.973   3.561   6.565  2.5712  2.3110 -1.0713
   75MOL   H14437292   5.071   3.562   6.432  1.3278 -0.3286  1.7347
   75MOL   H14537293   4.682   3.781   6.180  1.2763 -0.5772  2.0691
   75MOL   H14637294   4.802   3.740   6.055 -0.9534  2.8394  0.6179
   75MOL   H14737295   4.465   3.711   6.176  1.6706 -0.4918  0.4279
   75MOL   H14837296   4.266   3.653   6.034  1.2063  2.0688  1.8140
   75MOL   H14937297   4.312   3.574   5.792  1.6065 -2.0962 -1.8287
   75MOL   H15037298   4.538   3.592   5.700  1.7190 -0.6685  0.5133
   75MOL   H15137299   4.724   3.631   5.847 -0.5802  1.5813 -0.0719
   75MOL   C15237300   4.908   3.370   6.263 -0.0029 -0.1596 -0.4768
   75MOL   C15337301   5.034   3.380   6.160 -0.3061 -0.8562 -0.2170
   75MOL   C15437302   5.043   3.243   6.092 -0.1451 -0.7101  0.3847
   75MOL   C15537303   5.165   3.411   6.234  0.0004  0.2392  0.2423
   75MOL   O15637304   5.221   3.524   6.230  0.4405  0.5846 -0.1887
   75MOL   O15737305   5.215   3.306   6.300  0.9942 -0.1056 -0.5891
   75MOL   C15837306   5.325   3.314   6.386 -0.5584 -0.4868 -0.2161
   75MOL   C15937307   5.331   3.183   6.466 -0.6900 -0.1850  0.8226
   75MOL   C16037308   5.262   3.063   6.428  0.2471  0.5389 -0.1590
   75MOL   C16137309   5.258   2.949   6.514 -0.1683 -0.6595  0.1143
   75MOL   C16237310   5.332   2.955   6.631  0.2999 -0.0277  0.3063
   75MOL   C16337311   5.401   3.069   6.675 -0.0918 -0.1057  0.6841
   75MOL   C16437312   5.399   3.184   6.589 -0.3840 -0.4202  0.1353
   75MOL   H16537313   4.819   3.325   6.218  0.3720 -0.9087 -0.4716
   75MOL   H16637314   4.940   3.285   6.323  2.2106  0.3938 -0.8312
   75MOL   H16737315   5.129   3.240   6.025  0.2356 -0.9519  0.8829
   75MOL   H16837316   4.958   3.235   6.025 -0.2812 -0.5406  0.5362
   75MOL   H16937317   5.062   3.161   6.162 -0.1369  0.2537  1.5349
   75MOL   H17037318   5.410   3.331   6.320 -2.8636  0.0071 -3.2044
   75MOL   H17137319   5.306   3.400   6.450  0.0320 -0.7089  0.2487
   75MOL   H17237320   5.209   3.057   6.334 -0.4508  0.0113  0.2569
   75MOL   H17337321   5.188   2.868   6.501 -0.4379 -0.8997  2.7969
   75MOL   H17437322   5.343   2.870   6.696  0.9180 -0.0319  0.1976
   75MOL   H17537323   5.447   3.076   6.772  0.1812  0.5876  0.5069
   75MOL   H17637324   5.446   3.279   6.607  1.0721 -0.9952 -0.5665
   75MOL   C17737325   5.016   3.492   6.053  0.6206 -0.4774 -0.4577
   75MOL   C17837326   5.098   3.522   5.918  0.3835 -0.2252  0.0602
   75MOL   C17937327   5.072   3.670   5.874 -1.1572  0.3673 -0.2506
   75MOL   C18037328   5.047   3.430   5.805  0.1398  0.2047 -0.5865
   75MOL   O18137329   5.096   3.319   5.785 -0.8919 -0.3998 -0.3375
   75MOL   O18237330   4.942   3.480   5.735  0.2844  0.8673  0.1144
   75MOL   C18337331   4.878   3.393   5.638 -0.4386 -0.4487  0.0498
   75MOL   C18437332   4.801   3.481   5.545 -0.2192  0.5444  0.0540
   75MOL   C18537333   4.716   3.417   5.452  0.1057 -0.3136  0.1806
   75MOL   C18637334   4.638   3.494   5.366 -0.2734 -0.9073  0.0498
   75MOL   C18737335   4.640   3.633   5.374  0.0547  0.1359 -0.1154
   75MOL   C18837336   4.729   3.697   5.461 -0.6591 -0.5192  0.1478
   75MOL   C18937337   4.808   3.621   5.546  0.5747  0.1542 -0.0020
   75MOL   H19037338   5.023   3.593   6.094 -0.8276 -0.1968 -0.8825
   75MOL   H19137339   4.911   3.481   6.028  0.3035  1.6289 -0.1895
   75MOL   H19237340   5.118   3.729   5.953  1.4100 -1.1796 -0.5529
   75MOL   H19337341   4.967   3.700   5.882 -0.3589  3.6366 -1.1814
   75MOL   H19437342   5.104   3.702   5.775  2.0211  0.9725  0.9307
   75MOL   H19537343   4.953   3.335   5.584  2.9842  2.4531  1.5122
   75MOL   H19637344   4.807   3.326   5.686  1.1998 -2.4276 -0.2327
   75MOL   H19737345   4.697   3.311   5.451 -0.8085 -0.2157  2.4519
   75MOL   H19837346   4.576   3.442   5.294  0.2316 -2.2134  0.5376
   75MOL   H19937347   4.578   3.680   5.300  0.6373 -2.0261 -2.0367
   75MOL   H20037348   4.720   3.802   5.484 -0.7798 -0.2144 -1.2385
   75MOL   H20137349   4.856   3.684   5.619  0.9863  0.7192 -0.7473
   75MOL   C20237350   5.252   3.493   5.926  0.1153  0.0841 -0.1106
   75MOL   C20337351   5.361   3.529   5.811  0.0203  1.0133  0.1892
   75MOL   C20437352   5.306   3.525   5.668  0.0950 -0.3176 -0.5473
   75MOL   C20537353   5.474   3.419   5.815  0.4372  0.3356  0.8845
   75MOL   O20637354   5.516   3.360   5.712  0.4204 -0.2954 -0.1933
   75MOL   O20737355   5.522   3.388   5.941  0.5549 -0.4305 -0.1413
   75MOL   C20837356   5.629   3.294   5.952 -0.3442 -0.1396  0.3984
   75MOL   C20937357   5.580   3.161   5.994  1.0130 -0.5321 -0.7096
   75MOL   C21037358   5.567   3.138   6.136 -0.1527 -0.2768 -0.5734
   75MOL   C21137359   5.525   3.013   6.178 -0.5886 -0.3273 -0.6665
   75MOL   C21237360   5.494   2.919   6.079 -0.7846  0.8151 -0.2258
   75MOL   C21337361   5.518   2.935   5.944  0.1430  0.2523  0.1126
   75MOL   C21437362   5.560   3.060   5.902  0.3634  0.0251  0.4835
   75MOL   H21537363   5.258   3.387   5.953  0.8069  0.3995  1.0013
   75MOL   H21637364   5.288   3.536   6.019  2.8517  1.0610 -1.5600
   75MOL   H21737365   5.386   3.559   5.604 -2.2688  0.8015 -3.0136
   75MOL   H21837366   5.221   3.593   5.657  0.1584  0.0975  1.2402
   75MOL   H21937367   5.263   3.430   5.636 -2.5450  0.8643 -0.6962
   75MOL   H22037368   5.685   3.291   5.858  0.7451 -1.3622  1.0646
   75MOL   H22137369   5.697   3.334   6.028 -1.0658  0.9228  0.5027
   75MOL   H22237370   5.599   3.215   6.205 -1.3918 -1.1061  0.9536
   75MOL   H22337371   5.514   2.979   6.280 -1.1855 -3.0267 -1.5921
   75MOL   H22437372   5.445   2.833   6.123 -0.5353  1.2018  0.8290
   75MOL   H22537373   5.504   2.852   5.876  1.1062  1.3600 -1.4678
   75MOL   H22637374   5.578   3.080   5.798  0.0207  1.1857  0.6430
   75MOL   C22737375   5.432   3.660   5.859 -0.0204 -0.0467 -0.6545
   75MOL   C22837376   5.498   3.773   5.776 -0.3058  0.2206 -0.3078
   75MOL   C22937377   5.382   3.855   5.715  0.3707  0.2175 -0.6549
   75MOL   C23037378   5.587   3.720   5.663  0.0589 -0.3059  0.0315
   75MOL   O23137379   5.585   3.770   5.549 -0.5969 -0.0201 -0.5753
   75MOL   O23237380   5.676   3.624   5.703  0.1206 -0.1450  0.1397
   75MOL   C23337381   5.780   3.577   5.614 -0.4983 -0.3538 -0.8609
   75MOL   C23437382   5.857   3.452   5.660  0.4438  0.1480  0.1902
   75MOL   C23537383   5.894   3.426   5.794 -0.0706  0.2791  0.1793
   75MOL   C23637384   5.955   3.302   5.830  0.7268 -0.2525  0.1617
   75MOL   C23737385   5.989   3.211   5.727  0.0587 -0.0439 -0.0150
   75MOL   C23837386   5.950   3.241   5.594  0.2444 -0.3125 -0.1720
   75MOL   C23937387   5.891   3.362   5.562  0.8446  0.1503  0.0232
   75MOL   H24037388   5.511   3.626   5.926 -1.1097 -0.1689  0.5886
   75MOL   H24137389   5.365   3.720   5.921  0.5464 -0.8119  0.7023
   75MOL   H24237390   5.310   3.893   5.788  0.6253 -0.6452  0.0465
   75MOL   H24337391   5.335   3.800   5.633 -0.3049 -0.4639  0.1831
   75MOL   H24437392   5.433   3.939   5.668  2.1400 -2.0264 -2.8799
   75MOL   H24537393   5.744   3.575   5.512  0.3483 -1.0017 -1.1540
   75MOL   H24637394   5.854   3.657   5.619  0.5191 -1.1923 -2.1053
   75MOL   H24737395   5.859   3.493   5.872  0.3774  0.1628  0.4816
   75MOL   H24837396   5.977   3.271   5.932  1.8904 -0.0303 -0.0169
   75MOL   H24937397   6.034   3.115   5.744  0.0659  0.2001  1.4427
   75MOL   H25037398   5.971   3.173   5.512  0.8461  1.6677 -1.6951
   75MOL   H25137399   5.856   3.381   5.461  0.8436 -0.5019 -0.1026
   75MOL   C25237400   5.571   3.877   5.863 -0.1316  0.6399  0.7898
   75MOL   C25337401   5.658   3.849   5.998 -0.1987 -0.2004 -0.5757
   75MOL   C25437402   5.773   3.759   5.961  0.7742  0.3231 -0.5156
   75MOL   C25537403   5.562   3.797   6.112  0.2826 -0.5566 -0.6342
   75MOL   O25637404   5.586   3.700   6.190  0.3079 -0.7811 -0.7274
   75MOL   O25737405   5.455   3.879   6.124  0.3321  0.3503 -0.2274
   75MOL   C25837406   5.349   3.829   6.211  0.3334 -0.0173  0.6583
   75MOL   C25937407   5.247   3.930   6.218  0.3583  0.3917 -0.5051
   75MOL   C26037408   5.113   3.902   6.197 -0.1466 -0.4263 -0.9679
   75MOL   C26137409   5.015   4.004   6.210  0.1016 -0.4381 -0.5061
   75MOL   C26237410   5.045   4.130   6.252  0.1323 -0.1112 -0.6201
   75MOL   C26337411   5.185   4.156   6.277 -0.3428  0.6804 -0.0617
   75MOL   C26437412   5.287   4.059   6.264  0.1690  0.0559 -0.1863
   75MOL   H26537413   5.503   3.960   5.880 -0.7103  0.0440  1.4050
   75MOL   H26637414   5.635   3.933   5.794  2.0275 -2.1514  0.4323
   75MOL   H26737415   5.850   3.741   6.036  0.5144  0.1833 -0.2834
   75MOL   H26837416   5.822   3.791   5.869  0.8881  1.1548 -0.1739
   75MOL   H26937417   5.724   3.665   5.936  0.4509  0.9077 -2.1546
   75MOL   H27037418   5.304   3.740   6.168 -0.3702  1.3680 -1.5535
   75MOL   H27137419   5.393   3.818   6.310  1.7068 -0.9710 -0.0363
   75MOL   H27237420   5.077   3.802   6.179 -1.0160  0.0947 -2.2007
   75MOL   H27337421   4.912   3.973   6.204  0.4859 -1.4514 -1.9128
   75MOL   H27437422   4.973   4.208   6.273 -1.6701 -1.9329  0.1319
   75MOL   H27537423   5.227   4.251   6.308  1.9010  0.0554 -1.0788
   75MOL   H27637424   5.390   4.088   6.280  0.3331 -0.7097  0.1717
   75MOL   C27737425   5.725   3.987   6.041 -0.0648 -0.0332 -0.0449
   75MOL   C27837426   5.796   4.014   6.183 -0.9602 -0.7578  0.2689
   75MOL   C27937427   5.868   3.893   6.239  0.5513 -0.0126  0.1958
   75MOL   C28037428   5.687   4.068   6.280 -0.5930  0.6114 -0.1705
   75MOL   O28137429   5.642   4.182   6.257 -0.3417  0.0493 -0.7473
   75MOL   O28237430   5.659   3.991   6.391 -0.3159  0.5123 -0.2137
   75MOL   C28337431   5.566   4.020   6.490  0.5158  0.0714 -0.2012
   75MOL   C28437432   5.496   3.890   6.531 -0.3208 -0.3035 -0.3156
   75MOL   C28537433   5.559   3.763   6.543  0.1348  0.4034 -0.3051
   75MOL   C28637434   5.485   3.655   6.599  0.8542  0.1834  0.5548
   75MOL   C28737435   5.348   3.672   6.631  0.1047 -0.6881  0.7744
   75MOL   C28837436   5.282   3.801   6.608  0.1541 -0.1018 -0.4462
   75MOL   C28937437   5.358   3.906   6.561  0.6908  0.3093  0.5087
   75MOL   H29037438   5.651   4.064   6.021  1.4155  1.3910 -0.1281
   75MOL   H29137439   5.796   4.005   5.960  1.5893 -1.0623  1.1352
   75MOL   H29237440   5.927   3.900   6.330 -0.2900 -1.0837  0.8314
   75MOL   H29337441   5.941   3.855   6.167  0.5186  0.5837 -0.1550
   75MOL   H29437442   5.801   3.813   6.268  0.5735  0.6615  2.2121
   75MOL   H29537443   5.628   4.059   6.570  1.4800 -1.3598 -0.2255
   75MOL   H29637444   5.499   4.103   6.468  0.6882  0.4219  0.6001
   75MOL   H29737445   5.662   3.763   6.511  1.3425  0.8632  3.3289
   75MOL   H29837446   5.535   3.559   6.607 -1.8456 -1.1468  2.2269
   75MOL   H29937447   5.299   3.582   6.665  1.0964 -2.0183 -1.2187
   75MOL   H30037448   5.178   3.818   6.634 -0.5617  1.1202 -3.8727
   75MOL   H30137449   5.306   4.000   6.552 -1.7859 -1.2143 -2.0375
   75MOL   C30237450   5.906   4.127   6.163 -0.0292 -0.3700  0.6480
   75MOL   C30337451   6.002   4.181   6.279 -0.2170 -0.6399  0.5120
   75MOL   C30437452   6.058   4.316   6.226  0.1997 -0.0669 -0.7517
   75MOL   C30537453   6.121   4.073   6.291  0.0127 -0.4098  0.0852
   75MOL   O30637454   6.135   4.004   6.392  0.1975 -0.0308 -0.1467
   75MOL   O30737455   6.200   4.054   6.180  0.0484  0.1598  0.5152
   75MOL   C30837456   6.314   3.975   6.183 -0.0339  0.4061  0.4136
   75MOL   C30937457   6.443   4.057   6.168  0.3759 -0.5313  0.5140
   75MOL   C31037458   6.493   4.124   6.277  0.2901 -0.1751  0.7458
   75MOL   C31137459   6.612   4.206   6.271 -0.2200  0.3922  0.2580
   75MOL   C31237460   6.675   4.225   6.146 -0.1900  0.4063 -0.0483
   75MOL   C31337461   6.629   4.151   6.029 -0.2737 -0.1894 -0.5003
   75MOL   C31437462   6.510   4.074   6.042 -0.5665 -0.0381 -0.6561
   75MOL   H31537463   5.856   4.217   6.125  0.6071 -0.4831 -0.4657
   75MOL   H31637464   5.969   4.107   6.077  1.2838  0.6488  1.3527
   75MOL   H31737465   5.977   4.388   6.216  1.2128  1.4527  1.3718
   75MOL   H31837466   6.108   4.300   6.130  1.0247  1.3580 -0.5743
   75MOL   H31937467   6.118   4.379   6.292 -0.3048  1.3995 -1.6753
   75MOL   H32037468   6.326   3.934   6.283  1.4423  2.4190  1.0862
   75MOL   H32137469   6.309   3.891   6.113 -1.1522  0.7334  0.0894
   75MOL   H32237470   6.441   4.116   6.372 -1.5902 -3.3534 -0.4616
   75MOL   H32337471   6.653   4.255   6.358 -1.1066  0.0528  0.8733
   75MOL   H32437472   6.763   4.287   6.145  0.6495 -0.7572 -1.8565
   75MOL   H32537473   6.675   4.166   5.932 -1.7797 -1.2547 -1.3829
   75MOL   H32637474   6.477   4.024   5.952 -0.1669 -1.7236  0.1162
   75MOL   C32737475   5.936   4.198   6.422  0.1111  0.1163  0.4264
   75MOL   C32837476   5.996   4.278   6.550 -0.5926 -0.8252  0.4056
   75MOL   C32937477   5.941   4.192   6.670  0.5036  0.0255  0.0120
   75MOL   C33037478   5.940   4.421   6.556  0.2998  0.9293  0.5666
   75MOL   O33137479   5.866   4.456   6.645 -0.1811 -0.6531 -0.0753
   75MOL   O33237480   5.977   4.498   6.460  0.5915  0.2984 -0.5143
   75MOL   C33337481   5.922   4.633   6.471  0.5562 -0.2483  0.0360
   75MOL   C33437482   5.962   4.726   6.358 -0.4158  0.3124  0.0647
   75MOL   C33537483   6.063   4.707   6.261 -0.5966  0.0658  0.0891
   75MOL   C33637484   6.073   4.790   6.145  0.7070 -0.4698 -0.3109
   75MOL   C33737485   5.992   4.905   6.143  0.3493  0.3628 -0.1050
   75MOL   C33837486   5.895   4.936   6.241 -0.3583 -0.0833 -0.4047
   75MOL   C33937487   5.883   4.840   6.345  0.0382  0.2853  0.7347
   75MOL   H34037488   5.917   4.099   6.463 -0.5034  0.4887  1.0438
   75MOL   H34137489   5.841   4.242   6.394 -0.0472 -0.4652  0.0284
   75MOL   H34237490   5.961   4.248   6.762  0.4138  0.3884 -0.1860
   75MOL   H34337491   5.986   4.094   6.680  1.1270  0.2495 -0.6027
   75MOL   H34437492   5.834   4.172   6.669  0.2819  1.1559  0.2558
   75MOL   H34537493   5.814   4.627   6.482  0.6612 -1.0958  0.6452
   75MOL   H34637494   5.945   4.676   6.569 -1.2805 -0.6477  0.6681
   75MOL   H34737495   6.139   4.632   6.272  1.8375  2.1725 -1.7480
   75MOL   H34837496   6.149   4.763   6.072  3.0366  0.5740  1.6561
   75MOL   H34937497   6.009   4.965   6.055  0.4218  2.1526  1.0963
   75MOL   H35037498   5.824   5.017   6.234 -0.3343 -0.2456 -2.7949
   75MOL   H35137499   5.802   4.852   6.417 -0.7848 -1.0933  0.0626
   75MOL   C35237500   6.158   4.259   6.558  0.5732  0.2235 -0.0315
   75MOL   C35337501   6.253   4.361   6.645  0.9354 -0.3613 -0.0780
   75MOL   C35437502   6.200   4.378   6.785 -0.0547 -0.2091  1.2385
   75MOL   C35537503   6.260   4.502   6.573  0.2876  1.3354  0.0491
   75MOL   O35637504   6.297   4.505   6.453  0.0655  0.1127 -0.5909
   75MOL   O35737505   6.240   4.610   6.656  0.4464  0.0653 -0.1007
   75MOL   C35837506   6.252   4.728   6.594 -0.0504 -1.0922  0.8760
   75MOL   C35937507   6.235   4.851   6.677 -0.7238 -0.3498  0.9899
   75MOL   C36037508   6.185   4.972   6.622  0.2637 -0.2668  0.3992
   75MOL   C36137509   6.183   5.090   6.704 -0.3884  0.3872 -0.7148
   75MOL   C36237510   6.235   5.091   6.833 -0.4158 -0.1577 -1.1287
   75MOL   C36337511   6.286   4.974   6.891 -0.5010  0.0209  0.1989
   75MOL   C36437512   6.277   4.855   6.818  0.2652 -0.6002 -0.3221
   75MOL   H36537513   6.203   4.265   6.459 -0.6299  0.5360 -0.5693
   75MOL   H36637514   6.170   4.154   6.586 -0.9811 -0.0297 -0.2545
   75MOL   H36737515   6.274   4.432   6.844 -0.7490  0.7561  1.2244
   75MOL   H36837516   6.198   4.277   6.826 -2.2772 -0.7794 -0.2201
   75MOL   H36937517   6.102   4.425   6.784  0.3498  0.6313  0.8140
   75MOL   H37037518   6.353   4.722   6.554 -0.4557 -0.2916 -0.2904
   75MOL   H37137519   6.180   4.730   6.512 -0.2313 -0.8581  1.0392
   75MOL   H37237520   6.160   4.970   6.517  2.4107 -1.0569 -0.1380
   75MOL   H37337521   6.145   5.179   6.656  0.2125  0.9419 -0.1726
   75MOL   H37437522   6.239   5.183   6.889 -0.9424 -0.8965  0.1253
   75MOL   H37537523   6.327   4.971   6.991 -1.3328 -1.8069  0.5092
   75MOL   H37637524   6.315   4.765   6.865 -0.7514  0.0270  1.7316
   75MOL   C37737525   6.389   4.288   6.638 -0.7151  0.2860  0.0737
   75MOL   C37837526   6.527   4.321   6.713  0.1008  0.1660 -0.2823
   75MOL   C37937527   6.571   4.464   6.693  0.7814  0.2619  0.0282
   75MOL   C38037528   6.634   4.224   6.658  0.0065  0.4967 -0.2836
   75MOL   O38137529   6.744   4.258   6.615 -0.1153  0.0646  0.2111
   75MOL   O38237530   6.588   4.102   6.650  0.2541 -0.6077  0.1873
   75MOL   C38337531   6.672   4.001   6.602 -0.7101 -0.1630  0.0446
   75MOL   C38437532   6.612   3.867   6.639  0.0961 -0.6954 -0.3379
   75MOL   C38537533   6.701   3.767   6.686 -0.0094  0.6881 -0.1150
   75MOL   C38637534   6.656   3.636   6.726  1.3941  0.1702  0.2413
   75MOL   C38737535   6.515   3.606   6.717 -0.6558 -0.2472 -0.1167
   75MOL   C38837536   6.426   3.696   6.658 -0.3932  0.2145  0.1182
   75MOL   C38937537   6.475   3.827   6.626  0.9611 -0.0244 -0.4472
   75MOL   H39037538   6.412   4.296   6.532 -1.0608 -1.1241 -0.1244
   75MOL   H39137539   6.366   4.181   6.648  0.5367 -0.2245 -2.1190
   75MOL   H39237540   6.506   4.530   6.750  1.0138  1.6638 -1.2883
   75MOL   H39337541   6.570   4.494   6.588 -1.1193 -1.0629 -0.3687
   75MOL   H39437542   6.671   4.488   6.729  0.7684  0.8157 -0.2925
   75MOL   H39537543   6.689   4.004   6.494  0.6475  2.1747  0.3048
   75MOL   H39637544   6.776   4.006   6.634 -0.8120 -0.5152  0.4405
   75MOL   H39737545   6.804   3.793   6.705  0.7467 -1.7576 -0.7707
   75MOL   H39837546   6.723   3.563   6.771 -1.7357 -1.4195  2.5109
   75MOL   H39937547   6.467   3.511   6.737 -2.8640  0.8885  0.1656
   75MOL   H40037548   6.320   3.674   6.656 -0.9476  2.5992  0.9581
   75MOL   H40137549   6.405   3.907   6.605  1.3180  1.1085  2.4546
   75MOL   C40237550   6.510   4.285   6.862 -0.1914  0.6260  0.5738
   75MOL   C40337551   6.624   4.236   6.970  0.0653 -0.1130 -0.2194
   75MOL   C40437552   6.764   4.290   6.934 -0.9218 -0.2164  0.1490
   75MOL   C40537553   6.634   4.084   6.975 -0.0118 -0.1664  0.0280
   75MOL   O40637554   6.548   4.010   6.937 -0.6262  0.4553 -0.2399
   75MOL   O40737555   6.745   4.038   7.038 -0.0949 -0.1380 -0.2224
   75MOL   C40837556   6.785   3.905   7.037  0.0084  0.6511 -0.2835
   75MOL   C40937557   6.931   3.902   7.090 -0.0698 -0.0094 -0.1556
   75MOL   C41037558   7.037   3.868   7.007 -0.5208  0.0596 -0.0415
   75MOL   C41137559   7.167   3.892   7.056 -0.1365  0.1628  0.3098
   75MOL   C41237560   7.189   3.939   7.190  0.5663  0.6315  0.5851
   75MOL   C41337561   7.081   3.968   7.275 -0.3305  0.4207  0.8182
   75MOL   C41437562   6.954   3.955   7.221 -0.3868  0.7013  0.5909
   75MOL   H41537563   6.427   4.215   6.877  0.0575  0.2994  0.4272
   75MOL   H41637564   6.476   4.379   6.907 -2.1548 -0.4272  1.3869
   75MOL   H41737565   6.827   4.303   7.022 -1.2503  0.1439  0.3307
   75MOL   H41837566   6.765   4.389   6.890 -1.0534  0.9738  2.7325
   75MOL   H41937567   6.823   4.228   6.866  1.0476  1.4041  0.3463
   75MOL   H42037568   6.716   3.843   7.095 -1.3640  0.9703 -1.5557
   75MOL   H42137569   6.784   3.853   6.942  0.3527  0.9343 -0.4440
   75MOL   H42237570   7.017   3.824   6.911 -0.5376  1.3290 -0.6335
   75MOL   H42337571   7.255   3.871   6.998 -1.0634  1.5075 -1.6528
   75MOL   H42437572   7.288   3.942   7.232  0.8571 -1.6383  0.1276
   75MOL   H42537573   7.109   3.988   7.377  1.1880 -1.5058  0.8094
   75MOL   H42637574   6.865   3.976   7.278  0.2615  3.2876  0.7197
   75MOL   C42737575   6.605   4.283   7.120  0.6531 -0.5625 -0.0271
   75MOL   C42837576   6.491   4.238   7.219 -0.2316 -0.2715  0.3238
   75MOL   C42937577   6.500   4.345   7.328 -0.5940 -0.9403 -0.7501
   75MOL   C43037578   6.514   4.095   7.284 -0.4909 -0.9440  0.4965
   75MOL   O43137579   6.554   4.096   7.404  0.3704  0.6026 -0.1264
   75MOL   O43237580   6.491   3.987   7.205 -0.1036  0.2316  0.0954
   75MOL   C43337581   6.469   3.864   7.267 -0.1205  0.2262  0.3815
   75MOL   C43437582   6.425   3.756   7.174  0.0202  0.2807 -0.2539
   75MOL   C43537583   6.476   3.632   7.179  0.5293  0.0453 -0.2483
   75MOL   C43637584   6.436   3.526   7.092  1.0850  0.3406  0.4458
   75MOL   C43737585   6.345   3.550   6.991  0.4481  0.4831  0.3678
   75MOL   C43837586   6.291   3.682   6.983 -0.9551 -0.5230  0.3332
   75MOL   C43937587   6.333   3.786   7.073 -0.1414  0.6287  0.1060
   75MOL   H44037588   6.618   4.391   7.129  1.9169 -0.8157  1.4799
   75MOL   H44137589   6.694   4.266   7.181  0.5545  0.3606  0.3870
   75MOL   H44237590   6.474   4.443   7.289  0.5022 -0.6925 -0.8757
   75MOL   H44337591   6.595   4.360   7.378 -3.1429  2.5225  3.4019
   75MOL   H44437592   6.435   4.307   7.407  1.3793 -1.4776  0.6337
   75MOL   H44537593   6.560   3.833   7.318 -0.3672  0.2422  0.8384
   75MOL   H44637594   6.388   3.875   7.340 -0.3423  1.5429 -0.0397
   75MOL   H44737595   6.543   3.616   7.262 -2.3625  0.7829  2.2805
   75MOL   H44837596   6.493   3.434   7.091  1.0048  0.2934  0.2162
   75MOL   H44937597   6.318   3.479   6.915  2.6154 -0.7772  0.7294
   75MOL   H45037598   6.213   3.711   6.913  0.2364 -1.7578 -1.5521
   75MOL   H45137599   6.287   3.884   7.070 -1.8488 -0.1720 -1.2038
   75MOL   C45237600   6.356   4.229   7.147  0.0653 -0.0941  0.0676
   75MOL   C45337601   6.217   4.227   7.229  0.3019  0.0269  0.8410
   75MOL   C45437602   6.105   4.223   7.118 -0.7331 -0.0046  0.0960
   75MOL   C45537603   6.197   4.360   7.302 -0.5206  0.4377  0.7841
   75MOL   O45637604   6.193   4.375   7.424  0.1957  0.0382 -0.5836
   75MOL   O45737605   6.185   4.463   7.220  0.3093 -0.3525  0.0980
   75MOL   C45837606   6.144   4.591   7.263 -0.6441  0.2942  0.2348
   75MOL   C45937607   6.256   4.680   7.311 -0.1180  0.0621  0.4100
   75MOL   C46037608   6.310   4.666   7.439  0.4127  0.2559 -0.4790
   75MOL   C46137609   6.422   4.736   7.481  0.4388  0.8877  0.4900
   75MOL   C46237610   6.481   4.827   7.390  0.1576  0.1165 -0.6648
   75MOL   C46337611   6.438   4.834   7.257  0.2738  0.0196 -0.1522
   75MOL   C46437612   6.322   4.767   7.221  0.3228  0.0131 -0.6791
   75MOL   H46537613   6.357   4.149   7.073  0.0123 -0.1834  0.1625
   75MOL   H46637614   6.357   4.325   7.094 -1.4811  0.4371  0.9634
   75MOL   H46737615   6.003   4.236   7.156 -0.7885 -2.5066  0.9266
   75MOL   H46837616   6.105   4.129   7.063 -0.9603 -1.0851  1.8923
   75MOL   H46937617   6.114   4.295   7.037 -3.7866 -0.1841 -0.4643
   75MOL   H47037618   6.108   4.639   7.172  0.1713 -1.1989 -0.8845
   75MOL   H47137619   6.067   4.582   7.340  0.8070  0.9369  1.8024
   75MOL   H47237620   6.271   4.590   7.505  2.0660 -0.6470 -0.5226
   75MOL   H47337621   6.463   4.724   7.581 -0.6588 -1.3252  0.7123
   75MOL   H47437622   6.571   4.884   7.405  0.4167 -0.0628 -1.5372
   75MOL   H47537623   6.489   4.900   7.188  1.5383  0.5939  1.3084
   75MOL   H47637624   6.287   4.777   7.119 -2.5803 -1.5823  0.1012
   75MOL   C47737625   6.208   4.106   7.325 -0.2156 -0.6505 -0.1206
   75MOL   C47837626   6.077   4.078   7.410 -0.2822 -0.7194 -0.2156
   75MOL   C47937627   6.117   3.985   7.528 -0.3718 -0.1291 -0.5550
   75MOL   C48037628   5.958   4.019   7.343 -0.0442 -0.6173 -0.5788
   75MOL   O48137629   5.966   3.974   7.226  0.3212 -0.2753 -0.0856
   75MOL   O48237630   5.854   4.006   7.421  0.2309  0.3281  0.2761
   75MOL   C48337631   5.737   3.959   7.356 -0.1229  0.4461  0.2081
   75MOL   C48437632   5.719   3.810   7.347 -0.8903 -0.4317  1.0368
   75MOL   C48537633   5.622   3.766   7.253  0.2059 -0.0898 -0.6818
   75MOL   C48637634   5.598   3.631   7.239 -0.1161  0.4108  0.4502
   75MOL   C48737635   5.658   3.541   7.324  0.1032 -0.6798 -0.4851
   75MOL   C48837636   5.751   3.584   7.420 -0.3006 -0.0665 -0.1760
   75MOL   C48937637   5.778   3.719   7.432  0.6919 -0.0023 -0.6300
   75MOL   H49037638   6.285   4.124   7.399 -0.2671  0.6662 -0.3742
   75MOL   H49137639   6.220   4.014   7.268  0.5878  1.2413 -3.1075
   75MOL   H49237640   6.040   3.939   7.591 -0.4233 -0.1113 -0.6055
   75MOL   H49337641   6.154   4.053   7.605 -2.1428 -1.0586  1.1806
   75MOL   H49437642   6.200   3.917   7.507 -0.1598 -0.5973  1.6699
   75MOL   H49537643   5.659   3.998   7.422  0.5045  0.5316  0.9020
   75MOL   H49637644   5.704   3.998   7.260 -2.2098 -1.0888  0.2639
   75MOL   H49737645   5.574   3.839   7.190  0.3512  0.8398  0.2701
   75MOL   H49837646   5.525   3.593   7.169  1.1668  2.6615 -2.2592
   75MOL   H49937647   5.622   3.439   7.329  0.2686 -0.6183  2.7729
   75MOL   H50037648   5.790   3.512   7.489  1.6229 -1.9421 -3.1314
   75MOL   H50137649   5.838   3.752   7.515 -0.1596 -0.3366  0.1294
   75MOL   H50237650   6.031   4.161   7.464  1.3657  0.3565 -0.4247
   76MOL     C137651   7.950   2.824   5.765  0.4650  0.5112 -0.0185
   76MOL     C237652   7.849   2.851   5.879 -0.3772 -0.4058  0.3881
   76MOL     C337653   7.916   2.809   6.014  1.0350 -0.6813 -0.6623
   76MOL     C437654   7.709   2.772   5.862  0.3481 -0.1648  0.6668
   76MOL     O537655   7.687   2.697   5.769  0.4146 -0.1680  0.0885
   76MOL     O637656   7.622   2.785   5.967  0.1090 -0.1245 -0.0703
   76MOL     C737657   7.499   2.722   5.964  0.0664 -0.1576  0.1284
   76MOL     C837658   7.446   2.665   6.092 -0.0922  0.3235  0.4218
   76MOL     C937659   7.328   2.587   6.094  0.2937 -0.3643 -0.2160
   76MOL    C1037660   7.278   2.544   6.223 -0.2085 -0.2723  0.5370
   76MOL    C1137661   7.337   2.579   6.344  0.4118  0.5584 -0.3314
   76MOL    C1237662   7.446   2.665   6.346 -0.1749  0.2406  0.5345
   76MOL    C1337663   7.498   2.710   6.220 -0.6827  0.9755 -0.2469
   76MOL    H1437664   7.963   2.717   5.748  2.7121  0.7937 -0.2239
   76MOL    H1537665   7.915   2.867   5.671  0.2740  3.4844  1.3855
   76MOL    H1637666   7.851   2.761   6.087  0.9084 -0.8451 -0.8842
   76MOL    H1737667   7.956   2.894   6.069 -2.4907  1.2770 -0.9879
   76MOL    H1837668   7.997   2.740   5.988  0.1957 -2.3728  1.0790
   76MOL    H1937669   7.421   2.792   5.932 -0.5716  0.7130  3.3958
   76MOL    H2037670   7.493   2.637   5.897 -0.7227  0.1249 -0.1722
   76MOL    H2137671   7.290   2.562   5.996 -0.9351 -0.2457  0.2245
   76MOL    H2237672   7.179   2.501   6.221 -0.3645  0.1430 -2.6735
   76MOL    H2337673   7.278   2.558   6.432  1.1331 -0.7110 -0.1466
   76MOL    H2437674   7.475   2.700   6.444 -0.3344 -0.8511  0.9742
   76MOL    H2537675   7.580   2.780   6.229 -0.8889  1.0173  1.3005
   76MOL    H2637676   0.035   2.879   5.784  0.8056 -0.5404  1.4655
   76MOL    C2737677   7.816   3.001   5.912  0.3741  0.7509 -0.1605
   76MOL    C2837678   7.765   3.094   5.805  0.1420 -0.2549  0.6628
   76MOL    C2937679   7.647   3.036   5.726  0.0422 -0.7279 -0.2887
   76MOL    C3037680   7.877   3.141   5.705  0.4654 -0.0046  0.1142
   76MOL    O3137681   7.998   3.121   5.722 -0.2292 -0.4112  0.0700
   76MOL    O3237682   7.822   3.190   5.593  0.0970  0.9535 -0.1851
   76MOL    C3337683   7.904   3.221   5.486 -0.1704  0.7865 -0.1575
   76MOL    C3437684   7.869   3.125   5.369 -0.6392 -0.2857 -0.6613
   76MOL    C3537685   7.971   3.050   5.297 -0.5921  0.8033  0.2701
   76MOL    C3637686   7.932   2.950   5.209  0.5470 -0.5871 -0.2304
   76MOL    C3737687   7.801   2.924   5.181 -0.3327 -0.3331  0.3293
   76MOL    C3837688   7.701   2.988   5.261 -0.1439  0.1793 -0.3693
   76MOL    C3937689   7.735   3.094   5.346  0.1133 -0.0836  0.1029
   76MOL    H4037690   7.908   3.045   5.951 -1.3294  2.5702  1.9112
   76MOL    H4137691   7.750   3.005   5.998 -1.1994 -0.4399 -1.2714
   76MOL    H4237692   7.563   2.994   5.781  0.8143 -0.8471  0.8277
   76MOL    H4337693   7.685   2.960   5.657  2.9030  1.1826 -0.8799
   76MOL    H4437694   7.595   3.111   5.667 -0.2325 -1.0361 -0.4370
   76MOL    H4537695   7.897   3.329   5.469  2.1530  0.6216 -2.5216
   76MOL    H4637696   0.003   3.201   5.503 -0.1440  1.1102  0.0697
   76MOL    H4737697   0.070   3.069   5.301  0.1307 -2.9995  0.6090
   76MOL    H4837698   0.003   2.899   5.153  2.5708 -1.0566  2.8931
   76MOL    H4937699   7.770   2.852   5.107 -0.4963  1.1301 -1.0486
   76MOL    H5037700   7.597   2.960   5.256 -0.0638 -0.5571  1.5921
   76MOL    H5137701   7.658   3.127   5.414  2.2335  0.7568  2.1660
   76MOL    C5237702   7.700   3.226   5.863 -0.0510  0.1328 -0.6307
   76MOL    C5337703   7.764   3.310   5.984  0.6118 -0.5028 -0.5899
   76MOL    C5437704   7.910   3.350   5.962  0.3456  0.5891 -0.4806
   76MOL    C5537705   7.757   3.229   6.117  0.0872 -0.3824  0.0030
   76MOL    O5637706   7.860   3.194   6.174  0.1682  0.4628  0.1563
   76MOL    O5737707   7.633   3.183   6.141 -0.0021 -0.0761 -0.1196
   76MOL    C5837708   7.617   3.091   6.253 -0.1745  0.1766  0.1921
   76MOL    C5937709   7.477   3.047   6.279  0.0086  0.3343  0.3565
   76MOL    C6037710   7.373   3.043   6.181  0.1643 -0.0401 -0.7566
   76MOL    C6137711   7.245   3.007   6.208  0.4646 -0.5852  0.1653
   76MOL    C6237712   7.212   2.955   6.338 -0.2793 -0.2773 -0.3488
   76MOL    C6337713   7.313   2.947   6.434  0.0437 -0.1843 -0.4210
   76MOL    C6437714   7.448   2.993   6.404 -0.0785  0.1263  0.2463
   76MOL    H6537715   7.605   3.191   5.904 -0.7159 -1.9063 -3.7004
   76MOL    H6637716   7.667   3.295   5.785 -1.4216 -0.7365 -0.8454
   76MOL    H6737717   7.929   3.401   5.868  2.2560  0.3803 -0.2337
   76MOL    H6837718   7.975   3.262   5.964 -0.5742 -0.1433 -2.0782
   76MOL    H6937719   7.944   3.413   6.045  0.3119  1.6611 -1.2685
   76MOL    H7037720   7.675   3.003   6.228  0.0134  0.2182  0.4841
   76MOL    H7137721   7.667   3.135   6.340 -0.9497  1.2882  0.0886
   76MOL    H7237722   7.395   3.079   6.081  2.6209  1.6069  0.3170
   76MOL    H7337723   7.175   3.037   6.132  1.7440  2.2696  0.0455
   76MOL    H7437724   7.108   2.931   6.356  0.3714 -3.5143 -0.5455
   76MOL    H7537725   7.296   2.911   6.534  1.0205 -0.5505 -0.3805
   76MOL    H7637726   7.525   2.973   6.477  0.5887  0.2300 -0.4270
   76MOL    C7737727   7.680   3.438   6.017  0.4012 -0.3211  0.2578
   76MOL    C7837728   7.698   3.580   5.947 -0.1774 -0.3229 -0.5380
   76MOL    C7937729   7.693   3.576   5.789  0.2534 -0.2307 -0.1715
   76MOL    C8037730   7.830   3.650   5.984  0.3641  0.4663 -0.1818
   76MOL    O8137731   7.879   3.632   6.092  0.3001 -0.3895 -0.5769
   76MOL    O8237732   7.877   3.736   5.895 -0.3554  0.0695  0.3497
   76MOL    C8337733   7.992   3.815   5.933 -0.5348  0.3762 -0.2236
   76MOL    C8437734   7.974   3.949   6.016  0.2587  0.1954  0.3539
   76MOL    C8537735   7.927   3.948   6.149 -0.0080  0.0848  0.3017
   76MOL    C8637736   7.936   4.065   6.227 -0.4077  0.5429  0.2024
   76MOL    C8737737   7.967   4.188   6.165 -0.4319 -1.0173 -0.2873
   76MOL    C8837738   8.002   4.195   6.028  0.2499 -0.0497  0.2213
   76MOL    C8937739   8.002   4.075   5.956 -0.5468  0.4862 -0.2145
   76MOL    H9037740   7.693   3.464   6.122 -0.5207  2.1610 -0.2034
   76MOL    H9137741   7.576   3.407   6.011 -0.2543  2.1420 -2.3885
   76MOL    H9237742   7.681   3.668   5.733  0.8632  0.1640  0.3328
   76MOL    H9337743   7.617   3.507   5.752 -0.1514  0.6450 -0.9825
   76MOL    H9437744   7.791   3.549   5.750  0.6758 -0.1455  0.8153
   76MOL    H9537745   0.071   3.765   5.978  1.9567  2.8572 -2.0938
   76MOL    H9637746   0.033   3.835   5.837  2.1697 -1.0258  0.7809
   76MOL    H9737747   7.897   3.857   6.198  0.2668  0.1100  0.5138
   76MOL    H9837748   7.905   4.072   6.330 -1.3874  1.7960 -0.1550
   76MOL    H9937749   7.963   4.284   6.213  6.4635 -0.4335 -0.4141
   76MOL   H10037750   8.002   4.285   5.967 -2.6596  0.9055  1.5435
   76MOL   H10137751   0.000   4.070   5.848 -0.6067 -1.4636 -0.1436
   76MOL   C10237752   7.595   3.688   5.994  0.7065 -0.5242  0.2391
   76MOL   C10337753   7.436   3.651   6.007 -0.4936  0.0709 -0.1790
   76MOL   C10437754   7.389   3.573   5.888 -0.1268 -0.2990 -0.1583
   76MOL   C10537755   7.366   3.794   6.012 -0.2144  0.5458  0.2471
   76MOL   O10637756   7.285   3.827   5.926  0.1094  0.5657 -0.0048
   76MOL   O10737757   7.413   3.883   6.105 -0.0582 -0.5743 -0.1646
   76MOL   C10837758   7.356   4.013   6.108  0.1060  0.0709 -0.2877
   76MOL   C10937759   7.461   4.117   6.115 -0.3212 -0.6746  0.4154
   76MOL   C11037760   7.475   4.213   6.007  0.2931  0.7624 -0.2888
   76MOL   C11137761   7.573   4.309   6.013  0.8211 -0.3745  0.4513
   76MOL   C11237762   7.653   4.311   6.123 -0.6941  0.1030  0.4695
   76MOL   C11337763   7.643   4.218   6.232 -0.1154  0.8057  0.4864
   76MOL   C11437764   7.538   4.123   6.223  0.1632 -0.5240 -0.8611
   76MOL   H11537765   7.598   3.769   5.921  0.6242 -2.0420 -1.4768
   76MOL   H11637766   7.629   3.736   6.086 -0.0055 -0.7495  0.6198
   76MOL   H11737767   7.418   3.621   5.794  0.8499  2.1214  1.3517
   76MOL   H11837768   7.281   3.573   5.871  0.0144  2.6599 -1.4194
   76MOL   H11937769   7.418   3.469   5.873  1.1723  0.1666 -0.9356
   76MOL   H12037770   7.293   4.027   6.020  0.6665 -0.6010 -0.7999
   76MOL   H12137771   7.303   4.016   6.203 -2.3220  1.1440 -1.6289
   76MOL   H12237772   7.420   4.205   5.915 -0.3361 -0.2789  0.1653
   76MOL   H12337773   7.582   4.380   5.932 -0.1515  1.5327  1.9472
   76MOL   H12437774   7.729   4.388   6.118 -1.9833  1.2921 -1.0801
   76MOL   H12537775   7.698   4.219   6.324 -0.7595 -0.8364  0.9012
   76MOL   H12637776   7.511   4.060   6.307  1.3861  1.5531  1.1445
   76MOL   C12737777   7.421   3.590   6.156 -0.6813 -0.3035  0.0754
   76MOL   C12837778   7.290   3.535   6.217  0.5669  0.1443  0.6756
   76MOL   C12937779   7.263   3.400   6.143 -0.5815  0.0444  0.6621
   76MOL   C13037780   7.167   3.625   6.189  0.2428 -0.0807  0.3358
   76MOL   O13137781   7.073   3.585   6.127 -0.4536  0.7258  0.2863
   76MOL   O13237782   7.180   3.743   6.240 -0.0569  0.0633  0.5492
   76MOL   C13337783   7.081   3.844   6.213 -0.2969 -0.0321 -0.2440
   76MOL   C13437784   7.065   3.934   6.336 -0.4170 -0.0346 -1.3699
   76MOL   C13537785   7.011   4.061   6.315 -0.3956  0.4650  0.2157
   76MOL   C13637786   6.992   4.144   6.422 -0.4867  0.4033 -0.0433
   76MOL   C13737787   7.039   4.112   6.549 -0.2658 -0.1389  0.4618
   76MOL   C13837788   7.116   3.998   6.566 -0.3051 -0.2255 -0.3525
   76MOL   C13937789   7.113   3.900   6.462 -1.6196 -0.8497 -0.2323
   76MOL   H14037790   7.463   3.663   6.226  1.0688 -0.9229 -0.2845
   76MOL   H14137791   7.492   3.512   6.185  0.2628  0.7754  0.7382
   76MOL   H14237792   7.262   3.412   6.035  0.7564  1.8966  0.8397
   76MOL   H14337793   7.170   3.352   6.175 -0.8891 -1.6369 -2.5766
   76MOL   H14437794   7.340   3.326   6.166 -1.9061 -2.2612 -1.9988
   76MOL   H14537795   7.122   3.897   6.127 -1.1127  1.0492  0.0322
   76MOL   H14637796   6.991   3.784   6.195  0.9995 -1.7727 -1.1398
   76MOL   H14737797   6.964   4.087   6.222 -2.8830 -1.8325  0.7401
   76MOL   H14837798   6.945   4.241   6.412  0.8626  1.1024  0.2317
   76MOL   H14937799   7.030   4.180   6.633  1.0239  0.8811 -0.2096
   76MOL   H15037800   7.156   3.968   6.662 -0.2132 -0.4914 -0.4745
   76MOL   H15137801   7.146   3.800   6.487  0.4021  0.0329  0.7897
   76MOL   C15237802   7.312   3.505   6.367 -0.0803  0.2436  0.1402
   76MOL   C15337803   7.217   3.442   6.479  0.4879 -0.4645 -0.3933
   76MOL   C15437804   7.224   3.283   6.467 -0.1870  0.4136 -1.0268
   76MOL   C15537805   7.071   3.496   6.472  0.1521  0.5731  0.2164
   76MOL   O15637806   7.039   3.593   6.544  0.1992  0.2853  0.2424
   76MOL   O15737807   6.999   3.433   6.382  0.1306 -0.2265 -0.0628
   76MOL   C15837808   6.864   3.489   6.362  0.4352 -0.0917 -0.4384
   76MOL   C15937809   6.752   3.385   6.360  0.3998  0.2681 -0.0779
   76MOL   C16037810   6.762   3.259   6.293  0.3229 -0.1727 -0.3798
   76MOL   C16137811   6.654   3.170   6.289 -0.4035  0.4594 -0.7925
   76MOL   C16237812   6.534   3.209   6.339 -0.1171  0.3491 -0.4175
   76MOL   C16337813   6.517   3.331   6.405 -0.1945  0.3315 -0.1686
   76MOL   C16437814   6.625   3.421   6.414 -0.2233  0.2611 -0.3044
   76MOL   H16537815   7.337   3.605   6.402 -1.9074  0.6343  0.3562
   76MOL   H16637816   7.402   3.444   6.367  0.4818  1.0558 -0.9876
   76MOL   H16737817   7.323   3.237   6.462 -0.8298 -0.8952 -2.0834
   76MOL   H16837818   7.168   3.238   6.385  0.0624 -1.8262  0.0052
   76MOL   H16937819   7.173   3.232   6.548 -0.0478  0.2342 -1.0516
   76MOL   H17037820   6.830   3.569   6.428 -0.6238 -2.8021  2.4148
   76MOL   H17137821   6.868   3.539   6.265  0.4990 -1.6181 -1.2332
   76MOL   H17237822   6.858   3.223   6.259 -0.2507 -1.9634 -0.1685
   76MOL   H17337823   6.672   3.071   6.248  2.1648  1.0986 -1.2726
   76MOL   H17437824   6.457   3.133   6.343  1.5584 -1.4252 -1.2775
   76MOL   H17537825   6.418   3.350   6.442  0.1128  0.1269  0.7731
   76MOL   H17637826   6.626   3.507   6.480 -0.6412 -0.3432  0.4910
   76MOL   C17737827   7.280   3.484   6.620  0.2951  0.3568 -0.1253
   76MOL   C17837828   7.251   3.407   6.758  0.2220  1.1414  0.7094
   76MOL   C17937829   7.106   3.354   6.778  0.6812 -0.5248 -0.4093
   76MOL   C18037830   7.266   3.508   6.877 -0.1022  0.3468  0.3806
   76MOL   O18137831   7.308   3.627   6.869  0.7403 -0.1591  0.3015
   76MOL   O18237832   7.241   3.447   6.997 -0.4120 -0.5607 -0.3088
   76MOL   C18337833   7.241   3.512   7.124  0.1586  0.1016  0.2824
   76MOL   C18437834   7.106   3.537   7.185  0.3147  0.0595  0.0024
   76MOL   C18537835   6.984   3.539   7.118  0.5424 -0.2120 -0.0187
   76MOL   C18637836   6.866   3.573   7.185 -0.2080 -0.0358 -0.0030
   76MOL   C18737837   6.870   3.601   7.319 -0.2240  0.3532 -0.9826
   76MOL   C18837838   6.991   3.591   7.396 -0.3553 -0.1455  0.9401
   76MOL   C18937839   7.106   3.570   7.319 -0.0250  0.1870  0.6538
   76MOL   H19037840   7.255   3.589   6.635 -0.6704  0.2219 -0.7205
   76MOL   H19137841   7.388   3.487   6.608  0.4447 -0.5246  0.8592
   76MOL   H19237842   7.053   3.313   6.691 -0.3136 -0.9467  0.3878
   76MOL   H19337843   7.048   3.440   6.810  0.2875  0.1181 -2.6962
   76MOL   H19437844   7.095   3.283   6.859 -0.5720  0.7025  0.5045
   76MOL   H19537845   7.307   3.457   7.192  1.4699 -0.7631 -1.6370
   76MOL   H19637846   7.273   3.616   7.129 -0.7225  0.4388 -0.9954
   76MOL   H19737847   6.988   3.532   7.010  0.5049  3.0715 -0.2766
   76MOL   H19837848   6.774   3.592   7.131 -0.7981 -1.5350  0.4472
   76MOL   H19937849   6.786   3.641   7.374  1.0304  0.9925  0.5250
   76MOL   H20037850   6.988   3.618   7.501  2.8227  1.4667  0.6726
   76MOL   H20137851   7.199   3.569   7.375  0.0611 -2.5334  0.5215
   76MOL   C20237852   7.353   3.287   6.775 -0.1448  0.3140 -0.0880
   76MOL   C20337853   7.517   3.293   6.783 -0.1733  0.0737 -0.6364
   76MOL   C20437854   7.559   3.420   6.863  0.0149  0.2949 -0.1261
   76MOL   C20537855   7.577   3.301   6.637  0.2367  0.0998  0.4263
   76MOL   O20637856   7.566   3.211   6.557 -0.1234 -0.0452 -0.0732
   76MOL   O20737857   7.663   3.403   6.623 -0.1559 -0.9012  0.6453
   76MOL   C20837858   7.705   3.441   6.492 -0.5614  0.4570 -0.0347
   76MOL   C20937859   7.817   3.537   6.505  0.1671 -0.2195 -0.1421
   76MOL   C21037860   7.825   3.631   6.609  0.2050 -0.2214 -0.1340
   76MOL   C21137861   7.930   3.724   6.621 -0.4196 -0.2373  0.0802
   76MOL   C21237862   0.029   3.716   6.529 -0.3865 -0.1640  1.1465
   76MOL   C21337863   0.024   3.617   6.428  0.2875 -0.4650  0.2549
   76MOL   C21437864   7.924   3.526   6.413 -0.2170 -0.0382 -0.1114
   76MOL   H21537865   7.343   3.228   6.684  3.0608  0.7511 -0.7949
   76MOL   H21637866   7.326   3.225   6.860 -1.2524 -0.9494 -1.3474
   76MOL   H21737867   7.523   3.429   6.965  0.2980 -2.4620  0.2543
   76MOL   H21837868   7.544   3.507   6.799  0.1673 -0.4422 -1.1876
   76MOL   H21937869   7.667   3.421   6.878  0.0984  3.1257 -0.6515
   76MOL   H22037870   7.742   3.355   6.436  0.4854 -0.4799  2.0611
   76MOL   H22137871   7.618   3.477   6.436 -0.0520  0.3732 -0.8839
   76MOL   H22237872   7.752   3.627   6.689 -0.2553  0.6624 -0.5090
   76MOL   H22337873   7.937   3.812   6.683  0.3151  0.9179 -1.5820
   76MOL   H22437874   0.115   3.780   6.539  0.6142 -1.6699  2.5818
   76MOL   H22537875   0.106   3.608   6.358 -0.1141  0.5103 -0.3505
   76MOL   H22637876   7.937   3.452   6.336 -3.3853  1.6895 -2.4275
   76MOL   C22737877   7.557   3.154   6.844 -0.4463  0.4105 -0.6134
   76MOL   C22837878   7.699   3.119   6.909 -0.0776 -0.7222  0.0058
   76MOL   C22937879   7.702   3.186   7.057  0.2157 -0.0116 -0.0626
   76MOL   C23037880   7.814   3.176   6.825 -0.0284 -0.1401 -0.0712
   76MOL   O23137881   7.886   3.269   6.868  0.0260  0.4591  0.0182
   76MOL   O23237882   7.830   3.118   6.705  0.4861  0.1846 -0.2065
   76MOL   C23337883   7.927   3.164   6.612 -0.3117  0.0735 -0.7307
   76MOL   C23437884   7.966   3.050   6.518 -0.3901 -0.2657 -0.0905
   76MOL   C23537885   7.861   2.962   6.477 -0.6656 -0.4115  0.0472
   76MOL   C23637886   7.890   2.867   6.375  0.5588  0.4643  0.3094
   76MOL   C23737887   0.013   2.843   6.342 -0.3239 -0.2516  0.6680
   76MOL   C23837888   0.118   2.917   6.394 -0.7445  0.9882  0.5334
   76MOL   C23937889   0.091   3.026   6.477 -0.5061 -0.1033  0.7931
   76MOL   H24037890   7.542   3.090   6.757 -0.3690 -0.9360  0.3549
   76MOL   H24137891   7.484   3.120   6.918  0.6524  0.5781  0.5659
   76MOL   H24237892   7.701   3.294   7.048  0.1431 -0.1250 -1.5838
   76MOL   H24337893   7.797   3.169   7.108  0.5719 -0.0471 -0.7302
   76MOL   H24437894   7.616   3.168   7.120  2.0136  1.7554  3.0148
   76MOL   H24537895   7.887   3.254   6.565 -1.6592 -1.8264 -3.2994
   76MOL   H24637896   0.009   3.195   6.667 -0.5061 -1.5013  0.5086
   76MOL   H24737897   7.758   2.975   6.509 -0.7144  2.4428 -1.1525
   76MOL   H24837898   7.810   2.804   6.338  1.1962  0.2990 -0.7805
   76MOL   H24937899   0.044   2.763   6.275  2.5798  0.2048  1.3847
   76MOL   H25037900   0.214   2.883   6.358 -1.7738 -0.9545 -0.4456
   76MOL   H25137901   0.178   3.081   6.509 -0.3276 -0.3031  0.6493
   76MOL   C25237902   7.718   2.967   6.908 -0.1285  0.5562  0.1065
   76MOL   C25337903   7.643   2.867   6.999 -0.3131 -0.3464  0.5691
   76MOL   C25437904   7.491   2.866   6.988  0.4289 -0.3246 -0.1567
   76MOL   C25537905   7.680   2.884   7.150  0.4444  0.3794  0.2311
   76MOL   O25637906   7.595   2.892   7.242 -0.4279 -0.5905  0.5383
   76MOL   O25737907   7.815   2.870   7.176  0.2553  0.4177  0.5458
   76MOL   C25837908   7.862   2.869   7.312  0.0847 -0.1098 -0.6517
   76MOL   C25937909   7.889   2.731   7.361 -1.0461 -0.0108  0.4734
   76MOL   C26037910   0.011   2.700   7.407  0.0612  0.1584 -0.0406
   76MOL   C26137911   0.048   2.567   7.429  0.1370  0.6626  0.1149
   76MOL   C26237912   7.957   2.470   7.416 -0.4805  0.5832  0.8704
   76MOL   C26337913   7.824   2.501   7.385  0.2014  0.4455  0.1799
   76MOL   C26437914   7.789   2.631   7.351 -0.4841  0.2244 -0.2445
   76MOL   H26537915   7.823   2.952   6.932  0.3772 -0.2280 -2.4031
   76MOL   H26637916   7.715   2.932   6.805  2.4967 -1.5864  0.6972
   76MOL   H26737917   7.453   2.959   7.031 -0.0323 -0.9903  0.8904
   76MOL   H26837918   7.460   2.782   7.051  0.7462 -1.1053 -1.0422
   76MOL   H26937919   7.456   2.878   6.886 -2.1244 -1.7875  0.5171
   76MOL   H27037920   7.960   2.917   7.308 -0.4177  0.8678 -1.6979
   76MOL   H27137921   7.794   2.927   7.373  0.5064 -0.5666  0.2612
   76MOL   H27237922   0.081   2.781   7.415  3.9449 -3.0793  0.7195
   76MOL   H27337923   0.147   2.537   7.461 -0.0323 -0.0723 -0.0428
   76MOL   H27437924   7.980   2.367   7.441 -2.3022 -0.0238  0.1281
   76MOL   H27537925   7.739   2.435   7.376  0.7205 -0.1321 -0.4443
   76MOL   H27637926   7.688   2.659   7.326 -0.5888  0.1658  0.1136
   76MOL   C27737927   7.698   2.718   6.961  0.0831 -0.2158 -0.4607
   76MOL   C27837928   7.656   2.629   6.837 -0.1634  0.7197  0.0884
   76MOL   C27937929   7.673   2.715   6.705  1.0434  0.6143  0.4363
   76MOL   C28037930   7.507   2.586   6.856 -0.1170  0.0699 -0.2612
   76MOL   O28137931   7.422   2.599   6.772 -0.0044  0.3262  0.2540
   76MOL   O28237932   7.489   2.546   6.980 -0.2060 -0.4681  0.2598
   76MOL   C28337933   7.368   2.490   7.013  0.6145  0.0319 -0.2615
   76MOL   C28437934   7.359   2.438   7.159  0.4778  0.2086  0.0101
   76MOL   C28537935   7.471   2.385   7.224  0.2725  0.3826  0.2641
   76MOL   C28637936   7.455   2.322   7.351 -0.3827 -0.4230 -0.7855
   76MOL   C28737937   7.332   2.309   7.412  0.0399 -0.1744  0.5814
   76MOL   C28837938   7.220   2.373   7.348 -0.4414  0.1798 -0.4097
   76MOL   C28937939   7.232   2.440   7.221 -0.0797  0.0589  1.1582
   76MOL   H29037940   7.682   2.665   7.055  2.5393  0.9388  0.6483
   76MOL   H29137941   7.806   2.733   6.959  0.4125 -1.9092  2.0786
   76MOL   H29237942   7.773   2.758   6.703  1.1013  0.4912  0.6442
   76MOL   H29337943   7.596   2.792   6.703  0.4975  0.0542 -0.1452
   76MOL   H29437944   7.668   2.664   6.609  0.7242 -1.1954  1.3929
   76MOL   H29537945   7.284   2.551   6.979 -1.5699 -1.1099  2.8541
   76MOL   H29637946   7.341   2.400   6.957  0.4726 -1.8649  2.7347
   76MOL   H29737947   7.572   2.395   7.186  1.8786 -2.2697  3.5641
   76MOL   H29837948   7.538   2.281   7.407 -0.6653  0.3608  0.2151
   76MOL   H29937949   7.323   2.239   7.494 -0.7226 -0.6973  0.0651
   76MOL   H30037950   7.126   2.374   7.401  0.2934  2.0163  0.9065
   76MOL   H30137951   7.140   2.478   7.181  0.5483  0.5179  0.1301
   76MOL   C30237952   7.761   2.511   6.846  0.3088 -0.4948  0.5302
   76MOL   C30337953   7.748   2.377   6.771  0.0235  0.3749  0.3468
   76MOL   C30437954   7.697   2.397   6.628  0.0984  0.7970 -0.6901
   76MOL   C30537955   7.646   2.278   6.837 -0.3620  0.8880  0.3900
   76MOL   O30637956   7.612   2.294   6.953 -0.2730 -0.1255  0.2415
   76MOL   O30737957   7.620   2.167   6.765  0.1621 -0.3221 -0.4791
   76MOL   C30837958   7.550   2.056   6.823 -0.2475 -0.3958  0.3814
   76MOL   C30937959   7.653   1.953   6.854 -0.4101  0.2917  0.3318
   76MOL   C31037960   7.735   1.901   6.753 -0.0101  0.2442 -0.1222
   76MOL   C31137961   7.836   1.804   6.784  0.5112 -0.0611 -0.2272
   76MOL   C31237962   7.854   1.767   6.916  0.0835  0.0425 -0.5545
   76MOL   C31337963   7.782   1.825   7.017 -0.0855 -0.3941  0.6285
   76MOL   C31437964   7.683   1.922   6.986  0.5255  1.1807  0.1599
   76MOL   H31537965   7.765   2.500   6.954  2.3264 -1.0340  0.4220
   76MOL   H31637966   7.860   2.554   6.834 -0.4491  1.0498 -0.4294
   76MOL   H31737967   7.681   2.313   6.560 -2.4124  3.3375 -3.4274
   76MOL   H31837968   7.757   2.472   6.575  1.1166 -1.4073 -2.7510
   76MOL   H31937969   7.595   2.435   6.630 -0.0408  0.4009 -0.1032
   76MOL   H32037970   7.507   2.075   6.922  0.1825  1.0921  0.3040
   76MOL   H32137971   7.470   2.008   6.767 -0.2291  0.6158 -0.5323
   76MOL   H32237972   7.719   1.922   6.649  0.7080 -3.8401 -1.1360
   76MOL   H32337973   7.890   1.750   6.707 -1.4178 -0.9448 -0.9758
   76MOL   H32437974   7.923   1.685   6.931  0.9857  0.9150  0.1350
   76MOL   H32537975   7.798   1.792   7.119 -1.6845  0.1685  1.0802
   76MOL   H32637976   7.632   1.965   7.071  0.7588 -0.3035  1.0755
   76MOL   C32737977   7.892   2.312   6.756 -0.2637  0.3021  0.2353
   76MOL   C32837978   7.978   2.253   6.874  0.1088 -0.8009 -0.4803
   76MOL   C32937979   7.919   2.140   6.947  0.4485 -0.5874  0.6320
   76MOL   C33037980   8.003   2.366   6.979  0.3405  0.0361 -0.4152
   76MOL   O33137981   7.965   2.355   7.095  0.1141  0.0862  0.4260
   76MOL   O33237982   0.073   2.469   6.940  0.0947  0.6531  0.1119
   76MOL   C33337983   0.075   2.590   7.021  0.1246  0.0851  0.2660
   76MOL   C33437984   0.099   2.706   6.933  0.2353  0.0993 -0.7728
   76MOL   C33537985   0.148   2.693   6.798  0.5126 -0.3251  0.0351
   76MOL   C33637986   0.185   2.811   6.728  1.0691  0.5282 -0.9045
   76MOL   C33737987   0.171   2.938   6.791  0.4050  0.1831  0.0770
   76MOL   C33837988   0.116   2.945   6.917  1.1339  0.2344 -0.4771
   76MOL   C33937989   0.081   2.834   6.992  0.2192  0.7073  0.6326
   76MOL   H34037990   7.958   2.383   6.706  0.0088  0.2673  0.5435
   76MOL   H34137991   7.879   2.239   6.676  0.7577  0.0393  0.3089
   76MOL   H34237992   7.827   2.173   6.995 -0.5136 -0.4037 -1.3271
   76MOL   H34337993   7.979   2.091   7.024 -0.3311  0.4007  1.8950
   76MOL   H34437994   7.895   2.060   6.877 -2.2117 -0.6811  1.6016
   76MOL   H34537995   7.977   2.608   7.043  0.2233  2.2156 -0.9170
   76MOL   H34637996   0.116   2.595   7.122 -0.1036  1.1651  0.3047
   76MOL   H34737997   0.164   2.598   6.750  0.9852 -0.2666  0.0727
   76MOL   H34837998   0.224   2.809   6.627 -2.6233  1.5062 -2.4300
   76MOL   H34937999   0.210   3.026   6.743  1.0838 -0.6862 -0.9894
   76MOL   H35038000   0.104   3.044   6.958 -1.0906 -0.3403  0.3423
   76MOL   H35138001   0.049   2.840   7.095  0.3993  1.7268  0.6330
   76MOL   C35238002   0.111   2.203   6.809  0.2112  0.0930  0.6099
   76MOL   C35338003   0.216   2.108   6.874  0.7573 -0.5399  0.2725
   76MOL   C35438004   0.170   1.961   6.878 -0.3709  0.3376 -0.6294
   76MOL   C35538005   0.249   2.149   7.025 -0.3548 -0.4627  0.2340
   76MOL   O35638006   0.232   2.081   7.121 -0.3837  0.2302 -0.4916
   76MOL   O35738007   0.310   2.268   7.027  0.5486  0.2538  0.0643
   76MOL   C35838008   0.337   2.327   7.160  1.0929  0.9018  0.4387
   76MOL   C35938009   0.429   2.446   7.154  0.0570 -0.0748 -0.2531
   76MOL   C36038010   0.490   2.477   7.032 -0.1048 -0.7029  0.3894
   76MOL   C36138011   0.584   2.582   7.017  0.2096  0.2143  0.5183
   76MOL   C36238012   0.626   2.655   7.132 -0.5053 -0.0269 -0.2194
   76MOL   C36338013   0.568   2.620   7.256  0.5105  0.9649  0.5130
   76MOL   C36438014   0.470   2.515   7.270 -0.3079 -0.5746 -0.4974
   76MOL   H36538015   0.158   2.293   6.768 -1.3663 -0.6509 -3.0081
   76MOL   H36638016   0.081   2.142   6.725 -0.0913 -1.1653  1.6214
   76MOL   H36738017   0.228   1.895   6.943 -2.7975 -1.8774 -0.6695
   76MOL   H36838018   0.183   1.919   6.778  1.1762 -1.9829  0.4947
   76MOL   H36938019   0.065   1.944   6.898  0.4818 -2.3100  1.8528
   76MOL   H37038020   0.242   2.368   7.194  0.6685  0.5089 -0.2514
   76MOL   H37138021   0.370   2.266   7.244 -1.8982  2.0513  2.5212
   76MOL   H37238022   0.476   2.417   6.944 -0.4026 -1.9308  1.2590
   76MOL   H37338023   0.633   2.614   6.926 -4.3869  3.3858 -1.0585
   76MOL   H37438024   0.698   2.736   7.132  0.0431 -0.5178 -1.6307
   76MOL   H37538025   0.598   2.663   7.350 -0.4963 -1.1371  1.8285
   76MOL   H37638026   0.423   2.487   7.363  0.1954 -1.8468 -0.6299
   76MOL   C37738027   0.344   2.112   6.778  0.4577  0.7284 -0.7676
   76MOL   C37838028   0.482   2.036   6.803 -0.4052  1.0266  0.2470
   76MOL   C37938029   0.570   2.078   6.682 -1.0434 -0.3522 -0.9574
   76MOL   C38038030   0.468   1.879   6.794 -0.2927  0.1829  0.0587
   76MOL   O38138031   0.451   1.811   6.892 -0.2698 -0.2973 -0.4932
   76MOL   O38238032   0.476   1.836   6.658 -0.1381  0.3278 -0.1324
   76MOL   C38338033   0.482   1.699   6.622 -0.2181  0.0877 -0.3606
   76MOL   C38438034   0.626   1.663   6.601 -0.1996  0.2087 -0.3099
   76MOL   C38538035   0.728   1.758   6.563  0.9437 -0.3929  0.0504
   76MOL   C38638036   0.869   1.732   6.577  0.6130  0.2123 -0.7606
   76MOL   C38738037   0.902   1.603   6.616 -0.1929  0.2125  0.2904
   76MOL   C38838038   0.810   1.502   6.642  0.2282  0.0749 -0.2586
   76MOL   C38938039   0.673   1.532   6.636 -0.0514 -0.3000  0.1666
   76MOL   H39038040   0.366   2.215   6.749  0.8569  1.3087  1.4862
   76MOL   H39138041   0.310   2.087   6.678 -0.1629  0.9385 -0.6110
   76MOL   H39238042   0.584   2.186   6.682 -0.9594 -0.3361  2.0123
   76MOL   H39338043   0.527   2.048   6.586 -1.9452  0.3004 -0.7609
   76MOL   H39438044   0.671   2.036   6.676 -0.8837  0.0233 -0.9078
   76MOL   H39538045   0.444   1.633   6.700  1.5519  2.6539  2.7415
   76MOL   H39638046   0.415   1.687   6.536 -0.6861  0.5672 -0.0625
   76MOL   H39738047   0.684   1.852   6.535  1.4511  0.2669  1.4487
   76MOL   H39838048   0.946   1.801   6.546  1.2516 -0.4455 -0.6558
   76MOL   H39938049   1.007   1.579   6.626 -0.1256  0.4629  0.1754
   76MOL   H40038050   0.846   1.407   6.677 -1.0700 -0.8136 -1.2405
   76MOL   H40138051   0.603   1.451   6.649 -0.0468 -0.1428  1.2089
   76MOL   C40238052   0.545   2.080   6.936 -0.3956 -0.0341 -0.1472
   76MOL   C40338053   0.697   2.085   6.979  0.7189  0.3708  0.6283
   76MOL   C40438054   0.761   2.215   6.932 -0.0946  0.6702 -0.3596
   76MOL   C40538055   0.780   1.966   6.925 -0.3474  0.0111  0.6216
   76MOL   O40638056   0.885   1.979   6.852  0.1080 -0.1263 -0.9081
   76MOL   O40738057   0.728   1.853   6.969  1.1290 -0.1802  0.5435
   76MOL   C40838058   0.780   1.728   6.957 -0.4671  0.3623  0.5299
   76MOL   C40938059   0.716   1.628   7.045  0.2163 -0.1449  0.1468
   76MOL   C41038060   0.776   1.612   7.172 -0.4965 -0.4769  0.2261
   76MOL   C41138061   0.724   1.508   7.252  0.0326 -0.3134 -0.0354
   76MOL   C41238062   0.613   1.431   7.207 -0.0037 -1.0100  0.4530
   76MOL   C41338063   0.558   1.448   7.081  0.1171  0.0012 -0.7707
   76MOL   C41438064   0.612   1.545   6.992  0.1749 -0.9949 -0.1256
   76MOL   H41538065   0.486   2.029   7.012 -0.0969  2.9400  2.1925
   76MOL   H41638066   0.511   2.184   6.937 -0.0232  0.1766 -3.4969
   76MOL   H41738067   0.766   2.224   6.824  1.0020 -3.7366 -0.7701
   76MOL   H41838068   0.864   2.211   6.966 -0.3408  1.8779  0.5792
   76MOL   H41938069   0.718   2.300   6.985 -3.5161 -0.8383 -0.5703
   76MOL   H42038070   0.769   1.690   6.855 -3.3868  0.8011  0.6435
   76MOL   H42138071   0.888   1.727   6.977 -0.2381 -0.9520 -0.6747
   76MOL   H42238072   0.847   1.678   7.219 -0.0458 -1.9214  1.6530
   76MOL   H42338073   0.771   1.483   7.347 -1.2958 -1.8684  0.2301
   76MOL   H42438074   0.578   1.352   7.271 -0.2191 -0.8176  0.5713
   76MOL   H42538075   0.474   1.388   7.049 -0.7811  0.7878  0.0315
   76MOL   H42638076   0.572   1.575   6.896  1.6283 -0.7684 -0.6621
   76MOL   C42738077   0.682   2.085   7.135 -0.7004 -0.5506  0.2760
   76MOL   C42838078   0.797   2.111   7.235 -0.0968 -0.2090 -0.0262
   76MOL   C42938079   0.927   2.036   7.193  0.3309  0.0334  0.1198
   76MOL   C43038080   0.744   2.057   7.371 -0.3002  0.2647 -0.5897
   76MOL   O43138081   0.625   2.069   7.400 -0.7651  0.3595  0.2325
   76MOL   O43238082   0.832   1.989   7.454 -0.2160 -0.4536  0.3802
   76MOL   C43338083   0.780   1.910   7.563  0.4996 -0.3227 -0.1821
   76MOL   C43438084   0.830   1.764   7.570  0.1311 -0.4822 -0.2562
   76MOL   C43538085   0.770   1.678   7.667 -0.3931 -0.0753 -0.3594
   76MOL   C43638086   0.818   1.551   7.692  0.1110 -0.2939  0.0810
   76MOL   C43738087   0.930   1.501   7.622  0.0649  0.5367  0.6418
   76MOL   C43838088   0.990   1.592   7.532 -0.1574  0.2811 -0.4651
   76MOL   C43938089   0.939   1.717   7.502  0.1420 -0.1927  1.3495
   76MOL   H44038090   0.640   1.986   7.152 -0.8635 -0.9554 -2.2403
   76MOL   H44138091   0.598   2.154   7.144 -0.5344 -0.3332  0.1572
   76MOL   H44238092   0.974   2.071   7.102  1.0092  2.0119  1.2039
   76MOL   H44338093   0.908   1.929   7.179  1.5065 -0.3659  1.4846
   76MOL   H44438094   1.001   2.054   7.271  1.1196 -0.0855 -0.6039
   76MOL   H44538095   0.780   1.964   7.658 -0.8107  0.8166 -0.8018
   76MOL   H44638096   0.673   1.891   7.551  0.0674  0.2078  2.5324
   76MOL   H44738097   0.683   1.716   7.718 -0.7985 -0.2921 -0.8732
   76MOL   H44838098   0.756   1.490   7.757  0.5672  0.3910  1.1818
   76MOL   H44938099   0.957   1.397   7.634  1.1374  0.6945 -0.2988
   76MOL   H45038100   1.074   1.556   7.473 -0.2556 -2.2714  0.8438
   76MOL   H45138101   0.987   1.777   7.426 -2.3616  0.3084  0.1241
   76MOL   C45238102   0.820   2.268   7.243 -0.1284  0.0532 -1.1676
   76MOL   C45338103   0.909   2.342   7.359  0.0755  0.0681 -0.0091
   76MOL   C45438104   0.923   2.492   7.327  0.0006  0.4642  0.0738
   76MOL   C45538105   1.053   2.287   7.372  0.2843 -0.2558  0.2789
   76MOL   O45638106   1.092   2.232   7.474  0.3032 -0.5470  0.7086
   76MOL   O45738107   1.122   2.298   7.256 -0.5127  0.2237  0.4076
   76MOL   C45838108   1.264   2.272   7.251  0.3027  0.1240 -0.3799
   76MOL   C45938109   1.299   2.216   7.117  0.1681  0.0108  0.0614
   76MOL   C46038110   1.333   2.299   7.010  0.3316  0.4068  0.3709
   76MOL   C46138111   1.365   2.246   6.881 -0.2298 -0.5038 -0.1162
   76MOL   C46238112   1.350   2.103   6.864 -0.0045 -0.0263 -0.4269
   76MOL   C46338113   1.303   2.015   6.967  0.3942 -0.1398 -0.0169
   76MOL   C46438114   1.288   2.076   7.097  0.3021  0.2512 -0.6710
   76MOL   H46538115   0.722   2.315   7.249  1.0131  2.2799  1.3345
   76MOL   H46638116   0.870   2.285   7.148 -0.4128  3.0148 -0.8513
   76MOL   H46738117   1.015   2.530   7.370  0.9526 -0.3221 -1.2400
   76MOL   H46838118   0.837   2.551   7.360 -0.0148  0.8585 -0.6521
   76MOL   H46938119   0.940   2.513   7.221 -0.4002 -1.1091 -0.3162
   76MOL   H47038120   1.323   2.362   7.271  0.7178 -0.5137  1.3882
   76MOL   H47138121   1.281   2.189   7.320 -1.0587 -0.5054 -0.7807
   76MOL   H47238122   1.347   2.406   7.015  1.7468  0.2828 -0.5873
   76MOL   H47338123   1.403   2.305   6.799 -2.9022 -2.0952 -2.5916
   76MOL   H47438124   1.375   2.066   6.765 -2.2563 -2.7480 -0.0280
   76MOL   H47538125   1.301   1.908   6.952  0.3385 -0.0735 -0.4937
   76MOL   H47638126   1.277   2.008   7.180 -0.6409 -0.8025 -1.6543
   76MOL   C47738127   0.821   2.333   7.488  0.5719  0.5309 -0.8883
   76MOL   C47838128   0.846   2.437   7.598 -0.0138 -0.4441  0.1341
   76MOL   C47938129   0.886   2.379   7.737 -0.1091 -0.0914  0.4062
   76MOL   C48038130   0.729   2.524   7.615 -0.0701 -0.0316  0.1409
   76MOL   O48138131   0.717   2.635   7.570 -0.0859 -0.3075  0.7747
   76MOL   O48238132   0.625   2.457   7.669  0.4185 -0.8958  0.0830
   76MOL   C48338133   0.497   2.508   7.657  0.4898 -0.2233  0.0718
   76MOL   C48438134   0.395   2.389   7.653  0.4810  0.1571 -0.3554
   76MOL   C48538135   0.261   2.412   7.678 -0.0498 -0.2275  0.1569
   76MOL   C48638136   0.166   2.307   7.662  0.4046  0.4644  0.0767
   76MOL   C48738137   0.202   2.188   7.598 -0.7004  0.7301 -0.6397
   76MOL   C48838138   0.344   2.167   7.569 -0.2405  0.2634  0.0557
   76MOL   C48938139   0.441   2.267   7.599  0.5760  0.9738  0.5795
   76MOL   H49038140   0.846   2.241   7.541 -0.3051  0.6864 -0.2022
   76MOL   H49138141   0.717   2.342   7.459 -0.0416  0.3329  1.1466
   76MOL   H49238142   0.982   2.328   7.741 -0.6410 -1.0862  0.5792
   76MOL   H49338143   0.810   2.324   7.791 -1.0009  1.6839  0.9803
   76MOL   H49438144   0.890   2.462   7.808  0.1592  1.3127 -1.2083
   76MOL   H49538145   0.484   2.575   7.742  0.8430  0.0666 -0.1026
   76MOL   H49638146   0.487   2.573   7.570  0.9068  0.2368  0.3658
   76MOL   H49738147   0.223   2.505   7.716 -1.3669 -1.0240  0.8266
   76MOL   H49838148   0.060   2.327   7.672  0.1303 -0.5782 -0.7167
   76MOL   H49938149   0.139   2.102   7.577 -0.5368  1.2485 -3.5350
   76MOL   H50038150   0.369   2.083   7.505 -0.7564  0.2419 -0.1207
   76MOL   H50138151   0.540   2.256   7.558  0.0232  1.0904 -0.7926
   76MOL   H50238152   0.921   2.511   7.570  0.2524 -1.5544 -2.2177
   77MOL     C138153   4.830   4.446   3.438 -0.5186  0.2113  0.4342
   77MOL     C238154   4.835   4.527   3.567 -0.2302 -0.1806 -0.7089
   77MOL     C338155   4.730   4.475   3.676 -0.2736  0.1617  0.2380
   77MOL     C438156   4.796   4.669   3.535 -0.6384 -0.2489  0.9282
   77MOL     O538157   4.842   4.766   3.591 -0.4855 -0.1906 -0.6167
   77MOL     O638158   4.703   4.674   3.443  0.0783 -0.2067  0.1641
   77MOL     C738159   4.656   4.797   3.391 -0.8567 -0.2719  0.4212
   77MOL     C838160   4.586   4.778   3.255 -0.1084  0.1955 -0.2729
   77MOL     C938161   4.645   4.814   3.135  0.7481  0.4852  0.2109
   77MOL    C1038162   4.574   4.785   3.016  0.3193 -0.5666  0.3907
   77MOL    C1138163   4.431   4.744   3.032  0.1408 -0.3758 -0.0830
   77MOL    C1238164   4.376   4.710   3.150  0.2986 -0.0825 -0.2956
   77MOL    C1338165   4.449   4.728   3.262 -0.3920  0.3385  0.5641
   77MOL    H1438166   4.877   4.496   3.353  0.5315 -0.7287  0.4441
   77MOL    H1538167   4.878   4.348   3.440 -1.2206 -0.1264  1.1947
   77MOL    H1638168   4.751   4.382   3.729 -2.0503 -0.6374 -0.3988
   77MOL    H1738169   4.632   4.465   3.628 -0.3594  1.5982  0.0925
   77MOL    H1838170   4.717   4.552   3.752 -1.7003 -2.6199  2.9366
   77MOL    H1938171   4.585   4.842   3.461  0.4379 -0.4954  1.9088
   77MOL    H2038172   4.744   4.858   3.373 -0.0398 -1.4881  0.2366
   77MOL    H2138173   4.748   4.842   3.121  1.0447 -1.2364 -1.4623
   77MOL    H2238174   4.622   4.793   2.920  1.2747 -2.2871  0.7053
   77MOL    H2338175   4.370   4.735   2.944  0.0832  0.6268 -0.1533
   77MOL    H2438176   4.276   4.673   3.167 -0.0550  1.1384  0.3412
   77MOL    H2538177   4.414   4.706   3.362 -0.1592  0.6560  0.7158
   77MOL    H2638178   4.733   4.412   3.404  0.7150 -2.6242 -0.3802
   77MOL    C2738179   4.972   4.532   3.645 -0.2580  0.4500  0.1175
   77MOL    C2838180   5.116   4.559   3.579  0.3769  0.1265  0.0432
   77MOL    C2938181   5.112   4.705   3.537  0.2843 -0.0510  0.0666
   77MOL    C3038182   5.138   4.469   3.462  0.3689 -0.3048  0.0800
   77MOL    O3138183   5.145   4.348   3.473 -0.2419  0.1372  0.7273
   77MOL    O3238184   5.158   4.542   3.346 -0.0159 -0.1077 -0.0551
   77MOL    C3338185   5.191   4.473   3.222 -0.3126 -0.3073  0.7337
   77MOL    C3438186   5.090   4.485   3.111  0.7242 -0.4105  0.1260
   77MOL    C3538187   5.092   4.393   2.996  0.4090 -0.3365  0.1036
   77MOL    C3638188   4.998   4.402   2.889  0.3867 -0.6160  0.8164
   77MOL    C3738189   4.902   4.503   2.896 -0.1716  0.3151 -0.4004
   77MOL    C3838190   4.903   4.600   2.998 -0.4379 -0.1051  0.0570
   77MOL    C3938191   4.997   4.588   3.110  0.5600  0.5864 -0.9331
   77MOL    H4038192   4.974   4.432   3.688 -0.3206 -0.4178 -1.8375
   77MOL    H4138193   4.959   4.601   3.728  1.6201 -0.1619  0.9567
   77MOL    H4238194   5.212   4.745   3.519  0.7318 -1.4136 -0.4878
   77MOL    H4338195   5.080   4.764   3.623 -4.4978  1.1285 -2.3234
   77MOL    H4438196   5.047   4.730   3.453  2.2901 -1.4957 -1.9562
   77MOL    H4538197   5.290   4.515   3.199 -1.4496  1.7152 -0.6150
   77MOL    H4638198   5.192   4.365   3.234  0.2496 -0.2256  1.4851
   77MOL    H4738199   5.168   4.317   2.988  1.5176  0.7886 -0.3395
   77MOL    H4838200   4.992   4.333   2.806  0.0134  1.1882 -0.7005
   77MOL    H4938201   4.831   4.510   2.816 -0.6713 -0.0275  0.0031
   77MOL    H5038202   4.823   4.672   2.986  0.9655  1.6980  1.3784
   77MOL    H5138203   4.995   4.665   3.187 -1.0017  0.9042 -1.2744
   77MOL    C5238204   5.223   4.525   3.698  0.2183 -0.6275  0.7939
   77MOL    C5338205   5.381   4.559   3.697 -0.6529  0.1236  0.0087
   77MOL    C5438206   5.432   4.489   3.822  0.1777  1.0309  0.6540
   77MOL    C5538207   5.402   4.719   3.711 -0.1611  0.3413 -0.5422
   77MOL    O5638208   5.479   4.779   3.635  0.7399 -0.5590  0.1316
   77MOL    O5738209   5.330   4.768   3.815 -0.2507  0.0404  0.1581
   77MOL    C5838210   5.350   4.906   3.833  0.1009  0.1683  0.1419
   77MOL    C5938211   5.485   4.926   3.902 -0.6996 -0.3334 -0.4348
   77MOL    C6038212   5.561   5.035   3.859 -0.2355  0.0887 -0.0910
   77MOL    C6138213   5.677   5.066   3.925  0.2240  0.3062  1.0570
   77MOL    C6238214   5.718   4.990   4.039 -0.7788 -0.5936  0.1857
   77MOL    C6338215   5.643   4.875   4.079  0.7432  0.0375 -0.2575
   77MOL    C6438216   5.526   4.850   4.014  1.0464  0.2017 -0.5590
   77MOL    H6538217   5.205   4.418   3.705 -0.4687 -0.6211 -0.6732
   77MOL    H6638218   5.184   4.579   3.784 -0.3373  0.0795  0.1107
   77MOL    H6738219   5.381   4.530   3.910 -1.9474 -0.9688  0.3896
   77MOL    H6838220   5.539   4.495   3.841  0.4541  1.7216 -1.0277
   77MOL    H6938221   5.411   4.383   3.812  0.1588  0.9329  1.7125
   77MOL    H7038222   5.335   4.954   3.736 -2.8079 -0.4845  0.2224
   77MOL    H7138223   5.280   4.947   3.906  2.3078  1.7563  1.4037
   77MOL    H7238224   5.512   5.101   3.789 -0.1897  0.2504  0.0307
   77MOL    H7338225   5.734   5.146   3.879 -0.5991 -0.5395 -1.5157
   77MOL    H7438226   5.816   5.010   4.078 -0.8795  2.8024 -1.1249
   77MOL    H7538227   5.679   4.814   4.161 -0.6204 -0.7040 -0.1996
   77MOL    H7638228   5.466   4.764   4.040  2.4318 -0.4975  0.3643
   77MOL    C7738229   5.442   4.504   3.560  0.3365  0.2043  0.2685
   77MOL    C7838230   5.591   4.446   3.551 -0.3066  0.2488 -0.6490
   77MOL    C7938231   5.599   4.436   3.394 -0.1986  0.2422 -0.6788
   77MOL    C8038232   5.606   4.307   3.620 -0.3510 -0.2516  0.4729
   77MOL    O8138233   5.672   4.296   3.720  0.1302 -0.6811 -0.8957
   77MOL    O8238234   5.536   4.213   3.549 -0.0165 -0.3457 -0.6390
   77MOL    C8338235   5.551   4.077   3.586 -0.0762 -0.7669  0.1242
   77MOL    C8438236   5.416   4.005   3.596 -0.2312  0.6112 -0.9074
   77MOL    C8538237   5.323   4.013   3.488  0.2709 -0.4898  0.3324
   77MOL    C8638238   5.196   3.954   3.498 -0.7418 -0.7989  0.2139
   77MOL    C8738239   5.163   3.872   3.608  0.1776  0.0603 -1.0758
   77MOL    C8838240   5.257   3.855   3.712 -0.9036 -0.9629  0.5415
   77MOL    C8938241   5.383   3.916   3.706  0.3795  0.4863 -1.0089
   77MOL    H9038242   5.425   4.583   3.487 -0.8168 -0.7386 -0.5067
   77MOL    H9138243   5.377   4.423   3.527  1.1976 -0.1581 -0.5522
   77MOL    H9238244   5.505   4.420   3.342 -0.8412  0.5855  0.3590
   77MOL    H9338245   5.659   4.353   3.357  0.0651  0.1372 -0.0237
   77MOL    H9438246   5.642   4.523   3.345  4.0702 -0.6550  1.2451
   77MOL    H9538247   5.625   4.034   3.519  1.4952  0.8030  0.8165
   77MOL    H9638248   5.606   4.072   3.680 -0.7387 -2.0304  0.4563
   77MOL    H9738249   5.338   4.085   3.409 -0.8608 -1.0515 -0.4092
   77MOL    H9838250   5.122   3.978   3.422  2.3154 -1.7900 -3.2238
   77MOL    H9938251   5.064   3.827   3.615 -0.5330  1.8599  1.0722
   77MOL   H10038252   5.228   3.791   3.794 -1.2370 -2.1205 -0.4666
   77MOL   H10138253   5.460   3.893   3.779 -1.2723 -1.8296  0.0709
   77MOL   C10238254   5.703   4.549   3.599  0.1300 -0.4622 -0.0140
   77MOL   C10338255   5.856   4.538   3.581 -0.2127  0.3730  0.6368
   77MOL   C10438256   5.909   4.667   3.514 -0.0621 -0.3543 -0.0953
   77MOL   C10538257   5.900   4.422   3.478 -0.3943  0.3539 -0.2121
   77MOL   O10638258   5.941   4.440   3.365  0.2220  0.1487  0.0080
   77MOL   O10738259   5.875   4.300   3.519  0.7857  0.4380 -0.2311
   77MOL   C10838260   5.891   4.194   3.432 -0.2709  0.0668 -0.0764
   77MOL   C10938261   5.919   4.057   3.503 -0.8352  0.8581 -0.1950
   77MOL   C11038262   5.980   3.955   3.428  0.1407 -0.2418  0.0951
   77MOL   C11138263   5.998   3.825   3.487 -0.1103 -0.5395  1.0951
   77MOL   C11238264   5.975   3.804   3.618  0.5913  1.1423 -0.1227
   77MOL   C11338265   5.918   3.906   3.695 -0.2445  0.2199 -0.4039
   77MOL   C11438266   5.893   4.035   3.644 -0.1063  0.0907 -0.5320
   77MOL   H11538267   5.687   4.560   3.706 -0.7801 -1.8495 -0.0016
   77MOL   H11638268   5.663   4.642   3.557 -1.2413 -0.6890  0.7509
   77MOL   H11738269   5.903   4.738   3.596  0.9419 -2.0315  1.4690
   77MOL   H11838270   5.840   4.704   3.438 -0.1736 -0.8571 -0.2430
   77MOL   H11938271   6.010   4.665   3.471 -0.9632 -2.0035 -2.2317
   77MOL   H12038272   5.807   4.183   3.363 -0.2990  3.6083 -0.6936
   77MOL   H12138273   5.973   4.212   3.362 -0.7516  0.4907 -0.5386
   77MOL   H12238274   6.001   3.979   3.325 -1.7581 -0.1965 -0.2995
   77MOL   H12338275   6.029   3.739   3.430  1.1602  0.6979 -0.1071
   77MOL   H12438276   5.998   3.710   3.666  0.1372  0.7444 -0.6746
   77MOL   H12538277   5.881   3.885   3.794 -0.7872 -2.7349 -1.1779
   77MOL   H12638278   5.841   4.114   3.697 -0.4836 -0.2301 -0.4224
   77MOL   C12738279   5.927   4.510   3.712 -0.2556 -0.0116  0.0107
   77MOL   C12838280   5.951   4.603   3.834 -0.2289 -0.1855  0.0832
   77MOL   C12938281   5.817   4.661   3.879  0.3589 -0.3908  0.1314
   77MOL   C13038282   6.043   4.725   3.802  0.1551 -0.0399  0.0662
   77MOL   O13138283   6.017   4.843   3.830 -0.1597 -0.0982 -0.3546
   77MOL   O13238284   6.165   4.682   3.745  0.7583  0.2057  0.5643
   77MOL   C13338285   6.266   4.774   3.714  0.0248 -0.0011  0.3731
   77MOL   C13438286   6.297   4.789   3.566 -1.1941 -0.3792  0.5186
   77MOL   C13538287   6.410   4.720   3.521 -0.5537 -0.2071  0.3371
   77MOL   C13638288   6.444   4.711   3.383 -0.1276 -0.0088 -0.3339
   77MOL   C13738289   6.343   4.755   3.291 -0.2529  0.5634  0.2534
   77MOL   C13838290   6.231   4.832   3.333  0.0915  0.5566 -0.5741
   77MOL   C13938291   6.208   4.845   3.470  0.3099 -0.5066 -0.3897
   77MOL   H14038292   6.028   4.484   3.679  0.5814  2.4021  0.5666
   77MOL   H14138293   5.888   4.414   3.745  0.7786  0.8223  3.8535
   77MOL   H14238294   5.841   4.728   3.960  2.9888 -1.1386  0.0057
   77MOL   H14338295   5.734   4.597   3.910 -1.0413  1.8336  1.1171
   77MOL   H14438296   5.783   4.718   3.792 -1.5639 -0.9709  0.4793
   77MOL   H14538297   6.240   4.873   3.754  1.4045 -0.1063  1.5649
   77MOL   H14638298   6.360   4.754   3.766  0.0488  0.6346  0.5924
   77MOL   H14738299   6.477   4.675   3.593 -1.2707  1.5770  2.1550
   77MOL   H14838300   6.530   4.664   3.337 -0.5669 -1.4312  0.2462
   77MOL   H14938301   6.348   4.725   3.187 -0.0495 -0.7014  0.6126
   77MOL   H15038302   6.160   4.867   3.260  1.4698  2.3817 -1.0692
   77MOL   H15138303   6.115   4.886   3.509  1.0629 -0.5904  1.5749
   77MOL   C15238304   6.034   4.513   3.945  0.9745  0.1214  0.3337
   77MOL   C15338305   5.967   4.417   4.054  0.5418 -0.2641  0.1915
   77MOL   C15438306   5.870   4.322   3.979 -0.6333 -0.0818 -0.6084
   77MOL   C15538307   5.896   4.503   4.158  0.1979  0.0985  0.0611
   77MOL   O15638308   5.778   4.474   4.193  0.1534  0.2449 -0.0560
   77MOL   O15738309   5.976   4.597   4.206  0.5901  0.4442  0.0213
   77MOL   C15838310   5.941   4.683   4.309  0.3368 -0.2035  0.9235
   77MOL   C15938311   6.053   4.769   4.344 -0.5517  0.0136 -0.6960
   77MOL   C16038312   6.114   4.741   4.468 -0.2785 -0.1588 -0.2646
   77MOL   C16138313   6.214   4.823   4.515  0.7012  0.5670 -0.4967
   77MOL   C16238314   6.272   4.925   4.440  0.7019 -0.4674 -0.0820
   77MOL   C16338315   6.215   4.944   4.309  0.1323 -0.4746 -0.3563
   77MOL   C16438316   6.096   4.873   4.267  0.5068 -0.6162  0.8888
   77MOL   H16538317   6.108   4.578   3.992  1.2814 -0.3099  0.4542
   77MOL   H16638318   6.106   4.454   3.889  0.9358 -0.5086  0.9422
   77MOL   H16738319   5.799   4.391   3.935 -1.9504 -1.0099  0.0150
   77MOL   H16838320   5.810   4.261   4.047  1.0689 -2.1164 -0.8712
   77MOL   H16938321   5.919   4.267   3.899  1.3918  1.0171 -0.1559
   77MOL   H17038322   5.857   4.743   4.273  1.8393  1.2520 -0.1987
   77MOL   H17138323   5.922   4.624   4.399  3.6270 -0.6548  1.3852
   77MOL   H17238324   6.078   4.658   4.527  3.5093 -2.1096 -0.5250
   77MOL   H17338325   6.257   4.795   4.610 -1.9596  0.3360  0.6682
   77MOL   H17438326   6.355   4.985   4.474 -0.6881  0.4276  1.7985
   77MOL   H17538327   6.258   5.016   4.240 -0.3701 -0.0001 -0.1804
   77MOL   H17638328   6.048   4.881   4.171  1.1549  1.8194  0.7367
   77MOL   C17738329   6.075   4.329   4.124  0.7404  0.2018 -0.0901
   77MOL   C17838330   6.043   4.186   4.191 -0.5555 -0.4796 -0.7379
   77MOL   C17938331   6.003   4.076   4.085  0.2650 -0.5919  0.1410
   77MOL   C18038332   5.928   4.195   4.295  0.0378 -0.5170  0.1464
   77MOL   O18138333   5.824   4.127   4.284 -0.1573  0.4035  0.0646
   77MOL   O18238334   5.950   4.293   4.390  0.5563 -0.3278  0.6619
   77MOL   C18338335   5.855   4.313   4.493 -0.0657  0.6475  0.0511
   77MOL   C18438336   5.930   4.314   4.626  0.2610  0.0484  0.5936
   77MOL   C18538337   5.985   4.194   4.675 -0.1713 -0.3496  0.2194
   77MOL   C18638338   6.056   4.188   4.796  0.0629 -0.3114  0.7261
   77MOL   C18738339   6.053   4.301   4.882 -0.3852  1.0930  0.6605
   77MOL   C18838340   6.004   4.421   4.835 -0.1744 -0.4042  0.0125
   77MOL   C18938341   5.951   4.431   4.705  0.3744 -0.7936 -0.1661
   77MOL   H19038342   6.119   4.396   4.197 -0.3212  1.1530 -0.3112
   77MOL   H19138343   6.154   4.320   4.049 -0.4489  1.8168 -1.5819
   77MOL   H19238344   6.022   3.979   4.130 -3.0272 -0.0760  2.8469
   77MOL   H19338345   6.058   4.082   3.992  0.5010 -1.1049  0.2478
   77MOL   H19438346   5.898   4.086   4.058  0.2936  0.8231  0.4950
   77MOL   H19538347   5.816   4.415   4.487 -1.1372  0.4593  2.9373
   77MOL   H19638348   5.774   4.240   4.492 -1.0056  1.6772 -2.0971
   77MOL   H19738349   5.979   4.109   4.608 -4.2200  2.2291 -2.9371
   77MOL   H19838350   6.104   4.095   4.823 -1.3066 -0.9825  0.8831
   77MOL   H19938351   6.105   4.299   4.977 -0.3427  1.7123  0.6516
   77MOL   H20038352   6.009   4.508   4.899 -0.1458 -0.7450  0.4687
   77MOL   H20138353   5.925   4.528   4.664  0.6015 -0.6786 -0.0344
   77MOL   C20238354   6.164   4.130   4.273  0.0732 -0.7892 -0.4709
   77MOL   C20338355   6.318   4.118   4.215  0.4561 -0.3599 -0.4862
   77MOL   C20438356   6.384   4.257   4.226 -0.9610 -0.1800  0.1242
   77MOL   C20538357   6.324   4.045   4.078 -0.3381 -0.2809  0.0240
   77MOL   O20638358   6.300   3.924   4.063 -0.4236  0.0895  0.2070
   77MOL   O20738359   6.338   4.124   3.979  0.1996 -0.1132 -0.2076
   77MOL   C20838360   6.337   4.073   3.838  0.2227 -0.3158  0.6313
   77MOL   C20938361   6.320   4.189   3.740 -0.0960 -0.3372  0.1133
   77MOL   C21038362   6.269   4.163   3.612  0.4965  0.1278 -0.4994
   77MOL   C21138363   6.256   4.267   3.522  0.4377  0.1021  0.3231
   77MOL   C21238364   6.281   4.396   3.558  0.2335 -0.7687  0.2056
   77MOL   C21338365   6.336   4.426   3.680  0.3683  0.6125 -0.1333
   77MOL   C21438366   6.357   4.321   3.776  0.3580  0.1570  0.4573
   77MOL   H21538367   6.129   4.036   4.314 -0.6432 -0.0016  0.7480
   77MOL   H21638368   6.182   4.174   4.371 -1.8179 -3.4392  1.1268
   77MOL   H21738369   6.334   4.330   4.162 -0.0157  2.2269  2.0332
   77MOL   H21838370   6.487   4.251   4.190 -1.0624 -3.2145  0.1969
   77MOL   H21938371   6.399   4.306   4.322 -1.1335 -1.6705  0.9226
   77MOL   H22038372   6.432   4.031   3.806  0.2346  1.7279 -2.1553
   77MOL   H22138373   6.261   3.997   3.822 -0.1488  0.6086 -2.2341
   77MOL   H22238374   6.242   4.062   3.583 -2.0371  0.3011  1.1205
   77MOL   H22338375   6.214   4.257   3.423  2.8897  0.8110 -0.8203
   77MOL   H22438376   6.257   4.480   3.494  0.8588  0.6961  1.8489
   77MOL   H22538377   6.378   4.521   3.709  1.4193  0.5911 -1.5767
   77MOL   H22638378   6.408   4.341   3.869  2.1234  1.3326 -0.7149
   77MOL   C22738379   6.376   4.018   4.320  0.5046  0.8519 -0.2592
   77MOL   C22838380   6.531   3.972   4.331 -0.0352 -0.1116 -0.2714
   77MOL   C22938381   6.607   3.967   4.195 -0.3454  0.1158  0.2073
   77MOL   C23038382   6.533   3.828   4.383  0.2813 -0.3055  0.1545
   77MOL   O23138383   6.466   3.801   4.483 -0.5579  0.2154 -0.2977
   77MOL   O23238384   6.619   3.745   4.317 -0.0129  0.1743  0.3443
   77MOL   C23338385   6.591   3.607   4.326 -0.8497  0.2758 -0.6825
   77MOL   C23438386   6.718   3.528   4.303  0.1683 -0.4491 -0.3477
   77MOL   C23538387   6.735   3.401   4.362 -0.0481  0.4423  0.5827
   77MOL   C23638388   6.850   3.325   4.341 -0.5453 -0.7044 -0.7382
   77MOL   C23738389   6.956   3.376   4.265 -0.4155  0.0295 -0.6122
   77MOL   C23838390   6.942   3.505   4.210 -0.3148  0.0943  0.6072
   77MOL   C23938391   6.818   3.579   4.223 -0.8288 -0.8791  0.3024
   77MOL   H24038392   6.319   3.925   4.313  3.5919 -1.0384 -1.6587
   77MOL   H24138393   6.353   4.054   4.420 -0.5627  1.1435 -0.6132
   77MOL   H24238394   6.550   3.903   4.127 -0.2992 -0.0732  0.3469
   77MOL   H24338395   6.707   3.927   4.209 -0.7851 -0.6174  1.3180
   77MOL   H24438396   6.607   4.065   4.147 -0.1514 -0.7647 -1.6107
   77MOL   H24538397   6.569   3.578   4.429  0.8142 -0.3857 -0.5028
   77MOL   H24638398   6.517   3.571   4.255 -0.7494 -1.7306  0.1860
   77MOL   H24738399   6.656   3.355   4.420 -0.2008 -0.8523 -0.6055
   77MOL   H24838400   6.850   3.227   4.387  3.3177  0.7262  2.5995
   77MOL   H24938401   7.047   3.320   4.249 -0.5497  0.7902 -4.4156
   77MOL   H25038402   7.028   3.547   4.160  1.0540 -4.3616 -1.0435
   77MOL   H25138403   6.815   3.675   4.175  1.5844 -0.1960  1.4715
   77MOL   C25238404   6.602   4.070   4.430 -0.1864 -0.4668 -0.6017
   77MOL   C25338405   6.760   4.078   4.441 -0.1069 -0.1831  0.3706
   77MOL   C25438406   6.809   4.172   4.327  0.4700  0.0817  0.2334
   77MOL   C25538407   6.838   3.953   4.444 -0.7589  0.2183  0.1703
   77MOL   O25638408   6.932   3.925   4.365 -0.3701 -0.4746  0.2907
   77MOL   O25738409   6.792   3.867   4.536  0.5734 -0.4006 -0.1152
   77MOL   C25838410   6.865   3.752   4.572 -0.8214 -0.9300 -0.0294
   77MOL   C25938411   6.960   3.761   4.692  1.0309  0.0800  0.8774
   77MOL   C26038412   7.078   3.836   4.684 -0.2199 -0.3042  0.4453
   77MOL   C26138413   7.174   3.823   4.787 -0.0924  0.0302  0.1083
   77MOL   C26238414   7.139   3.756   4.909  0.1373 -0.3450 -0.0695
   77MOL   C26338415   7.013   3.692   4.924  0.2923 -0.5508 -0.2506
   77MOL   C26438416   6.925   3.691   4.810  0.9290 -0.1374 -0.5039
   77MOL   H26538417   6.562   4.035   4.525  2.0157 -0.3337  0.3995
   77MOL   H26638418   6.571   4.174   4.421 -1.4131 -0.7698  0.0940
   77MOL   H26738419   6.793   4.126   4.230  1.2775 -1.7460  0.9473
   77MOL   H26838420   6.914   4.198   4.338  0.5383  1.4316 -3.0100
   77MOL   H26938421   6.741   4.256   4.314 -2.5892 -1.9977  2.2549
   77MOL   H27038422   6.793   3.678   4.608 -0.7189 -0.6560  0.7371
   77MOL   H27138423   6.920   3.708   4.489 -0.2814 -0.2546 -0.0333
   77MOL   H27238424   7.095   3.890   4.592 -1.5857  1.0684  0.9721
   77MOL   H27338425   7.273   3.863   4.772  0.1649 -1.1887 -1.5189
   77MOL   H27438426   7.205   3.745   4.994  0.5604 -0.5040 -0.4160
   77MOL   H27538427   6.993   3.643   5.018  2.1189 -0.5232  0.1825
   77MOL   H27638428   6.827   3.647   4.812  1.2225 -0.8729 -1.6097
   77MOL   C27738429   6.782   4.143   4.587 -0.1570 -0.4414 -0.3166
   77MOL   C27838430   6.765   4.293   4.627 -0.1753  0.5513  0.1604
   77MOL   C27938431   6.619   4.326   4.656  0.4683 -0.0722  0.0746
   77MOL   C28038432   6.832   4.392   4.531 -0.4544 -0.2791  0.0486
   77MOL   O28138433   6.769   4.468   4.456 -0.1422 -0.0521  0.4928
   77MOL   O28238434   6.963   4.370   4.516 -0.1511  0.7815  0.4218
   77MOL   C28338435   7.029   4.435   4.408  0.4072  0.3574 -1.0068
   77MOL   C28438436   7.092   4.572   4.432 -0.0187 -0.7279 -0.0911
   77MOL   C28538437   7.227   4.589   4.466  0.3669 -0.4765  0.1884
   77MOL   C28638438   7.278   4.716   4.504  0.1569  0.0498  0.6057
   77MOL   C28738439   7.201   4.826   4.491 -0.2590 -0.7429 -0.3601
   77MOL   C28838440   7.070   4.814   4.447  0.1948  0.3660  0.1516
   77MOL   C28938441   7.016   4.688   4.422  0.9503 -0.3319  0.7813
   77MOL   H29038442   6.883   4.111   4.613  0.0649  1.4120  1.2144
   77MOL   H29138443   6.723   4.088   4.660 -1.1914  0.5083 -0.4184
   77MOL   H29238444   6.564   4.317   4.562  1.0094 -0.4380 -0.2062
   77MOL   H29338445   6.614   4.432   4.681  1.1134 -0.0009 -0.0930
   77MOL   H29438446   6.571   4.263   4.731  1.1163  0.8218  1.2605
   77MOL   H29538447   7.108   4.363   4.386  1.2844  1.4936 -1.6429
   77MOL   H29638448   6.968   4.457   4.321 -0.8014 -1.8203 -0.7360
   77MOL   H29738449   7.296   4.506   4.475  0.5629 -0.5884 -1.9062
   77MOL   H29838450   7.383   4.714   4.531  0.0107 -0.8054  1.1400
   77MOL   H29938451   7.244   4.923   4.506  1.9005 -1.4842 -1.5558
   77MOL   H30038452   7.010   4.903   4.433  1.2189  0.7209 -2.2172
   77MOL   H30138453   6.912   4.674   4.398  0.7570  0.0230  1.4119
   77MOL   C30238454   6.842   4.303   4.759 -0.1387  0.3288 -0.0361
   77MOL   C30338455   6.827   4.393   4.890 -0.2809 -0.4463  0.0580
   77MOL   C30438456   6.698   4.368   4.960  0.6970 -0.3596  0.0088
   77MOL   C30538457   6.834   4.543   4.859 -0.1667 -0.1744  0.7205
   77MOL   O30638458   6.758   4.632   4.896 -0.0432 -0.2506 -0.3856
   77MOL   O30738459   6.947   4.572   4.791 -0.7643 -0.3896  0.5212
   77MOL   C30838460   7.009   4.700   4.792 -0.1881 -0.1247  0.6833
   77MOL   C30938461   7.118   4.683   4.892 -0.3222 -0.6004  0.3521
   77MOL   C31038462   7.217   4.588   4.870  0.2909  0.3075  0.4597
   77MOL   C31138463   7.333   4.585   4.948  0.5745  0.6094  0.0547
   77MOL   C31238464   7.345   4.685   5.049 -0.6555  0.8394  0.1833
   77MOL   C31338465   7.242   4.774   5.080 -0.0553  0.0238  0.4675
   77MOL   C31438466   7.132   4.777   4.992  0.4090 -0.1042 -0.1699
   77MOL   H31538467   6.949   4.292   4.739 -0.0082  1.5854 -0.0480
   77MOL   H31638468   6.821   4.209   4.811  0.4043  0.7396  0.9421
   77MOL   H31738469   6.610   4.401   4.905  0.5847  2.9369  1.9912
   77MOL   H31838470   6.697   4.411   5.061 -0.6328  0.8416 -0.4862
   77MOL   H31938471   6.666   4.266   4.977  0.8349 -0.5698 -0.9791
   77MOL   H32038472   7.048   4.728   4.695  1.4167  0.9406  1.6090
   77MOL   H32138473   6.937   4.773   4.831 -0.6684 -1.4734  2.3906
   77MOL   H32238474   7.206   4.522   4.786  4.0180 -2.1657  1.8082
   77MOL   H32338475   7.413   4.518   4.921  0.3134  0.4242 -0.2635
   77MOL   H32438476   7.435   4.682   5.108 -0.2425  0.5406 -0.4583
   77MOL   H32538477   7.258   4.855   5.150 -0.0888  0.0143  0.4865
   77MOL   H32638478   7.054   4.851   4.988  0.5003  0.0970  1.5494
   77MOL   C32738479   6.949   4.357   4.984 -0.3605 -0.4296 -0.2712
   77MOL   C32838480   6.985   4.222   5.051 -0.9399 -0.0340 -0.6273
   77MOL   C32938481   7.051   4.131   4.955 -0.0602  0.1587  0.3150
   77MOL   C33038482   6.865   4.160   5.119  0.6582  0.2430 -0.2697
   77MOL   O33138483   6.827   4.201   5.232  0.6520 -0.8057 -0.6527
   77MOL   O33238484   6.813   4.065   5.050  0.0328 -0.0395 -0.3987
   77MOL   C33338485   6.707   3.991   5.108 -0.1752 -0.0317 -0.4030
   77MOL   C33438486   6.660   3.877   5.017 -0.0429 -0.2718  0.6896
   77MOL   C33538487   6.584   3.921   4.902  0.2940 -0.9768 -0.4550
   77MOL   C33638488   6.524   3.828   4.820 -0.3711 -0.0560 -0.0386
   77MOL   C33738489   6.526   3.693   4.856  0.1569 -0.6770 -0.3863
   77MOL   C33838490   6.595   3.647   4.971  0.6116 -0.3803 -0.4431
   77MOL   C33938491   6.674   3.739   5.043 -0.4547 -0.6689 -0.4030
   77MOL   H34038492   6.941   4.442   5.053 -0.8051  0.1351 -1.0074
   77MOL   H34138493   7.040   4.384   4.931 -0.9401  1.1987 -0.4906
   77MOL   H34238494   6.989   4.096   4.872  0.1422 -1.1067  0.6758
   77MOL   H34338495   7.066   4.036   5.006 -3.2939  0.8268  2.7027
   77MOL   H34438496   7.144   4.168   4.912  0.2633 -2.2564 -1.2100
   77MOL   H34538497   6.742   3.940   5.198 -2.1837 -1.1102 -0.2016
   77MOL   H34638498   6.630   4.062   5.138 -0.2886 -0.9727  1.6122
   77MOL   H34738499   6.579   4.027   4.882  0.3446 -1.0469 -0.8445
   77MOL   H34838500   6.466   3.861   4.735  2.7888  2.8789 -1.2021
   77MOL   H34938501   6.471   3.629   4.788 -1.0583  1.1639 -1.2164
   77MOL   H35038502   6.593   3.546   5.009 -3.4102 -0.6492 -1.1138
   77MOL   H35138503   6.729   3.715   5.132  1.9191  1.4046 -1.2833
   77MOL   C35238504   7.101   4.261   5.153  0.2184  0.8059 -0.5815
   77MOL   C35338505   7.207   4.172   5.224 -0.5364 -0.2239 -0.5355
   77MOL   C35438506   7.130   4.059   5.289  0.1713 -0.0960  0.9252
   77MOL   C35538507   7.265   4.261   5.341  0.6113  0.3901 -0.1367
   77MOL   O35638508   7.277   4.379   5.329  0.7507  0.2155 -0.4475
   77MOL   O35738509   7.316   4.194   5.444  0.1461  0.5658  0.0645
   77MOL   C35838510   7.365   4.258   5.564 -0.3212  1.1820  0.0808
   77MOL   C35938511   7.476   4.177   5.630 -0.0401  1.3180  0.6476
   77MOL   C36038512   7.604   4.227   5.663 -0.2518 -0.3674 -0.0564
   77MOL   C36138513   7.691   4.156   5.742  0.7000 -0.3577  0.3316
   77MOL   C36238514   7.655   4.026   5.783  0.0754 -0.4176 -0.4741
   77MOL   C36338515   7.530   3.978   5.755 -0.7263  0.2124  0.4467
   77MOL   C36438516   7.449   4.042   5.669 -0.0393  0.1760 -0.1343
   77MOL   H36538517   7.056   4.309   5.240  2.2940  0.9548  0.4403
   77MOL   H36638518   7.159   4.337   5.101 -0.7305  0.1002 -2.6990
   77MOL   H36738519   7.055   4.104   5.354 -0.0183  1.7003 -0.4981
   77MOL   H36838520   7.192   4.005   5.362  2.1759  0.6740 -0.1761
   77MOL   H36938521   7.059   4.002   5.230 -2.1646 -0.0150  3.5704
   77MOL   H37038522   7.411   4.355   5.543 -0.1248  1.0531 -0.0778
   77MOL   H37138523   7.285   4.276   5.635 -1.4755  2.1382 -1.4250
   77MOL   H37238524   7.626   4.329   5.635 -0.3221 -0.0768  0.9471
   77MOL   H37338525   7.790   4.189   5.769  0.2818 -0.7226  2.4203
   77MOL   H37438526   7.712   3.965   5.850 -1.6348 -2.4284 -0.8105
   77MOL   H37538527   7.495   3.885   5.798  0.6950 -0.6289 -0.1656
   77MOL   H37638528   7.345   4.016   5.656  0.7341 -2.8021 -0.7484
   77MOL   C37738529   7.324   4.125   5.122 -0.2120 -0.1384  0.1548
   77MOL   C37838530   7.456   4.066   5.178  0.2809 -0.4218 -0.4046
   77MOL   C37938531   7.514   3.999   5.043 -1.1273 -0.4072  0.7036
   77MOL   C38038532   7.438   3.947   5.272 -0.0633 -0.2135  0.2959
   77MOL   O38138533   7.479   3.947   5.383 -0.1683 -0.3092  0.2357
   77MOL   O38238534   7.368   3.846   5.224 -0.1247  0.7287 -0.2449
   77MOL   C38338535   7.352   3.723   5.296  0.4126 -0.1072  0.0295
   77MOL   C38438536   7.237   3.731   5.388  0.6865 -0.3613 -1.0481
   77MOL   C38538537   7.108   3.697   5.341  0.3108 -0.2614 -0.1511
   77MOL   C38638538   6.999   3.688   5.433  0.0880 -0.0366 -0.8936
   77MOL   C38738539   7.015   3.742   5.570 -0.1926  0.3801  0.4296
   77MOL   C38838540   7.148   3.786   5.611 -0.4207  0.2653 -1.0054
   77MOL   C38938541   7.258   3.776   5.524  0.6603 -0.1636 -0.5546
   77MOL   H39038542   7.338   4.202   5.046 -1.7967 -1.0845 -1.1264
   77MOL   H39138543   7.269   4.042   5.077 -1.1568  1.0732 -0.9709
   77MOL   H39238544   7.539   4.072   4.967  1.6638 -0.0932  1.8361
   77MOL   H39338545   7.443   3.934   4.992 -0.2078  0.8225 -2.2244
   77MOL   H39438546   7.603   3.938   5.064  1.2143  2.6742  0.0702
   77MOL   H39538547   7.334   3.639   5.229  0.7597  1.3480 -1.9169
   77MOL   H39638548   7.445   3.697   5.348 -1.0456  0.2723  2.9226
   77MOL   H39738549   7.101   3.665   5.238 -0.2193 -2.7730  0.6275
   77MOL   H39838550   6.904   3.641   5.410  0.9861 -3.4448  1.9807
   77MOL   H39938551   6.934   3.737   5.642  0.0647 -1.2403  0.6353
   77MOL   H40038552   7.163   3.824   5.711  3.5181 -0.5577 -1.1940
   77MOL   H40138553   7.353   3.819   5.553 -0.9525  4.2373 -1.4692
   77MOL   C40238554   7.555   4.182   5.227  0.6737  0.0429 -0.2125
   77MOL   C40338555   7.715   4.195   5.195 -0.6673 -0.4004 -0.0904
   77MOL   C40438556   7.756   4.311   5.294 -0.8532 -0.3373  0.4799
   77MOL   C40538557   7.740   4.251   5.052 -0.5242  0.5416  0.4932
   77MOL   O40638558   7.749   4.171   4.955  0.3198  0.3699 -0.0406
   77MOL   O40738559   7.736   4.383   5.033 -0.1592  0.3473 -0.0891
   77MOL   C40838560   7.768   4.451   4.911  0.2469  0.0653 -0.9930
   77MOL   C40938561   7.779   4.597   4.923 -0.0768  0.4488  0.9357
   77MOL   C41038562   7.734   4.670   4.816  0.3651  0.1929 -0.1461
   77MOL   C41138563   7.757   4.811   4.817  1.1866 -0.2042  0.3307
   77MOL   C41238564   7.826   4.874   4.920  1.2305 -0.0665 -0.6242
   77MOL   C41338565   7.868   4.794   5.025  0.0744 -0.6171 -0.4693
   77MOL   C41438566   7.855   4.649   5.027 -0.6931 -0.1800 -0.4620
   77MOL   H41538567   7.540   4.181   5.335 -0.2911  1.1454 -0.3273
   77MOL   H41638568   7.516   4.279   5.195 -0.5180 -0.4213 -0.1931
   77MOL   H41738569   7.684   4.393   5.292 -2.3639 -1.4798  3.6399
   77MOL   H41838570   7.857   4.349   5.283 -0.0475 -2.2207  1.1762
   77MOL   H41938571   7.756   4.279   5.398  1.0690 -0.3230  0.4872
   77MOL   H42038572   7.867   4.416   4.880  0.3576 -2.0204  1.5482
   77MOL   H42138573   7.687   4.412   4.850 -0.9856 -1.0288  1.2912
   77MOL   H42238574   7.680   4.632   4.731  0.9333  2.0451 -1.3871
   77MOL   H42338575   7.716   4.875   4.739  3.8257  2.1365  0.7676
   77MOL   H42438576   7.847   4.979   4.917  0.9977 -0.0128 -0.4115
   77MOL   H42538577   7.918   4.823   5.117 -2.4521 -2.2692  1.4799
   77MOL   H42638578   7.895   4.592   5.110 -3.3194 -0.9380  0.3372
   77MOL   C42738579   7.787   4.060   5.223 -0.5873 -0.0088  0.4482
   77MOL   C42838580   7.944   4.039   5.253  0.7584 -0.3232  0.5019
   77MOL   C42938581   0.030   4.098   5.139 -0.2572  0.0929  0.0795
   77MOL   C43038582   7.971   3.887   5.261  0.7174  0.4579 -0.0465
   77MOL   O43138583   0.046   3.836   5.183 -0.0563 -0.3579 -0.3623
   77MOL   O43238584   7.920   3.821   5.352  0.0816  0.1052 -0.2841
   77MOL   C43338585   7.948   3.679   5.374  0.2275 -0.5641 -0.4702
   77MOL   C43438586   7.828   3.596   5.346 -0.3659  0.4464 -0.3933
   77MOL   C43538587   7.751   3.563   5.456 -0.0718 -0.0866 -0.5158
   77MOL   C43638588   7.636   3.481   5.442 -0.5335 -0.8209  0.5969
   77MOL   C43738589   7.596   3.442   5.318  0.3646 -0.5798  0.5204
   77MOL   C43838590   7.672   3.471   5.199  0.5652 -0.4898  0.1868
   77MOL   C43938591   7.788   3.548   5.219  0.1559 -0.3679 -0.3195
   77MOL   H44038592   7.773   3.988   5.142 -1.1435  1.9010 -1.1876
   77MOL   H44138593   7.740   4.013   5.309  1.6800 -2.6919  0.2948
   77MOL   H44238594   0.128   4.049   5.145  0.2866  1.1586  0.0728
   77MOL   H44338595   0.053   4.203   5.154  0.6606 -0.3376  1.7824
   77MOL   H44438596   7.984   4.084   5.045  0.1874  1.3337 -0.3668
   77MOL   H44538597   0.032   3.640   5.328  1.4469  0.4973  0.9769
   77MOL   H44638598   7.989   3.666   5.475 -0.9481  0.7515  0.1846
   77MOL   H44738599   7.781   3.604   5.552  1.2783  1.7692 -1.7019
   77MOL   H44838600   7.573   3.462   5.528  0.4942 -1.1022  1.2993
   77MOL   H44938601   7.506   3.383   5.306  0.0271 -0.1702  0.9982
   77MOL   H45038602   7.654   3.430   5.101  2.4754  0.4413 -0.5824
   77MOL   H45138603   7.843   3.580   5.131  0.3645  1.5628  0.4921
   77MOL   C45238604   7.992   4.084   5.395  0.4648 -0.1808 -0.0537
   77MOL   C45338605   0.133   4.096   5.451 -0.2345  0.4807 -0.0086
   77MOL   C45438606   0.127   4.142   5.598  0.2017  0.8531  0.5724
   77MOL   C45538607   0.209   4.203   5.376 -0.4718 -0.5143 -0.1308
   77MOL   O45638608   0.326   4.188   5.340 -0.7363 -0.1102 -0.5696
   77MOL   O45738609   0.140   4.319   5.359 -0.6503 -0.2055  0.2030
   77MOL   C45838610   0.206   4.436   5.310 -0.3817 -0.4638  0.4585
   77MOL   C45938611   0.168   4.554   5.397  0.3095  0.9164  0.4834
   77MOL   C46038612   0.265   4.628   5.469 -0.6119 -0.0415 -0.2368
   77MOL   C46138613   0.216   4.734   5.553  0.2212 -0.0542  0.7950
   77MOL   C46238614   0.079   4.746   5.579  0.4572 -0.4343 -0.0560
   77MOL   C46338615   7.997   4.673   5.504  0.2210 -0.1591  0.5384
   77MOL   C46438616   0.030   4.573   5.417  0.2577 -0.8659 -0.6769
   77MOL   H46538617   7.941   4.025   5.471 -0.4824  0.0337 -0.5195
   77MOL   H46638618   7.947   4.181   5.418 -0.4262 -0.7755  0.7754
   77MOL   H46738619   0.082   4.240   5.609  0.2169  0.8557  0.6039
   77MOL   H46838620   0.225   4.149   5.645 -0.1056 -0.5491  1.4633
   77MOL   H46938621   0.061   4.072   5.650  3.0157  0.4846  3.8521
   77MOL   H47038622   0.312   4.410   5.313  0.1370  1.0953 -2.2547
   77MOL   H47138623   0.174   4.443   5.206 -0.7220  3.1448  0.7160
   77MOL   H47238624   0.368   4.609   5.443 -0.8320 -2.0883  0.2990
   77MOL   H47338625   0.284   4.796   5.608 -0.6521  0.8047  0.9137
   77MOL   H47438626   0.036   4.806   5.658 -1.0099 -0.6040 -0.6987
   77MOL   H47538627   7.890   4.676   5.517  0.2836 -0.4165  1.1042
   77MOL   H47638628   7.965   4.526   5.351 -0.5245 -2.5310  1.2989
   77MOL   C47738629   0.210   3.958   5.444  0.2047  0.0898 -0.1217
   77MOL   C47838630   0.341   3.947   5.532 -0.3593  0.1140 -0.4567
   77MOL   C47938631   0.439   3.856   5.454 -0.6868 -0.7992 -0.0212
   77MOL   C48038632   0.324   3.885   5.676 -0.1757 -0.1967 -0.8505
   77MOL   O48138633   0.218   3.841   5.723 -0.0285 -0.2616 -0.2779
   77MOL   O48238634   0.442   3.887   5.734  0.2986  0.6469 -0.0402
   77MOL   C48338635   0.451   3.849   5.872  0.8881 -0.2207 -0.1271
   77MOL   C48438636   0.465   3.695   5.880 -0.2737  0.3362 -0.1833
   77MOL   C48538637   0.407   3.619   5.986 -0.1940 -0.2954  0.4002
   77MOL   C48638638   0.425   3.482   5.993 -0.0631  0.4510 -0.2351
   77MOL   C48738639   0.508   3.411   5.909 -0.3337  0.3868  0.5560
   77MOL   C48838640   0.572   3.483   5.806  0.5633 -0.3316  0.2120
   77MOL   C48938641   0.548   3.618   5.789  0.9759  0.1703  1.1643
   77MOL   H49038642   0.234   3.955   5.338 -0.0534 -0.7008 -0.1625
   77MOL   H49138643   0.148   3.870   5.463  0.1203 -0.4507 -2.7703
   77MOL   H49238644   0.390   3.761   5.431  0.4928 -1.3522 -0.2976
   77MOL   H49338645   0.529   3.823   5.504 -0.6578 -2.8061 -1.3532
   77MOL   H49438646   0.450   3.902   5.355  2.1033 -1.1061  0.1242
   77MOL   H49538647   0.540   3.883   5.927 -0.3026 -0.7166  2.1774
   77MOL   H49638648   0.366   3.882   5.931  2.3539  0.9584  1.4088
   77MOL   H49738649   0.340   3.668   6.055  2.7616  0.3522  2.9698
   77MOL   H49838650   0.380   3.429   6.075  1.4327 -1.2000 -0.4315
   77MOL   H49938651   0.513   3.305   5.926  0.7714  0.4689  0.7867
   77MOL   H50038652   0.629   3.422   5.738  0.4308  0.3292 -0.4926
   77MOL   H50138653   0.585   3.670   5.702 -2.1082  2.2860  1.0519
   77MOL   H50238654   0.383   4.044   5.557  0.5658 -0.1123 -1.1262
   78MOL     C138655   4.524   4.929   2.340 -0.4613 -0.1202  0.8135
   78MOL     C238656   4.372   4.963   2.333 -0.7818 -0.0067 -0.3338
   78MOL     C338657   4.356   5.103   2.264  0.5800 -0.0901 -0.3076
   78MOL     C438658   4.333   4.992   2.481  0.1781  0.0102  1.0385
   78MOL     O538659   4.392   4.945   2.577  0.5241  0.0160  0.2856
   78MOL     O638660   4.221   5.052   2.493 -0.8382  0.2905  0.2724
   78MOL     C738661   4.146   5.048   2.614 -0.0864 -0.8259 -0.6722
   78MOL     C838662   4.055   5.165   2.651 -0.1864 -0.8225 -0.5876
   78MOL     C938663   3.940   5.135   2.724 -0.0161 -0.6059 -0.3098
   78MOL    C1038664   3.856   5.241   2.768  0.3237 -0.0588  0.1358
   78MOL    C1138665   3.877   5.372   2.719  0.6423 -0.4508  0.2933
   78MOL    C1238666   3.996   5.396   2.647 -0.2467  0.7387  0.0602
   78MOL    C1338667   4.092   5.297   2.620 -0.1349 -0.3187 -0.1919
   78MOL    H1438668   4.546   4.835   2.390  0.8328  0.9195  2.2497
   78MOL    H1538669   4.564   4.923   2.239 -0.1320  0.4475  0.9087
   78MOL    H1638670   4.261   5.152   2.284  0.1370 -0.9338 -0.3213
   78MOL    H1738671   4.369   5.088   2.156 -0.0822 -0.1713 -0.3771
   78MOL    H1838672   4.436   5.164   2.304 -1.1898  0.1209  3.0397
   78MOL    H1938673   4.077   4.963   2.609  2.1332 -2.6631 -0.8300
   78MOL    H2038674   4.212   5.037   2.700 -2.1764  1.1313  1.2756
   78MOL    H2138675   3.906   5.034   2.742 -0.1968 -0.4029  0.5002
   78MOL    H2238676   3.779   5.226   2.842 -2.0511 -0.4781 -2.3355
   78MOL    H2338677   3.824   5.455   2.762 -3.1291 -1.2964 -2.5032
   78MOL    H2438678   4.024   5.498   2.623  2.4174  0.3447  1.2713
   78MOL    H2538679   4.183   5.323   2.567  0.7589 -0.8021  1.0634
   78MOL    H2638680   4.586   5.000   2.395  0.2581  1.3978 -1.8725
   78MOL    C2738681   4.300   4.843   2.262 -0.4816  0.1137 -0.2129
   78MOL    C2838682   4.145   4.821   2.230  0.0833  0.5964 -0.7867
   78MOL    C2938683   4.098   4.948   2.148 -0.1878  0.4885  1.5362
   78MOL    C3038684   4.065   4.809   2.364 -0.2026  0.0154  0.7603
   78MOL    O3138685   3.975   4.888   2.383  0.8806 -0.0322 -0.2850
   78MOL    O3238686   4.105   4.714   2.451  0.2953  0.3577  0.0850
   78MOL    C3338687   4.016   4.677   2.549  0.5018  0.2034 -0.0907
   78MOL    C3438688   4.077   4.575   2.641 -0.2432 -0.0391  0.8258
   78MOL    C3538689   4.134   4.458   2.583 -0.0975  0.4706 -0.4198
   78MOL    C3638690   4.208   4.364   2.664 -0.4739  0.0523  0.1610
   78MOL    C3738691   4.192   4.381   2.801 -0.0181  0.2461  0.4207
   78MOL    C3838692   4.119   4.488   2.859  0.2212 -0.7180  0.3724
   78MOL    C3938693   4.081   4.599   2.775 -0.1835 -0.6847  0.1126
   78MOL    H4038694   4.333   4.746   2.298  1.8427  0.6088 -0.9591
   78MOL    H4138695   4.351   4.838   2.166  1.8459  1.4204  0.9213
   78MOL    H4238696   4.085   5.037   2.210 -1.6240  0.2144  1.6375
   78MOL    H4338697   3.998   4.933   2.109  1.0027 -2.5642 -0.4701
   78MOL    H4438698   4.174   4.975   2.074 -1.7990 -1.7852 -0.9992
   78MOL    H4538699   3.976   4.766   2.598  0.4049  0.0592  0.0905
   78MOL    H4638700   3.924   4.628   2.515  0.4467  0.6084 -0.5373
   78MOL    H4738701   4.139   4.447   2.475 -1.9523  0.5836 -0.5231
   78MOL    H4838702   4.265   4.286   2.617  0.9594  0.2747  1.4789
   78MOL    H4938703   4.235   4.301   2.859 -0.4925 -1.9230 -2.0888
   78MOL    H5038704   4.100   4.496   2.965 -1.6599  1.8938 -0.0964
   78MOL    H5138705   4.029   4.688   2.809  1.3325  0.8153 -1.3830
   78MOL    C5238706   4.137   4.677   2.156 -0.1866 -0.3538  0.2195
   78MOL    C5338707   4.006   4.603   2.120 -0.2659  0.6258 -0.1902
   78MOL    C5438708   4.061   4.485   2.032 -0.3156 -0.1301  0.2627
   78MOL    C5538709   3.903   4.698   2.047 -0.1244  0.2064 -0.0505
   78MOL    O5638710   3.809   4.748   2.113 -0.1561  1.0038  0.3434
   78MOL    O5738711   3.914   4.706   1.909  0.3935 -0.0427 -1.1888
   78MOL    C5838712   3.800   4.762   1.840  0.2565 -0.0858  0.7050
   78MOL    C5938713   3.797   4.914   1.822 -0.3635 -0.6157  0.3579
   78MOL    C6038714   3.825   4.971   1.697  0.1373  0.3442  0.6092
   78MOL    C6138715   3.791   5.106   1.674  0.1435 -0.2177 -0.2715
   78MOL    C6238716   3.763   5.190   1.784 -0.4046  0.0342  0.6224
   78MOL    C6338717   3.756   5.138   1.912  0.2148 -0.4951  0.0107
   78MOL    C6438718   3.768   4.997   1.928 -0.0521  0.5310  0.0123
   78MOL    H6538719   4.197   4.597   2.199  0.5075 -0.3421 -0.7248
   78MOL    H6638720   4.201   4.692   2.069 -0.4313 -0.4696  0.0216
   78MOL    H6738721   4.127   4.418   2.087  0.5351  0.1494 -0.4034
   78MOL    H6838722   4.125   4.520   1.951  0.2421 -0.4223  0.5747
   78MOL    H6938723   3.991   4.411   1.992  0.9484 -0.2705 -1.7427
   78MOL    H7038724   3.809   4.725   1.738 -1.9558  0.7366  0.1878
   78MOL    H7138725   3.711   4.719   1.885 -0.5242  2.0964  1.2980
   78MOL    H7238726   3.857   4.910   1.613  1.6891  5.3144 -2.5961
   78MOL    H7338727   3.814   5.148   1.577 -0.6246 -0.4406 -0.5502
   78MOL    H7438728   3.742   5.294   1.769  2.8242  0.9565  1.8981
   78MOL    H7538729   3.740   5.195   2.002  1.7305  0.9487 -0.6076
   78MOL    H7638730   3.771   4.954   2.027 -0.6360 -0.2201 -0.2866
   78MOL    C7738731   3.927   4.538   2.248 -0.0634  0.1544 -0.0001
   78MOL    C7838732   3.808   4.436   2.250  0.2120  0.6464  0.8540
   78MOL    C7938733   3.765   4.413   2.401 -0.0017  0.0128  0.2564
   78MOL    C8038734   3.869   4.293   2.215  0.0421  0.2188 -0.1462
   78MOL    O8138735   3.947   4.245   2.296  0.0054 -0.1956 -0.2364
   78MOL    O8238736   3.827   4.234   2.102 -0.4601  0.4981  0.3837
   78MOL    C8338737   3.831   4.089   2.099 -0.1204 -0.3997 -0.2829
   78MOL    C8438738   3.737   4.027   2.006  0.2849  0.1717  0.4625
   78MOL    C8538739   3.632   3.936   2.047  0.8535  0.3849 -0.1291
   78MOL    C8638740   3.557   3.867   1.948 -0.5995  0.2181 -0.7904
   78MOL    C8738741   3.589   3.872   1.810  0.0673  0.0552  0.2334
   78MOL    C8838742   3.693   3.957   1.771 -0.6859 -0.2116  0.3384
   78MOL    C8938743   3.765   4.037   1.867 -0.4143  0.3455  0.1992
   78MOL    H9038744   3.877   4.623   2.296 -1.8780 -0.7018 -0.3674
   78MOL    H9138745   4.000   4.506   2.322  1.3134  0.6380 -1.1233
   78MOL    H9238746   3.843   4.408   2.476  0.7861 -0.7508 -0.5994
   78MOL    H9338747   3.731   4.309   2.407 -1.8604  0.5139 -1.0703
   78MOL    H9438748   3.685   4.480   2.434 -0.0567  0.0331  0.0843
   78MOL    H9538749   3.936   4.063   2.086 -0.0346  0.0520 -0.5090
   78MOL    H9638750   3.811   4.057   2.202 -2.6282 -0.5841 -0.7816
   78MOL    H9738751   3.606   3.927   2.151 -2.5075  2.7831 -0.6925
   78MOL    H9838752   3.488   3.791   1.983  2.2747 -1.8191  0.6192
   78MOL    H9938753   3.528   3.810   1.746  1.6633  0.3456 -1.6279
   78MOL   H10038754   3.728   3.958   1.669 -0.7814 -0.5380  0.3012
   78MOL   H10138755   3.850   4.094   1.833 -0.0188 -1.4223 -1.8457
   78MOL   C10238756   3.685   4.478   2.162 -0.3332 -0.5654  0.7600
   78MOL   C10338757   3.539   4.433   2.170 -0.0081  0.4314 -0.1722
   78MOL   C10438758   3.516   4.293   2.238  0.0683  0.0606 -1.0848
   78MOL   C10538759   3.489   4.412   2.027 -0.0779  0.0831  0.2729
   78MOL   O10638760   3.372   4.438   2.004  0.4379  0.1391 -0.4127
   78MOL   O10738761   3.581   4.368   1.942 -0.2693  0.2747  0.0158
   78MOL   C10838762   3.557   4.337   1.809  0.0386  0.1319  1.2185
   78MOL   C10938763   3.594   4.448   1.712  0.6481 -0.1854  0.2329
   78MOL   C11038764   3.694   4.424   1.614 -0.1348  0.2596 -0.7935
   78MOL   C11138765   3.716   4.518   1.512  0.0887  0.1883 -0.3008
   78MOL   C11238766   3.641   4.636   1.509  0.0469 -0.5967 -0.2228
   78MOL   C11338767   3.546   4.659   1.608  0.5965 -0.2169  1.0294
   78MOL   C11438768   3.520   4.564   1.712 -0.1993 -0.5115  0.0395
   78MOL   H11538769   3.729   4.482   2.062 -0.7092  1.8628  0.6547
   78MOL   H11638770   3.671   4.585   2.180  2.6509  0.3286 -1.8145
   78MOL   H11738771   3.579   4.208   2.212 -0.0574 -0.1185 -0.8158
   78MOL   H11838772   3.417   4.257   2.208 -0.3265 -0.7708  1.1365
   78MOL   H11938773   3.518   4.287   2.347 -2.4676  0.6037 -0.9703
   78MOL   H12038774   3.614   4.250   1.775 -1.3876 -0.0814 -0.6799
   78MOL   H12138775   3.455   4.299   1.801  0.0286  0.4785 -0.4408
   78MOL   H12238776   3.756   4.337   1.626 -0.8600  0.0434  1.6484
   78MOL   H12338777   3.800   4.503   1.446  1.5360 -0.9215  1.7303
   78MOL   H12438778   3.655   4.718   1.440  2.6086 -0.8156 -0.0138
   78MOL   H12538779   3.483   4.747   1.613 -1.1632 -1.2851 -1.2530
   78MOL   H12638780   3.438   4.589   1.777 -0.2168  1.5251 -0.7110
   78MOL   C12738781   3.446   4.530   2.247  0.1516 -0.8296  0.4425
   78MOL   C12838782   3.433   4.688   2.236  0.4793  0.0536 -0.3225
   78MOL   C12938783   3.454   4.735   2.088 -0.6691  0.3765 -0.5442
   78MOL   C13038784   3.535   4.766   2.325  0.6642 -0.4357 -0.3931
   78MOL   O13138785   3.615   4.709   2.399 -0.2364 -0.2498 -0.0853
   78MOL   O13238786   3.543   4.898   2.301  0.2369 -0.2761  0.3554
   78MOL   C13338787   3.662   4.974   2.330 -0.0409  0.1579 -0.5519
   78MOL   C13438788   3.641   5.124   2.328 -0.5667  0.3205 -0.5777
   78MOL   C13538789   3.548   5.178   2.242  0.3565  0.8672 -0.3310
   78MOL   C13638790   3.548   5.320   2.217 -0.4751  0.8906 -0.0466
   78MOL   C13738791   3.619   5.404   2.303  0.2381  0.1148  0.1179
   78MOL   C13838792   3.716   5.352   2.390 -0.3879 -0.2129  0.7446
   78MOL   C13938793   3.729   5.213   2.402  0.1761  0.1874 -0.2738
   78MOL   H14038794   3.449   4.513   2.355 -0.5776 -0.1065  0.5826
   78MOL   H14138795   3.347   4.491   2.224  0.5012 -0.5683 -1.5723
   78MOL   H14238796   3.403   4.675   2.013  0.0618 -1.3262  0.2957
   78MOL   H14338797   3.557   4.726   2.054 -1.5212 -0.1682 -3.1453
   78MOL   H14438798   3.437   4.842   2.074  0.4274  0.3907 -1.7770
   78MOL   H14538799   3.698   4.950   2.430 -1.9598  0.4783  0.2392
   78MOL   H14638800   3.737   4.944   2.256 -2.1093  1.5656 -3.3337
   78MOL   H14738801   3.481   5.103   2.202 -0.6929  1.1828  0.7830
   78MOL   H14838802   3.471   5.358   2.153 -0.0796  1.0449 -0.4334
   78MOL   H14938803   3.610   5.512   2.297  2.4825  0.2675 -1.2670
   78MOL   H15038804   3.788   5.416   2.441 -0.1293  0.6554 -0.6826
   78MOL   H15138805   3.809   5.182   2.467 -0.0923 -0.2828 -0.1667
   78MOL   C15238806   3.285   4.746   2.258 -0.5848  0.5837 -0.0028
   78MOL   C15338807   3.200   4.718   2.385  0.0947 -0.0520  0.4656
   78MOL   C15438808   3.270   4.767   2.515  0.1468  0.3811  0.6777
   78MOL   C15538809   3.180   4.561   2.400  0.4701 -0.6439 -0.4918
   78MOL   O15638810   3.237   4.489   2.481  0.3190  0.0906  0.5030
   78MOL   O15738811   3.090   4.514   2.311  0.2857  0.0918 -0.3649
   78MOL   C15838812   3.050   4.380   2.298 -0.0670  0.3586 -0.1749
   78MOL   C15938813   2.960   4.361   2.177  0.0692  0.2554 -0.0045
   78MOL   C16038814   2.985   4.428   2.056 -0.5228 -0.0753  0.6304
   78MOL   C16138815   2.912   4.404   1.943 -0.1458  0.4227  0.2992
   78MOL   C16238816   2.807   4.308   1.943 -0.1283  0.3904  0.5544
   78MOL   C16338817   2.781   4.238   2.063 -0.5491 -0.1109 -0.3990
   78MOL   C16438818   2.848   4.271   2.180 -0.8295 -0.0358  0.1256
   78MOL   H16538819   3.232   4.695   2.178 -0.6565  0.9065 -0.1620
   78MOL   H16638820   3.293   4.853   2.239 -1.6589 -0.0442 -4.7376
   78MOL   H16738821   3.200   4.757   2.598 -1.5323 -0.8653 -0.8331
   78MOL   H16838822   3.301   4.871   2.519 -0.0713  0.5516 -1.3783
   78MOL   H16938823   3.365   4.718   2.538 -0.5187 -0.4659  1.6648
   78MOL   H17038824   3.131   4.307   2.291 -2.6649 -2.8209  1.2510
   78MOL   H17138825   2.997   4.359   2.391  0.3830  1.5792  0.3702
   78MOL   H17238826   3.072   4.492   2.054 -0.5325 -0.0816 -0.8237
   78MOL   H17338827   2.928   4.463   1.854  0.9546  1.9947  1.5029
   78MOL   H17438828   2.744   4.296   1.856 -0.8908  0.7115  1.0471
   78MOL   H17538829   2.709   4.158   2.071  0.4882 -1.0870 -0.8290
   78MOL   H17638830   2.832   4.217   2.272 -0.2331  0.9228  0.7933
   78MOL   C17738831   3.060   4.785   2.375  0.2893 -0.2116 -0.5883
   78MOL   C17838832   3.030   4.940   2.387 -0.1049 -0.4673 -1.0022
   78MOL   C17938833   3.123   5.033   2.307 -0.3617 -0.6095 -0.0412
   78MOL   C18038834   3.044   4.971   2.538 -0.1163  0.5117 -0.1323
   78MOL   O18138835   2.991   4.895   2.622 -0.0529  0.0600  0.1242
   78MOL   O18238836   3.122   5.076   2.570  0.1243  0.0810 -0.1290
   78MOL   C18338837   3.122   5.126   2.702  0.7828  0.0383  0.2317
   78MOL   C18438838   3.244   5.209   2.737 -0.3842  0.2441 -0.4430
   78MOL   C18538839   3.327   5.261   2.636 -0.0562  0.4788  0.6375
   78MOL   C18638840   3.443   5.336   2.677  0.2040 -0.4339 -0.1030
   78MOL   C18738841   3.458   5.372   2.816 -0.7909 -0.2899 -0.0179
   78MOL   C18838842   3.353   5.336   2.907  0.1562  0.3846  0.1534
   78MOL   C18938843   3.256   5.246   2.870 -0.0623 -1.3062 -0.0609
   78MOL   H19038844   2.994   4.723   2.434  1.0030 -0.4159  0.0046
   78MOL   H19138845   3.045   4.752   2.272 -0.6395 -1.3932 -0.0801
   78MOL   H19238846   3.094   5.137   2.314  0.4070 -0.3699 -0.4195
   78MOL   H19338847   3.131   4.998   2.204  1.6404 -1.2433  0.3085
   78MOL   H19438848   3.224   5.027   2.347 -1.6189 -0.4575  3.3609
   78MOL   H19538849   3.029   5.176   2.729  0.1617 -0.6630 -0.5672
   78MOL   H19638850   3.125   5.035   2.761  0.9569  0.9041  1.5779
   78MOL   H19738851   3.309   5.233   2.533  1.3586 -0.4132  0.6242
   78MOL   H19838852   3.515   5.385   2.614 -1.3340  0.7005 -1.0146
   78MOL   H19938853   3.534   5.433   2.862 -1.1427  0.8435 -0.8975
   78MOL   H20038854   3.371   5.369   3.008  2.2563  0.2625 -0.1514
   78MOL   H20138855   3.191   5.201   2.943  0.4379 -0.7032  0.7704
   78MOL   C20238856   2.879   4.969   2.364  0.3865 -0.5626  0.2571
   78MOL   C20338857   2.805   4.969   2.220 -0.1725  0.2397 -0.0454
   78MOL   C20438858   2.655   4.986   2.259 -0.3817  0.2626  0.8636
   78MOL   C20538859   2.821   4.839   2.145 -0.3766 -0.3848 -0.2823
   78MOL   O20638860   2.912   4.824   2.067 -0.4486 -0.0210 -0.2283
   78MOL   O20738861   2.742   4.742   2.191  0.0963 -0.0547 -0.6318
   78MOL   C20838862   2.714   4.640   2.099  0.5327  0.1499  0.2952
   78MOL   C20938863   2.592   4.678   2.022 -0.1203  0.0017 -0.3233
   78MOL   C21038864   2.598   4.743   1.898 -0.1134  0.0613  0.2427
   78MOL   C21138865   2.476   4.776   1.834 -0.2184  0.3473 -0.4337
   78MOL   C21238866   2.352   4.745   1.893  0.0296 -0.7984 -0.2714
   78MOL   C21338867   2.345   4.673   2.012 -0.2549  0.4213 -0.1068
   78MOL   C21438868   2.466   4.650   2.079  0.6057  0.1228  0.0851
   78MOL   H21538869   2.859   5.066   2.409  0.3701  0.3326 -1.6302
   78MOL   H21638870   2.817   4.900   2.421 -0.3420  0.0738  0.2302
   78MOL   H21738871   2.578   4.989   2.182 -0.6027 -0.3512  1.0538
   78MOL   H21838872   2.638   5.076   2.318 -0.1749  0.8747 -0.0102
   78MOL   H21938873   2.624   4.908   2.329 -2.7907 -0.1386 -0.5721
   78MOL   H22038874   2.792   4.614   2.028 -1.5229 -0.1416 -1.9121
   78MOL   H22138875   2.690   4.559   2.168 -0.6506  0.9932  0.8876
   78MOL   H22238876   2.692   4.758   1.846  0.1761 -0.1876  0.6856
   78MOL   H22338877   2.482   4.820   1.735  0.0546  2.0084  0.3014
   78MOL   H22438878   2.269   4.759   1.825  1.8192  2.7669 -1.8878
   78MOL   H22538879   2.249   4.644   2.053  0.2634 -1.2860 -0.0756
   78MOL   H22638880   2.458   4.605   2.178  0.8505  0.9335  0.4767
   78MOL   C22738881   2.856   5.087   2.131  0.0343  0.5457 -0.1223
   78MOL   C22838882   2.768   5.158   2.018  0.0115  0.2616 -0.0196
   78MOL   C22938883   2.695   5.051   1.936 -0.0023  0.3165  0.3623
   78MOL   C23038884   2.869   5.234   1.934 -0.3488 -0.0841 -0.3373
   78MOL   O23138885   2.864   5.232   1.810  0.1156  0.3096  0.1533
   78MOL   O23238886   2.965   5.307   2.008 -0.3704 -0.0333 -0.4306
   78MOL   C23338887   3.065   5.381   1.942 -0.1272  0.1597  0.2015
   78MOL   C23438888   3.163   5.455   2.038 -0.2594  0.6307  0.1567
   78MOL   C23538889   3.188   5.416   2.175  0.1013 -0.3294  0.6777
   78MOL   C23638890   3.278   5.490   2.254  0.1266 -0.7915 -0.4227
   78MOL   C23738891   3.346   5.604   2.204 -0.1861 -0.1033 -0.3915
   78MOL   C23838892   3.328   5.639   2.074 -0.5492  0.5171  0.1313
   78MOL   C23938893   3.236   5.565   1.988 -0.3319 -0.6463  0.1785
   78MOL   H24038894   2.953   5.054   2.094  0.3600  0.9562  0.3656
   78MOL   H24138895   2.883   5.161   2.206  2.5249 -0.0459 -0.3992
   78MOL   H24238896   2.766   4.976   1.902  1.5985  2.3638 -0.9240
   78MOL   H24338897   2.651   5.090   1.844  0.6910  1.2245  0.4105
   78MOL   H24438898   2.605   5.014   1.986 -0.4761  1.0869  0.0890
   78MOL   H24538899   3.118   5.316   1.872 -1.3830 -0.2563 -0.3856
   78MOL   H24638900   3.020   5.463   1.886  0.8934  0.9883  0.5956
   78MOL   H24738901   3.132   5.332   2.214  1.5975 -0.8587  1.7014
   78MOL   H24838902   3.295   5.468   2.358  0.2906 -0.3604 -0.3594
   78MOL   H24938903   3.401   5.665   2.274  1.1355 -0.7154 -0.8801
   78MOL   H25038904   3.384   5.725   2.041 -1.7365  0.8803 -0.9992
   78MOL   H25138905   3.227   5.590   1.883  4.1677 -1.0563 -0.3805
   78MOL   C25238906   2.653   5.255   2.091 -0.0630 -0.0035 -0.4639
   78MOL   C25338907   2.614   5.395   2.040  0.1907  0.0744 -0.3490
   78MOL   C25438908   2.572   5.384   1.892  0.5201  0.0923 -0.3178
   78MOL   C25538909   2.724   5.502   2.060  0.0944 -0.1451  0.2640
   78MOL   O25638910   2.767   5.578   1.969 -0.0696  0.3882  0.2047
   78MOL   O25738911   2.781   5.497   2.183 -0.0884 -0.3565 -0.0443
   78MOL   C25838912   2.877   5.593   2.222 -0.4180  0.1974  0.1441
   78MOL   C25938913   2.928   5.580   2.361 -0.4177 -0.3248 -0.4371
   78MOL   C26038914   3.049   5.647   2.411 -0.1549  0.6624  0.2684
   78MOL   C26138915   3.095   5.628   2.544 -0.1867 -0.1939  0.4902
   78MOL   C26238916   3.029   5.536   2.632 -0.3146  0.0131 -0.2306
   78MOL   C26338917   2.912   5.473   2.588  0.1435 -0.6285  0.2829
   78MOL   C26438918   2.865   5.495   2.455  0.0272 -0.5270  0.2200
   78MOL   H26538919   2.690   5.272   2.192 -1.4674  1.4486 -0.1746
   78MOL   H26638920   2.564   5.194   2.102  1.0250 -1.4491  0.5557
   78MOL   H26738921   2.648   5.361   1.818  0.9397 -0.6489  0.3426
   78MOL   H26838922   2.524   5.476   1.856 -0.6275 -0.4368 -0.1486
   78MOL   H26938923   2.491   5.311   1.890  0.4849  0.1432 -1.3687
   78MOL   H27038924   2.966   5.586   2.160 -0.7122 -1.0768 -0.1456
   78MOL   H27138925   2.849   5.697   2.200 -2.5537 -0.0908  1.3422
   78MOL   H27238926   3.108   5.708   2.344  1.6836  1.6846  2.7631
   78MOL   H27338927   3.184   5.679   2.579 -1.2479  0.2980  2.6091
   78MOL   H27438928   3.054   5.527   2.737  3.2186  0.0059 -1.0146
   78MOL   H27538929   2.857   5.415   2.660  0.5639 -2.6540 -0.9896
   78MOL   H27638930   2.778   5.436   2.429 -1.3874  0.7820  1.8489
   78MOL   C27738931   2.470   5.430   2.123 -0.5395 -0.2695  0.3088
   78MOL   C27838932   2.396   5.561   2.140 -1.0496 -0.3122 -0.7436
   78MOL   C27938933   2.395   5.631   1.997  0.1270  0.1963 -0.4061
   78MOL   C28038934   2.468   5.656   2.245  0.1577  0.3689  0.4028
   78MOL   O28138935   2.535   5.611   2.333 -0.0216  0.4233  0.5434
   78MOL   O28238936   2.436   5.789   2.217 -0.0664 -0.3291  0.6126
   78MOL   C28338937   2.483   5.897   2.287  0.0100  0.6147  0.3172
   78MOL   C28438938   2.622   5.945   2.241  0.7841 -0.2894 -0.0176
   78MOL   C28538939   2.681   5.925   2.117 -0.4674  0.3595 -0.5061
   78MOL   C28638940   2.809   5.968   2.085  0.5889  0.0743 -0.2334
   78MOL   C28738941   2.886   6.034   2.185  0.3760 -0.0541 -0.1637
   78MOL   C28838942   2.838   6.053   2.317  0.4045 -0.5014 -0.0948
   78MOL   C28938943   2.703   6.009   2.337  0.3959 -0.3387 -0.6608
   78MOL   H29038944   2.492   5.400   2.225 -1.1464  0.9647  0.8042
   78MOL   H29138945   2.399   5.353   2.093  0.8544 -1.2719 -0.5043
   78MOL   H29238946   2.497   5.653   1.965  1.1926 -2.3861  0.9963
   78MOL   H29338947   2.341   5.725   1.995 -1.5025 -0.7408 -2.2880
   78MOL   H29438948   2.351   5.567   1.921 -0.8974 -1.9810  1.9471
   78MOL   H29538949   2.419   5.982   2.266 -0.7537  0.4335  1.8272
   78MOL   H29638950   2.479   5.869   2.392 -2.3942 -1.3273 -0.2479
   78MOL   H29738951   2.624   5.874   2.040  1.0966 -0.0420 -1.4219
   78MOL   H29838952   2.843   5.954   1.983 -0.9875  0.0370 -0.7771
   78MOL   H29938953   2.985   6.069   2.162  0.5109 -1.0287 -1.1242
   78MOL   H30038954   2.903   6.088   2.396 -1.8397 -0.4386  1.7699
   78MOL   H30138955   2.675   6.014   2.441 -0.7263 -1.0557 -0.9297
   78MOL   C30238956   2.248   5.529   2.179 -0.3056 -0.5800 -0.2325
   78MOL   C30338957   2.195   5.493   2.328 -0.4404 -0.1198  0.3385
   78MOL   C30438958   2.041   5.443   2.307  0.1787 -0.7512  0.0913
   78MOL   C30538959   2.190   5.616   2.416  0.6928 -0.4089 -0.4945
   78MOL   O30638960   2.269   5.635   2.503 -0.2023  0.1551  0.1270
   78MOL   O30738961   2.082   5.696   2.395 -0.3147  0.0184  0.0236
   78MOL   C30838962   2.047   5.792   2.495 -0.8386  0.3331  0.6114
   78MOL   C30938963   2.117   5.922   2.480  0.2504 -0.0603  0.0877
   78MOL   C31038964   2.080   6.004   2.368 -1.1823 -0.3768 -0.2758
   78MOL   C31138965   2.162   6.112   2.335  0.6079 -0.0045  0.7791
   78MOL   C31238966   2.272   6.148   2.420 -0.0688  0.6089 -0.5283
   78MOL   C31338967   2.303   6.068   2.533 -0.4361 -0.2573  0.1847
   78MOL   C31438968   2.226   5.952   2.561  0.1162 -0.3349  0.2866
   78MOL   H31538969   2.200   5.464   2.106 -0.9932 -0.0280 -0.2817
   78MOL   H31638970   2.194   5.621   2.154  0.3620 -0.6999 -2.1205
   78MOL   H31738971   2.032   5.344   2.262  0.6112 -0.9592  0.4553
   78MOL   H31838972   1.987   5.511   2.241 -2.2696 -1.9571  0.8252
   78MOL   H31938973   1.981   5.444   2.398  2.0807  1.0758  1.3881
   78MOL   H32038974   1.941   5.817   2.483 -0.1871  3.0762  0.2448
   78MOL   H32138975   2.063   5.751   2.595  0.8221 -1.4952 -0.3622
   78MOL   H32238976   2.002   5.982   2.297 -1.9031  0.7130  0.1627
   78MOL   H32338977   2.139   6.170   2.247  0.3843 -2.2283 -0.6810
   78MOL   H32438978   2.334   6.236   2.408 -0.1311  0.7790  0.3634
   78MOL   H32538979   2.392   6.096   2.587  0.8478  0.4854 -2.2025
   78MOL   H32638980   2.248   5.886   2.643  1.5657 -0.9494 -0.5824
   78MOL   C32738981   2.285   5.376   2.394 -0.5757 -0.5757 -0.3382
   78MOL   C32838982   2.252   5.274   2.509  0.1857  0.1490 -0.1927
   78MOL   C32938983   2.243   5.366   2.634 -0.2152  0.6707  0.5307
   78MOL   C33038984   2.373   5.181   2.532  0.3044 -0.1541 -0.5600
   78MOL   O33138985   2.464   5.184   2.449  0.1475 -0.6379 -0.3404
   78MOL   O33238986   2.366   5.109   2.651 -0.2085 -0.1509  0.1123
   78MOL   C33338987   2.460   5.015   2.685  0.0865 -0.4829  0.6252
   78MOL   C33438988   2.557   5.045   2.794 -0.4369  0.0445 -0.3532
   78MOL   C33538989   2.514   5.100   2.917  0.3496 -0.3191  0.6926
   78MOL   C33638990   2.608   5.125   3.022 -0.2381 -0.3308 -0.1709
   78MOL   C33738991   2.742   5.092   3.004 -0.2457  0.1583  0.2167
   78MOL   C33838992   2.787   5.039   2.879  0.5100  0.2769  0.3839
   78MOL   C33938993   2.695   5.018   2.768 -0.1666 -0.2191  0.6039
   78MOL   H34038994   2.377   5.431   2.413  0.0261 -1.5754 -0.3337
   78MOL   H34138995   2.306   5.323   2.302 -2.4765  0.2786 -1.3022
   78MOL   H34238996   2.163   5.440   2.646 -0.2554  1.1513 -2.4335
   78MOL   H34338997   2.334   5.426   2.644  0.7997 -0.5392 -1.3298
   78MOL   H34438998   2.232   5.305   2.724  0.3952  0.8721  0.7418
   78MOL   H34538999   2.411   4.923   2.716  0.7769 -1.4629 -1.1214
   78MOL   H34639000   2.529   4.990   2.604 -0.5039  0.2174 -0.1003
   78MOL   H34739001   2.415   5.139   2.938 -0.1401 -1.6428  0.8551
   78MOL   H34839002   2.567   5.158   3.117  2.1537  1.7655  0.1966
   78MOL   H34939003   2.810   5.108   3.087 -0.2942  1.1370  0.0786
   78MOL   H35039004   2.894   5.023   2.873  0.6675 -0.0159  3.1828
   78MOL   H35139005   2.745   4.986   2.678 -0.3883 -0.2383  0.4896
   78MOL   C35239006   2.118   5.190   2.501 -0.2082  0.0176  1.0344
   78MOL   C35339007   2.102   5.058   2.410  0.5865 -0.1745 -0.9385
   78MOL   C35439008   2.191   5.070   2.287  0.2831  0.4489  0.3524
   78MOL   C35539009   1.952   5.058   2.371 -0.1369  0.4644 -0.3530
   78MOL   O35639010   1.907   5.047   2.260  0.0088  0.2014 -0.1238
   78MOL   O35739011   1.872   5.059   2.482  0.0431  0.6266 -0.3398
   78MOL   C35839012   1.730   5.056   2.454  0.6351 -0.3238 -0.1954
   78MOL   C35939013   1.635   4.961   2.546 -0.0051 -0.2518 -0.1042
   78MOL   C36039014   1.698   4.857   2.618  0.0223  0.4170  0.7415
   78MOL   C36139015   1.619   4.773   2.694 -0.0428  0.2599  0.1834
   78MOL   C36239016   1.479   4.788   2.697  0.6389 -0.3808 -0.5461
   78MOL   C36339017   1.417   4.902   2.638  0.5350  0.4728 -0.3149
   78MOL   C36439018   1.495   4.986   2.557  0.1520 -0.1762  0.2299
   78MOL   H36539019   2.041   5.258   2.464  0.0898  0.0037  0.3802
   78MOL   H36639020   2.089   5.165   2.603  0.1934 -0.6914  0.9781
   78MOL   H36739021   2.171   5.164   2.235 -0.7966 -1.0847 -2.0976
   78MOL   H36839022   2.175   4.985   2.221 -0.7188 -1.1309  2.5888
   78MOL   H36939023   2.295   5.064   2.317 -0.5982 -0.9856  3.3356
   78MOL   H37039024   1.681   5.153   2.453  0.7156 -0.2618  1.1776
   78MOL   H37139025   1.713   5.018   2.353 -1.3313 -1.1840  0.4424
   78MOL   H37239026   1.805   4.840   2.616  0.0275  0.4857  0.1430
   78MOL   H37339027   1.655   4.700   2.765  1.0134 -0.9627 -1.5911
   78MOL   H37439028   1.411   4.719   2.744 -1.5577  2.4085  0.5290
   78MOL   H37539029   1.311   4.921   2.649  0.6591  1.1535 -0.2444
   78MOL   H37639030   1.459   5.073   2.504  0.8998 -0.5820 -0.9655
   78MOL   C37739031   2.130   4.928   2.503  0.4676  0.5843 -0.1121
   78MOL   C37839032   2.150   4.777   2.446 -0.3132  0.8811  0.5359
   78MOL   C37939033   2.278   4.786   2.367 -0.7903 -0.7279  0.1686
   78MOL   C38039034   2.030   4.727   2.354 -0.0572  1.1011 -0.2623
   78MOL   O38139035   1.914   4.731   2.397 -0.1518  0.6967  0.1960
   78MOL   O38239036   2.067   4.657   2.244 -0.2577 -0.0844  0.3050
   78MOL   C38339037   1.968   4.606   2.161  0.5796  0.7434  0.3079
   78MOL   C38439038   1.972   4.668   2.025  0.2100  0.4727  0.0249
   78MOL   C38539039   1.976   4.591   1.909  0.0107  0.0166 -0.1074
   78MOL   C38639040   1.983   4.655   1.783  0.4748 -0.0266 -0.1152
   78MOL   C38739041   1.981   4.799   1.775 -0.5568 -0.2800 -0.2780
   78MOL   C38839042   1.979   4.875   1.893 -0.4447  0.4085  0.4886
   78MOL   C38939043   1.961   4.808   2.013 -0.4419  0.6969 -0.4475
   78MOL   H39039044   2.059   4.937   2.586 -1.8722 -1.3399 -1.8468
   78MOL   H39139045   2.228   4.940   2.549  0.3918  1.4984 -0.1854
   78MOL   H39239046   2.264   4.821   2.265 -2.3320 -1.3403  0.1506
   78MOL   H39339047   2.329   4.690   2.355  0.4753 -0.0839  0.3718
   78MOL   H39439048   2.350   4.845   2.423  0.1032  0.5874 -2.3067
   78MOL   H39539049   1.989   4.499   2.168 -0.1980  0.4777 -1.2372
   78MOL   H39639050   1.866   4.612   2.199 -0.0104 -2.1029 -0.7128
   78MOL   H39739051   1.957   4.485   1.912  0.0395  0.0630  2.4987
   78MOL   H39839052   1.983   4.595   1.694 -0.6832 -0.2200  0.0190
   78MOL   H39939053   1.974   4.847   1.679 -1.3931  1.1479  0.4970
   78MOL   H40039054   1.984   4.981   1.873 -0.3136 -0.1012 -2.4616
   78MOL   H40139055   1.953   4.873   2.099 -1.0757 -0.2840  0.2420
   78MOL   C40239056   2.165   4.681   2.576 -0.3189  0.2763 -0.1348
   78MOL   C40339057   2.169   4.528   2.579  0.3379  0.1734 -0.2638
   78MOL   C40439058   2.203   4.504   2.732 -0.1309  0.8640  0.1575
   78MOL   C40539059   2.283   4.475   2.483  0.5320 -0.0539 -0.6325
   78MOL   O40639060   2.262   4.428   2.372 -0.7220  0.1243 -0.5301
   78MOL   O40739061   2.410   4.486   2.542 -0.1116 -0.3771 -0.6831
   78MOL   C40839062   2.527   4.461   2.467  0.5828 -0.0445  0.0616
   78MOL   C40939063   2.653   4.499   2.543  0.9662 -0.1916  0.2664
   78MOL   C41039064   2.768   4.414   2.553  0.1546  0.0755  0.3153
   78MOL   C41139065   2.883   4.453   2.620 -0.0610 -0.4340 -0.0393
   78MOL   C41239066   2.892   4.582   2.680  0.1718  0.0752  1.0120
   78MOL   C41339067   2.778   4.672   2.664  0.0818  0.0510  0.1720
   78MOL   C41439068   2.662   4.631   2.603 -0.2415 -0.0075 -0.5944
   78MOL   H41539069   2.084   4.709   2.644 -0.4313 -0.3102 -0.0301
   78MOL   H41639070   2.250   4.724   2.630  0.6268  1.7345 -2.6679
   78MOL   H41739071   2.119   4.544   2.789 -0.7012 -0.0739 -0.0143
   78MOL   H41839072   2.289   4.563   2.765  0.7572 -1.4825  2.2652
   78MOL   H41939073   2.221   4.399   2.754  0.0977  0.8083 -0.2900
   78MOL   H42039074   2.542   4.359   2.432  1.3230  0.5543 -1.4040
   78MOL   H42139075   2.536   4.524   2.379  0.5199  1.0870  0.8528
   78MOL   H42239076   2.767   4.313   2.516 -2.3467 -0.3579  1.4819
   78MOL   H42339077   2.961   4.379   2.630  1.7502  1.3543 -0.5683
   78MOL   H42439078   2.981   4.629   2.719 -0.8093  1.3018  1.8075
   78MOL   H42539079   2.771   4.769   2.712  0.9294 -0.9426  2.3906
   78MOL   H42639080   2.583   4.704   2.592 -1.7016 -1.8850 -3.0585
   78MOL   C42739081   2.033   4.469   2.538 -0.3804  0.4935 -0.0757
   78MOL   C42839082   1.976   4.331   2.572  0.1050  0.3010 -1.0842
   78MOL   C42939083   2.088   4.223   2.539 -0.9070 -0.7427  1.1123
   78MOL   C43039084   1.860   4.317   2.472 -0.4380  0.1625 -0.4247
   78MOL   O43139085   1.868   4.231   2.380 -0.0937  0.0992  0.4926
   78MOL   O43239086   1.753   4.395   2.490 -0.1988 -0.1643 -0.7555
   78MOL   C43339087   1.626   4.371   2.438 -0.1239  0.2935 -0.3727
   78MOL   C43439088   1.525   4.344   2.546  0.1769  0.0434 -0.0725
   78MOL   C43539089   1.549   4.405   2.673 -0.0551 -0.8549 -0.4157
   78MOL   C43639090   1.471   4.348   2.779  0.1574 -0.5505  0.5246
   78MOL   C43739091   1.373   4.252   2.762  0.7299 -0.0060 -0.3831
   78MOL   C43839092   1.343   4.208   2.632  0.5913 -0.0111 -0.1975
   78MOL   C43939093   1.427   4.242   2.524  0.0673  0.1460 -0.2307
   78MOL   H44039094   2.022   4.493   2.432  0.5834 -1.1613 -0.5585
   78MOL   H44139095   1.961   4.543   2.574  0.4204  2.2382 -1.9428
   78MOL   H44239096   2.100   4.221   2.430  1.3071  5.5108  1.0281
   78MOL   H44339097   2.034   4.130   2.557 -0.4938 -1.3345 -0.5586
   78MOL   H44439098   2.183   4.233   2.590 -0.0831  0.2478 -0.5671
   78MOL   H44539099   1.590   4.463   2.391 -4.2257 -0.2546  1.5823
   78MOL   H44639100   1.628   4.287   2.369  3.1625 -0.5467  0.6231
   78MOL   H44739101   1.625   4.480   2.684 -0.3494 -0.7014  0.6276
   78MOL   H44839102   1.490   4.384   2.879  0.4701 -1.4300  0.7855
   78MOL   H44939103   1.315   4.220   2.848  2.4572  0.9600  1.1849
   78MOL   H45039104   1.274   4.125   2.620  0.0043  0.3934  0.4026
   78MOL   H45139105   1.409   4.197   2.428  2.3650  0.9033 -1.0541
   78MOL   C45239106   1.922   4.333   2.723  0.1011 -0.4706 -0.4522
   78MOL   C45339107   1.878   4.199   2.800 -0.1923  0.6474  0.4279
   78MOL   C45439108   1.772   4.124   2.709 -0.3705 -0.2249 -0.2800
   78MOL   C45539109   1.806   4.249   2.933  0.3996 -0.3742 -0.1121
   78MOL   O45639110   1.849   4.343   2.997  0.0232 -0.0169 -0.1241
   78MOL   O45739111   1.701   4.173   2.972  0.3830 -0.0955 -0.1436
   78MOL   C45839112   1.641   4.177   3.103  0.4657 -0.2655  0.2609
   78MOL   C45939113   1.726   4.117   3.215 -0.2157  0.9433 -0.2335
   78MOL   C46039114   1.814   4.196   3.287  0.1457 -0.8731 -0.2772
   78MOL   C46139115   1.908   4.137   3.376  0.3617 -0.7117 -0.2820
   78MOL   C46239116   1.902   3.996   3.405 -0.7337 -0.6953  0.1984
   78MOL   C46339117   1.809   3.922   3.335  0.2083  0.3301  0.2466
   78MOL   C46439118   1.717   3.983   3.242  0.0388 -0.5688 -0.6407
   78MOL   H46539119   1.847   4.410   2.740 -1.0780 -1.9470  1.1123
   78MOL   H46639120   1.994   4.378   2.792  3.5679 -0.3358 -3.9645
   78MOL   H46739121   1.684   4.178   2.675 -0.4438 -1.3412 -1.9191
   78MOL   H46839122   1.726   4.044   2.766 -0.8581  0.8099  0.7921
   78MOL   H46939123   1.817   4.076   2.621  0.1525  0.2464 -0.2744
   78MOL   H47039124   1.610   4.277   3.132  0.6848  0.8953 -3.3456
   78MOL   H47139125   1.546   4.122   3.100 -0.6396  1.5741  0.8841
   78MOL   H47239126   1.804   4.304   3.286  0.0390 -0.8647  0.9465
   78MOL   H47339127   1.991   4.189   3.422 -0.4854 -0.0877  0.5471
   78MOL   H47439128   1.970   3.937   3.463  1.6170  3.0801  1.4995
   78MOL   H47539129   1.806   3.814   3.346 -0.4407  0.3018 -0.1556
   78MOL   H47639130   1.644   3.919   3.195 -2.1403  2.2822 -1.2959
   78MOL   C47739131   2.004   4.113   2.839  0.2602  0.0991  0.1511
   78MOL   C47839132   1.982   3.992   2.925  0.5659  0.6356  0.1597
   78MOL   C47939133   2.111   3.961   3.000  0.3589  0.1414  0.0021
   78MOL   C48039134   1.923   3.859   2.859 -0.6860  0.3878  0.1376
   78MOL   O48139135   1.817   3.822   2.904  0.7512 -0.4153  0.3566
   78MOL   O48239136   1.990   3.811   2.760 -0.0426  0.0852  0.0951
   78MOL   C48339137   1.951   3.696   2.695 -0.1697  0.0249 -0.2992
   78MOL   C48439138   1.828   3.720   2.599  0.3516  0.0138 -0.1589
   78MOL   C48539139   1.824   3.826   2.511 -0.1296 -0.4589 -0.2665
   78MOL   C48639140   1.723   3.847   2.419 -0.7096 -0.2245  0.0492
   78MOL   C48739141   1.617   3.756   2.422 -0.3902 -0.2359 -0.2672
   78MOL   C48839142   1.608   3.651   2.517  0.4295  0.7463 -0.0402
   78MOL   C48939143   1.717   3.630   2.608  0.4285 -0.1105 -0.6028
   78MOL   H49039144   2.057   4.182   2.905 -0.5338  0.1010  0.7846
   78MOL   H49139145   2.067   4.098   2.751 -1.3547  2.4111 -1.4685
   78MOL   H49239146   2.088   3.981   3.105 -3.0116 -0.8075 -0.5053
   78MOL   H49339147   2.202   4.018   2.979  1.5828 -1.4762  0.8073
   78MOL   H49439148   2.148   3.858   3.000  0.5625  0.2039 -1.6505
   78MOL   H49539149   2.041   3.687   2.634 -1.5072 -1.6008 -2.0931
   78MOL   H49639150   1.940   3.605   2.754  1.6456  1.7947  2.9073
   78MOL   H49739151   1.908   3.894   2.510 -0.1940 -0.3209  1.6451
   78MOL   H49839152   1.716   3.928   2.347 -1.9039 -1.4161 -1.1967
   78MOL   H49939153   1.527   3.768   2.363  0.1207  0.1324 -0.9740
   78MOL   H50039154   1.520   3.588   2.520  0.2128  0.8830 -2.4761
   78MOL   H50139155   1.709   3.558   2.688 -1.8305 -0.6943 -1.3096
   78MOL   H50239156   1.908   4.015   3.001 -0.6718  2.1190 -1.4538
   79MOL     C139157   1.359   2.192   4.938 -0.4677  0.1465  0.3199
   79MOL     C239158   1.244   2.216   5.041  1.2911 -0.1484 -0.3841
   79MOL     C339159   1.213   2.370   5.036 -0.0484  0.2761 -0.6949
   79MOL     C439160   1.295   2.181   5.188  0.8055 -0.3467 -0.6052
   79MOL     O539161   1.413   2.154   5.218 -0.0573 -0.5118  0.2825
   79MOL     O639162   1.193   2.189   5.276 -0.2110 -0.1655 -0.0122
   79MOL     C739163   1.214   2.164   5.410  0.4576 -0.5540  0.1312
   79MOL     C839164   1.173   2.276   5.503  0.0878 -0.4479 -0.1988
   79MOL     C939165   1.075   2.369   5.471 -0.2569  0.2230  0.0538
   79MOL    C1039166   1.047   2.466   5.571  0.4132  0.7522  0.1168
   79MOL    C1139167   1.118   2.467   5.694  0.4303 -0.3663  0.0329
   79MOL    C1239168   1.209   2.367   5.717  0.0476  0.5103 -0.0482
   79MOL    C1339169   1.237   2.267   5.625  0.2157 -0.1514 -0.7457
   79MOL    H1439170   1.343   2.211   4.832  2.6853  0.7607 -0.1030
   79MOL    H1539171   1.442   2.258   4.963 -0.6832  0.9230 -1.0064
   79MOL    H1639172   1.195   2.408   4.936  0.6572  0.0882 -0.9009
   79MOL    H1739173   1.293   2.438   5.066  0.0497  1.1651 -2.8666
   79MOL    H1839174   1.122   2.401   5.086 -1.6922 -1.3322 -2.5864
   79MOL    H1939175   1.156   2.074   5.432  0.6651 -0.8940 -0.7069
   79MOL    H2039176   1.318   2.136   5.426  0.1395 -1.0189  1.4802
   79MOL    H2139177   1.018   2.372   5.379 -2.7751  1.6053  1.6093
   79MOL    H2239178   0.979   2.548   5.554  0.4300  0.6128 -0.6479
   79MOL    H2339179   1.104   2.549   5.763 -2.9517  0.0013 -0.9684
   79MOL    H2439180   1.262   2.355   5.811  1.3709 -0.2373 -0.8792
   79MOL    H2539181   1.303   2.188   5.658  0.7168 -1.0424 -3.7237
   79MOL    H2639182   1.396   2.089   4.933  1.2870  0.8141 -0.6543
   79MOL    C2739183   1.100   2.140   5.007  1.0495 -0.0558  0.0888
   79MOL    C2839184   1.095   1.977   4.999 -0.2525  0.2895 -0.2993
   79MOL    C2939185   1.152   1.913   5.126  0.3805  0.6948 -0.3174
   79MOL    C3039186   1.187   1.937   4.886  0.0380 -0.7746 -0.3120
   79MOL    O3139187   1.273   1.849   4.896  0.8900  0.2051 -0.6437
   79MOL    O3239188   1.147   2.004   4.771 -0.5819  0.0039 -0.2373
   79MOL    C3339189   1.225   1.995   4.652  0.2928 -0.1118 -0.6588
   79MOL    C3439190   1.215   2.114   4.559 -0.5836 -0.5390  0.7664
   79MOL    C3539191   1.276   2.104   4.433  0.2594 -0.2157 -0.3394
   79MOL    C3639192   1.276   2.212   4.343 -0.2786  0.1217  0.3506
   79MOL    C3739193   1.210   2.333   4.381  0.4450  0.3853 -0.2194
   79MOL    C3839194   1.147   2.348   4.508 -0.2478  0.0205 -0.3940
   79MOL    C3939195   1.151   2.238   4.598 -0.2761 -0.1393  0.2231
   79MOL    H4039196   1.056   2.182   4.916  2.3522  0.5277 -0.2842
   79MOL    H4139197   1.025   2.183   5.073  1.8359 -1.5614  1.9941
   79MOL    H4239198   1.108   1.961   5.214 -2.3302  0.5985 -1.5669
   79MOL    H4339199   1.260   1.921   5.134  0.2903  1.4759  0.2251
   79MOL    H4439200   1.135   1.805   5.128  2.4839  0.2997 -2.0509
   79MOL    H4539201   1.326   1.997   4.694 -1.1594  0.5824  3.0633
   79MOL    H4639202   1.212   1.897   4.607 -2.0651  0.0375 -0.3674
   79MOL    H4739203   1.344   2.023   4.414 -1.8315 -2.2056  0.3078
   79MOL    H4839204   1.340   2.207   4.255  1.2720 -0.1602  1.4711
   79MOL    H4939205   1.204   2.423   4.322  1.4056  1.2132  0.9091
   79MOL    H5039206   1.099   2.435   4.549  1.3494  0.6735  0.1588
   79MOL    H5139207   1.110   2.249   4.697  1.4731  0.7546  0.8720
   79MOL    C5239208   0.943   1.934   4.988  0.7617 -0.0307  0.0901
   79MOL    C5339209   0.889   1.809   4.914  0.1911  0.6082  0.0624
   79MOL    C5439210   0.970   1.691   4.958  0.1224  0.6826 -0.1327
   79MOL    C5539211   0.892   1.825   4.763  0.2220  0.5061 -0.1215
   79MOL    O5639212   0.953   1.750   4.686  0.3758  0.8354 -0.6424
   79MOL    O5739213   0.820   1.929   4.726  0.9087 -0.0667 -0.3136
   79MOL    C5839214   0.805   1.945   4.583  0.0675 -0.7889 -0.8974
   79MOL    C5939215   0.726   2.071   4.543  0.4397  0.0182 -0.2647
   79MOL    C6039216   0.797   2.192   4.520  0.2899  0.0325  0.6061
   79MOL    C6139217   0.729   2.304   4.477  0.4726  0.0215  0.3648
   79MOL    C6239218   0.588   2.307   4.466 -0.1747  0.3117  0.1726
   79MOL    C6339219   0.518   2.190   4.496  0.3908  0.4646 -0.2725
   79MOL    C6439220   0.589   2.070   4.530  0.6628 -0.3763  0.4325
   79MOL    H6539221   0.881   2.019   4.961 -0.6160 -1.6334 -1.8593
   79MOL    H6639222   0.927   1.916   5.094 -0.6639  1.3712  0.1312
   79MOL    H6739223   1.069   1.686   4.911  0.4868 -3.2384  0.8808
   79MOL    H6839224   0.930   1.603   4.909  0.2200 -0.5390  1.9209
   79MOL    H6939225   0.979   1.670   5.065  0.8739 -0.1492 -0.3555
   79MOL    H7039226   0.895   1.934   4.524  1.4018 -1.8438  1.2673
   79MOL    H7139227   0.740   1.868   4.543 -0.2687 -1.2811  0.5508
   79MOL    H7239228   0.902   2.205   4.541 -0.0025  0.2723  1.9429
   79MOL    H7339229   0.787   2.392   4.454 -0.4176  0.4692 -0.2112
   79MOL    H7439230   0.527   2.387   4.426 -1.1102 -1.2003 -1.4942
   79MOL    H7539231   0.410   2.195   4.493  0.3101 -1.3251 -1.3379
   79MOL    H7639232   0.530   1.982   4.549  0.8863 -0.5385  0.3731
   79MOL    C7739233   0.737   1.782   4.949 -0.8542 -0.1385  0.5190
   79MOL    C7839234   0.662   1.794   5.091  0.1087  1.1957  0.1514
   79MOL    C7939235   0.647   1.949   5.125 -0.1765 -0.0959  0.5482
   79MOL    C8039236   0.744   1.724   5.201 -0.8531  0.3837 -0.2665
   79MOL    O8139237   0.818   1.780   5.287 -0.1604  0.2390 -0.3040
   79MOL    O8239238   0.758   1.597   5.177  0.8540  0.3864 -0.0519
   79MOL    C8339239   0.847   1.509   5.249  0.5112 -1.0681  0.3272
   79MOL    C8439240   0.769   1.422   5.337 -0.1029 -0.1111  0.3718
   79MOL    C8539241   0.773   1.284   5.320  0.0117  0.3955 -0.0889
   79MOL    C8639242   0.693   1.203   5.402  0.5623  1.0816  0.4407
   79MOL    C8739243   0.616   1.264   5.504  0.2669  0.4204  0.2572
   79MOL    C8839244   0.620   1.401   5.528 -0.0997 -0.4523  0.3690
   79MOL    C8939245   0.696   1.481   5.440  0.4538  0.2794  0.4475
   79MOL    H9039246   0.713   1.684   4.907  1.4755 -0.2020 -0.7684
   79MOL    H9139247   0.672   1.847   4.890  1.8481  2.0476 -0.1512
   79MOL    H9239248   0.648   2.010   5.034  0.0784  1.2439  1.4372
   79MOL    H9339249   0.727   1.993   5.185  1.6205 -2.2681 -0.2175
   79MOL    H9439250   0.548   1.976   5.161 -0.4972 -0.4642 -0.0442
   79MOL    H9539251   0.919   1.454   5.189 -1.8445 -2.4073 -1.3385
   79MOL    H9639252   0.910   1.570   5.314  1.7758  0.2916 -2.1233
   79MOL    H9739253   0.840   1.246   5.244 -1.6475 -0.5091 -1.1426
   79MOL    H9839254   0.696   1.095   5.412  0.9033  0.9421 -0.9939
   79MOL    H9939255   0.564   1.193   5.566  0.1551 -0.0835 -0.4033
   79MOL   H10039256   0.556   1.451   5.598  1.8327 -1.0674  2.6119
   79MOL   H10139257   0.718   1.578   5.482  0.7937 -0.9532  3.2691
   79MOL   C10239258   0.522   1.722   5.068  0.4087  0.1808 -0.2928
   79MOL   C10339259   0.399   1.711   5.175  0.4738  0.3481  0.4891
   79MOL   C10439260   0.351   1.562   5.171  0.2420  0.0838  0.6190
   79MOL   C10539261   0.282   1.792   5.106 -0.0183 -0.4283 -0.5745
   79MOL   O10639262   0.171   1.746   5.083 -0.1568 -0.0009  0.4233
   79MOL   O10739263   0.318   1.922   5.080 -0.0412 -0.3235 -0.0715
   79MOL   C10839264   0.220   2.007   5.032 -0.3026 -1.5745  0.5014
   79MOL   C10939265   0.286   2.135   4.974  0.3649  0.2163  0.2712
   79MOL   C11039266   0.399   2.132   4.888  0.6196 -0.5229 -0.4235
   79MOL   C11139267   0.454   2.249   4.836  0.2518  0.3122  0.9722
   79MOL   C11239268   0.397   2.373   4.864  0.3390  1.5088 -0.1826
   79MOL   C11339269   0.292   2.379   4.952  0.3546 -0.2147  0.1156
   79MOL   C11439270   0.233   2.260   5.005 -0.0393 -0.2333  0.2566
   79MOL   H11539271   0.548   1.618   5.048  0.5772  0.3185 -0.8162
   79MOL   H11639272   0.478   1.745   4.971 -0.7673 -1.0200 -0.0556
   79MOL   H11739273   0.429   1.494   5.206  0.1977 -0.3314 -0.0834
   79MOL   H11839274   0.338   1.528   5.069 -0.1456 -1.5126  1.1881
   79MOL   H11939275   0.256   1.542   5.220 -0.8818 -1.3982 -2.0682
   79MOL   H12039276   0.170   1.963   4.946 -3.0684 -0.5688  1.5286
   79MOL   H12139277   0.142   2.016   5.108 -0.2579  0.2173  0.3606
   79MOL   H12239278   0.445   2.034   4.877  1.2323 -0.5048  1.8886
   79MOL   H12339279   0.543   2.248   4.775  0.5382 -0.9453  1.3889
   79MOL   H12439280   0.453   2.454   4.819  0.0415  1.1417 -1.2194
   79MOL   H12539281   0.253   2.477   4.975  0.4304 -0.3620  0.9043
   79MOL   H12639282   0.144   2.278   5.064 -0.4026  0.1773 -0.4105
   79MOL   C12739283   0.441   1.745   5.315 -0.3160 -0.1388 -0.8373
   79MOL   C12839284   0.341   1.803   5.423 -0.1066 -0.4111  0.2544
   79MOL   C12939285   0.223   1.711   5.432  0.1553  0.2050 -0.1321
   79MOL   C13039286   0.295   1.949   5.393  0.2231  0.2983 -0.0532
   79MOL   O13139287   0.182   1.974   5.351  0.2529 -0.4808  0.0616
   79MOL   O13239288   0.392   2.041   5.395  0.9570 -0.3657 -0.8347
   79MOL   C13339289   0.372   2.168   5.334 -0.5559 -0.4451  0.1256
   79MOL   C13439290   0.486   2.265   5.343 -0.4604  0.0273  0.8075
   79MOL   C13539291   0.517   2.302   5.472 -0.5157  0.0678 -0.3402
   79MOL   C13639292   0.630   2.381   5.494 -0.2410  0.1090  0.0119
   79MOL   C13739293   0.693   2.441   5.384  1.5081 -0.7227 -0.4972
   79MOL   C13839294   0.656   2.412   5.248  0.3382 -0.1559 -0.6204
   79MOL   C13939295   0.554   2.319   5.228 -0.3709 -0.0719 -0.3561
   79MOL   H14039296   0.524   1.816   5.312  0.3107 -0.8136  0.1725
   79MOL   H14139297   0.486   1.656   5.357  0.9744 -0.5700 -3.0784
   79MOL   H14239298   0.256   1.610   5.458  3.1621  1.1083 -0.2968
   79MOL   H14339299   0.166   1.698   5.340 -0.7140 -0.7587  0.5326
   79MOL   H14439300   0.156   1.740   5.513  1.4343  2.7176  0.0622
   79MOL   H14539301   0.351   2.154   5.228 -0.0114 -2.2958  0.2436
   79MOL   H14639302   0.283   2.213   5.378 -0.5121 -1.0438  0.8459
   79MOL   H14739303   0.472   2.265   5.563  0.7863  0.7943  0.6021
   79MOL   H14839304   0.658   2.406   5.595  1.2619  1.5803 -0.7442
   79MOL   H14939305   0.778   2.505   5.400  0.9945 -0.0599 -0.4270
   79MOL   H15039306   0.701   2.464   5.165 -0.5969  0.1247 -0.9654
   79MOL   H15139307   0.533   2.311   5.122  2.2625 -0.4907 -0.8706
   79MOL   C15239308   0.419   1.807   5.571  0.5493 -0.6564 -0.4678
   79MOL   C15339309   0.354   1.838   5.719 -0.8597  0.0710 -0.7433
   79MOL   C15439310   0.295   1.704   5.782 -0.5203 -0.0150 -0.2528
   79MOL   C15539311   0.243   1.949   5.702 -0.5452  0.3630  0.1224
   79MOL   O15639312   0.264   2.071   5.713 -0.2848  0.1754  0.0119
   79MOL   O15739313   0.122   1.897   5.678  0.5638 -1.0482 -0.4758
   79MOL   C15839314   0.012   1.985   5.649  0.1912  0.6925 -0.1338
   79MOL   C15939315   7.884   1.955   5.715  0.2471  0.4790  0.6797
   79MOL   C16039316   7.876   1.963   5.856  0.5042  0.7585  0.3839
   79MOL   C16139317   7.753   1.932   5.919  0.0766  0.3484  0.0933
   79MOL   C16239318   7.645   1.877   5.841  0.5139  0.5566  0.1309
   79MOL   C16339319   7.653   1.873   5.696  0.1332 -0.0154 -0.0173
   79MOL   C16439320   7.773   1.917   5.643 -0.1769  0.4628  1.1969
   79MOL   H16539321   0.492   1.886   5.554  0.9144 -1.3207 -2.0792
   79MOL   H16639322   0.485   1.720   5.582  1.4426 -0.0822 -1.2987
   79MOL   H16739323   0.260   1.729   5.882 -0.3454  0.1641 -0.2377
   79MOL   H16839324   0.364   1.619   5.787 -2.2911 -1.5193 -0.6209
   79MOL   H16939325   0.207   1.671   5.725 -0.1320  0.5731 -1.1992
   79MOL   H17039326   0.042   2.087   5.670  2.5089  0.1313 -0.6125
   79MOL   H17139327   8.006   1.983   5.540  0.3410 -0.7305 -0.1384
   79MOL   H17239328   7.958   1.994   5.919 -0.0255  2.6260  0.1627
   79MOL   H17339329   7.745   1.929   6.027  0.3678 -0.1506  0.1025
   79MOL   H17439330   7.559   1.844   5.897  0.4917  0.6414  0.1456
   79MOL   H17539331   7.566   1.852   5.636  0.0766 -0.2931  0.1626
   79MOL   H17639332   7.774   1.912   5.535  0.9643  0.6877  1.1982
   79MOL   C17739333   0.458   1.910   5.813  0.2344  0.7324 -0.7565
   79MOL   C17839334   0.589   1.848   5.862  0.0389  0.3437 -0.5494
   79MOL   C17939335   0.682   1.793   5.743 -0.5750  0.1433  0.9042
   79MOL   C18039336   0.589   1.733   5.969 -0.3983 -0.2690  0.7009
   79MOL   O18139337   0.491   1.689   6.022 -0.1278 -0.3811 -0.3012
   79MOL   O18239338   0.708   1.694   6.001  0.6299 -0.0147  0.1709
   79MOL   C18339339   0.726   1.588   6.092 -0.4279 -0.2664  0.1691
   79MOL   C18439340   0.865   1.586   6.154  0.0388 -0.3378 -0.0438
   79MOL   C18539341   0.929   1.701   6.193 -0.4122  0.3551  0.5510
   79MOL   C18639342   1.062   1.693   6.243 -0.0404  0.4932 -0.6328
   79MOL   C18739343   1.119   1.574   6.271  0.3043 -0.4918 -0.8213
   79MOL   C18839344   1.056   1.456   6.232 -0.2121  0.4307  0.0460
   79MOL   C18939345   0.925   1.461   6.180  0.8671 -0.2799  0.5911
   79MOL   H19039346   0.400   1.937   5.901  0.3416  0.5836 -0.6398
   79MOL   H19139347   0.492   2.000   5.761  0.9253  0.3490 -0.9687
   79MOL   H19239348   0.661   1.688   5.721 -1.2014 -0.0842  2.4572
   79MOL   H19339349   0.789   1.787   5.761  0.2175  1.3349 -3.0651
   79MOL   H19439350   0.677   1.836   5.644 -2.1971  1.8649  1.7007
   79MOL   H19539351   0.666   1.583   6.183  1.1825  0.6911  1.3086
   79MOL   H19639352   0.713   1.495   6.037 -1.1286  0.4249 -0.8521
   79MOL   H19739353   0.872   1.790   6.174 -1.8069 -1.0048 -1.8706
   79MOL   H19839354   1.107   1.784   6.280 -0.5995  0.9145 -0.9693
   79MOL   H19939355   1.203   1.585   6.338  0.5266 -0.9754 -1.0146
   79MOL   H20039356   1.116   1.368   6.248 -1.1459 -0.1340  0.4457
   79MOL   H20139357   0.870   1.371   6.156  0.6822 -0.1192  0.4030
   79MOL   C20239358   0.676   1.966   5.928  0.2436  0.1877  0.3087
   79MOL   C20339359   0.629   2.057   6.056 -0.4935  0.4454 -0.0654
   79MOL   C20439360   0.559   1.973   6.161  0.0831 -0.2672  0.4563
   79MOL   C20539361   0.542   2.177   6.006  0.4631 -0.0188 -0.2023
   79MOL   O20639362   0.421   2.191   6.037 -0.1040  0.2280 -0.3926
   79MOL   O20739363   0.618   2.247   5.922  0.0032  0.0496 -0.4351
   79MOL   C20839364   0.558   2.368   5.858  0.0988  0.0273  0.2649
   79MOL   C20939365   0.637   2.496   5.897 -0.2546  0.2605 -0.7403
   79MOL   C21039366   0.761   2.487   5.957 -0.6738 -0.2068  0.3544
   79MOL   C21139367   0.837   2.599   5.986 -0.0125  0.4335  0.8670
   79MOL   C21239368   0.782   2.728   5.967  0.2988 -0.7044  0.1073
   79MOL   C21339369   0.654   2.736   5.903  0.1353  0.5118 -0.4802
   79MOL   C21439370   0.579   2.619   5.865  0.5459 -0.0466 -0.1363
   79MOL   H21539371   0.710   2.036   5.852  1.3183  0.0646  0.6752
   79MOL   H21639372   0.772   1.927   5.962  0.0313 -0.1406  0.5465
   79MOL   H21739373   0.470   1.934   6.112  0.9634 -0.0218 -1.3763
   79MOL   H21839374   0.523   2.028   6.248  0.3329 -0.8114  0.9069
   79MOL   H21939375   0.617   1.893   6.207  0.0913 -1.0099 -0.8210
   79MOL   H22039376   0.564   2.355   5.750  3.2029  0.9882  0.2436
   79MOL   H22139377   0.456   2.384   5.892  0.9200  1.5422  2.1410
   79MOL   H22239378   0.811   2.394   5.981 -0.5382  0.2661  1.9829
   79MOL   H22339379   0.939   2.603   6.022  0.4240 -0.8829 -0.2031
   79MOL   H22439380   0.842   2.816   5.986 -1.1536  0.6903 -1.6162
   79MOL   H22539381   0.616   2.833   5.877  0.7473  0.6215 -0.9750
   79MOL   H22639382   0.486   2.621   5.811  1.7500 -0.4277 -2.2937
   79MOL   C22739383   0.759   2.115   6.129 -0.4613  0.2105  1.0026
   79MOL   C22839384   0.767   2.183   6.267  0.1468 -0.3107  0.3122
   79MOL   C22939385   0.778   2.073   6.370 -0.2260  0.4306  0.3183
   79MOL   C23039386   0.641   2.267   6.306  0.0451  0.1269  0.3429
   79MOL   O23139387   0.573   2.230   6.399 -0.4084  0.4264  0.1870
   79MOL   O23239388   0.620   2.385   6.253 -0.3244 -0.2981  0.6829
   79MOL   C23339389   0.503   2.462   6.275  0.1472 -0.2494  0.6903
   79MOL   C23439390   0.503   2.566   6.385 -0.5830  0.2676  0.2224
   79MOL   C23539391   0.484   2.696   6.338  0.5978  0.8265 -0.7321
   79MOL   C23639392   0.495   2.802   6.431  0.5854  0.2886 -0.4662
   79MOL   C23739393   0.523   2.777   6.564 -0.2951  0.0553  0.3226
   79MOL   C23839394   0.543   2.645   6.610 -0.1908 -0.4747  0.3359
   79MOL   C23939395   0.518   2.536   6.522 -0.0016 -0.3373  0.0259
   79MOL   H24039396   0.807   2.174   6.051  1.0801 -1.0707  0.9668
   79MOL   H24139397   0.826   2.030   6.135  0.2896  0.6175 -1.1096
   79MOL   H24239398   0.864   2.007   6.354 -0.1912  0.2041  1.3442
   79MOL   H24339399   0.688   2.011   6.374  1.2657 -1.7822  0.7686
   79MOL   H24439400   0.809   2.114   6.467 -1.4888 -1.7507  1.6882
   79MOL   H24539401   0.485   2.510   6.179 -0.6722  1.3565  1.6309
   79MOL   H24639402   0.419   2.393   6.287  0.0307  0.4713  4.7061
   79MOL   H24739403   0.462   2.716   6.235 -1.7615  1.2665 -0.1844
   79MOL   H24839404   0.473   2.903   6.398  0.2196  0.9853  1.8372
   79MOL   H24939405   0.537   2.858   6.635 -1.7449  1.3672 -0.8507
   79MOL   H25039406   0.570   2.625   6.713  0.2954 -4.2356 -0.4379
   79MOL   H25139407   0.551   2.436   6.548  0.0075 -0.6885 -1.2666
   79MOL   C25239408   0.891   2.278   6.278 -0.4694 -0.9709 -0.3089
   79MOL   C25339409   1.040   2.239   6.307  0.2958 -0.4246  0.1511
   79MOL   C25439410   1.084   2.141   6.203  0.0349 -0.0127  0.1640
   79MOL   C25539411   1.059   2.188   6.455  0.1773 -0.3179  0.5279
   79MOL   O25639412   1.131   2.089   6.488  0.1277  0.2149  0.1828
   79MOL   O25739413   1.003   2.264   6.550 -0.4628 -0.0314  0.0851
   79MOL   C25839414   1.015   2.251   6.685  0.0310 -0.0288  0.5986
   79MOL   C25939415   0.976   2.387   6.749 -0.0550 -0.4539 -0.2386
   79MOL   C26039416   0.901   2.474   6.668  0.1751  0.7026  0.1782
   79MOL   C26139417   0.871   2.603   6.709 -0.5116 -0.2400  0.2132
   79MOL   C26239418   0.928   2.651   6.828  0.2045 -0.0784  0.3493
   79MOL   C26339419   0.999   2.561   6.916  0.1324  0.3674  0.4936
   79MOL   C26439420   1.021   2.428   6.880  0.1389 -1.1006 -0.3436
   79MOL   H26539421   0.869   2.363   6.342  3.9631 -1.8402  2.6008
   79MOL   H26639422   0.907   2.330   6.183  1.8221 -0.4221  0.3539
   79MOL   H26739423   1.080   2.191   6.106  1.6252  0.2844  0.2269
   79MOL   H26839424   1.030   2.047   6.197  1.6325 -0.8801 -1.5850
   79MOL   H26939425   1.181   2.103   6.235 -1.3062 -3.3914  0.3732
   79MOL   H27039426   0.945   2.178   6.727  1.4288 -0.0809  2.9006
   79MOL   H27139427   1.111   2.220   6.725  0.6298  2.2509  1.0425
   79MOL   H27239428   0.858   2.445   6.574  0.7236 -0.7441  0.3555
   79MOL   H27339429   0.814   2.669   6.645  0.9835  2.4073  1.5648
   79MOL   H27439430   0.912   2.756   6.849 -0.5917  0.0497 -0.8813
   79MOL   H27539431   1.032   2.600   7.011 -0.1722 -0.5476  0.9804
   79MOL   H27639432   1.082   2.369   6.946  0.1998 -1.0278 -0.3350
   79MOL   C27739433   1.124   2.372   6.294  0.2687 -0.3891 -0.2368
   79MOL   C27839434   1.281   2.383   6.323  1.1875 -0.2359  0.0632
   79MOL   C27939435   1.316   2.371   6.470 -0.5959  0.0599  0.4633
   79MOL   C28039436   1.320   2.526   6.273  0.2968  0.3876 -0.1673
   79MOL   O28139437   1.245   2.608   6.223  0.1940  0.2931 -0.0176
   79MOL   O28239438   1.445   2.566   6.307 -0.0720 -0.0933  0.0506
   79MOL   C28339439   1.496   2.694   6.275  0.2979 -0.1922 -0.3916
   79MOL   C28439440   1.632   2.721   6.342  0.0609 -0.6924  0.0463
   79MOL   C28539441   1.648   2.714   6.483  0.3721 -0.8194  0.3164
   79MOL   C28639442   1.773   2.755   6.541  0.1916  0.5827  0.2953
   79MOL   C28739443   1.883   2.798   6.466  0.2891 -0.1639 -0.1368
   79MOL   C28839444   1.866   2.802   6.327  0.6811  0.1097 -0.8382
   79MOL   C28939445   1.748   2.758   6.264  0.6093 -0.3716 -0.4473
   79MOL   H29039446   1.082   2.452   6.354  1.3288  0.4056 -0.5360
   79MOL   H29139447   1.108   2.404   6.191  0.5456 -0.4176 -0.2880
   79MOL   H29239448   1.321   2.274   6.520  1.5920  1.0502  2.2642
   79MOL   H29339449   1.251   2.434   6.531  0.8517  1.1453  0.9049
   79MOL   H29439450   1.415   2.411   6.492 -0.2555 -0.4991 -0.0370
   79MOL   H29539451   1.505   2.697   6.166  2.3299 -1.1910 -0.2823
   79MOL   H29639452   1.439   2.775   6.319  2.4754  0.9564  0.4050
   79MOL   H29739453   1.564   2.686   6.544 -0.4378  1.0559  0.1042
   79MOL   H29839454   1.778   2.750   6.648 -1.2131 -2.7132  0.2811
   79MOL   H29939455   1.971   2.833   6.518 -1.2786 -0.6721  2.9701
   79MOL   H30039456   1.952   2.832   6.269  1.2398  3.0333  1.3802
   79MOL   H30139457   1.740   2.753   6.156  2.3613 -0.0143 -0.6000
   79MOL   C30239458   1.363   2.277   6.245 -0.1911 -0.2059  0.7044
   79MOL   C30339459   1.509   2.268   6.186  0.6783  0.5718  0.4186
   79MOL   C30439460   1.609   2.284   6.300 -0.0865  0.2357  0.3176
   79MOL   C30539461   1.532   2.373   6.073  0.0669  1.2575 -0.5174
   79MOL   O30639462   1.445   2.397   5.991 -0.3222  0.3193 -0.0871
   79MOL   O30739463   1.649   2.433   6.081 -0.0681 -0.2093  0.2264
   79MOL   C30839464   1.687   2.507   5.969  0.6039 -0.4269 -0.3753
   79MOL   C30939465   1.835   2.542   5.973  0.1993 -0.6915 -0.1592
   79MOL   C31039466   1.926   2.474   6.064  0.0204  0.8688 -0.2877
   79MOL   C31139467   2.062   2.511   6.063  0.0707  0.5483  0.2554
   79MOL   C31239468   2.105   2.608   5.972  0.0370  0.0114 -0.0462
   79MOL   C31339469   2.017   2.668   5.881  0.1560 -0.5430  0.0030
   79MOL   C31439470   1.881   2.632   5.878  0.0737  0.4900 -0.5792
   79MOL   H31539471   1.308   2.265   6.151  2.7404  0.3582 -1.1355
   79MOL   H31639472   1.355   2.193   6.313 -0.9015 -1.0044 -0.3512
   79MOL   H31739473   1.569   2.231   6.386 -0.2152  1.2647  0.9055
   79MOL   H31839474   1.636   2.385   6.332  0.8872  0.6025 -1.5580
   79MOL   H31939475   1.700   2.227   6.278 -1.6117 -1.9637 -0.4065
   79MOL   H32039476   1.660   2.460   5.875 -1.2833  0.7255 -0.4450
   79MOL   H32139477   1.639   2.605   5.969  1.4184  0.0273  2.6211
   79MOL   H32239478   1.894   2.403   6.138  0.2539  0.7804 -0.2698
   79MOL   H32339479   2.135   2.470   6.132  1.5497  1.5469 -0.6765
   79MOL   H32439480   2.206   2.644   5.978 -0.1868  0.6933 -0.2081
   79MOL   H32539481   2.040   2.741   5.805 -1.0561 -0.0368  0.1042
   79MOL   H32639482   1.814   2.663   5.798 -1.2396 -0.8728 -0.0215
   79MOL   C32739483   1.508   2.117   6.126 -0.1272 -0.1124 -0.3855
   79MOL   C32839484   1.608   2.060   6.009  0.2458 -0.0866 -0.1748
   79MOL   C32939485   1.755   2.102   6.042 -1.0662 -0.2949 -0.1193
   79MOL   C33039486   1.578   2.107   5.866 -0.9796  0.8371  0.9629
   79MOL   O33139487   1.472   2.167   5.840  0.2042  0.0620 -0.3195
   79MOL   O33239488   1.672   2.068   5.778 -0.3224  0.1363 -0.1904
   79MOL   C33339489   1.640   2.091   5.640  0.0814  0.2889  0.1710
   79MOL   C33439490   1.714   2.011   5.534 -0.2508  0.4597  0.4840
   79MOL   C33539491   1.753   1.876   5.559  0.6470 -0.7938 -0.6274
   79MOL   C33639492   1.826   1.804   5.462  0.1840 -0.6344  0.3070
   79MOL   C33739493   1.857   1.859   5.338  0.1275 -0.1866  0.5694
   79MOL   C33839494   1.811   1.990   5.308  0.2949 -0.3379  0.1013
   79MOL   C33939495   1.743   2.068   5.407  0.4615  0.6433  0.6528
   79MOL   H34039496   1.407   2.112   6.086 -0.1249  3.0166 -0.9228
   79MOL   H34139497   1.501   2.033   6.195  0.7806  0.3270  0.2556
   79MOL   H34239498   1.790   2.052   6.132 -2.7122 -0.4768  0.4342
   79MOL   H34339499   1.757   2.211   6.049 -0.6745 -0.3088 -0.0027
   79MOL   H34439500   1.822   2.096   5.956 -1.0706 -0.6638 -0.0984
   79MOL   H34539501   1.534   2.071   5.626  0.8679 -3.4757 -1.0063
   79MOL   H34639502   1.667   2.197   5.635 -0.1227  0.4428  2.0607
   79MOL   H34739503   1.745   1.826   5.654  0.9824  1.7997  0.7996
   79MOL   H34839504   1.846   1.698   5.469 -4.1023 -1.6137 -0.6288
   79MOL   H34939505   1.917   1.801   5.269  2.1813 -0.8279  2.8340
   79MOL   H35039506   1.856   2.043   5.225  0.5773 -1.5474 -0.5295
   79MOL   H35139507   1.725   2.174   5.393 -1.7211  0.1271 -0.6060
   79MOL   C35239508   1.602   1.903   6.015 -0.6190  0.4662  0.0142
   79MOL   C35339509   1.484   1.800   5.978  0.1621  0.7799  0.0357
   79MOL   C35439510   1.495   1.760   5.829 -0.2825 -0.0722  0.4174
   79MOL   C35539511   1.342   1.863   6.003  0.0178  0.2656 -0.2369
   79MOL   O35639512   1.304   1.877   6.119 -0.0017 -0.1312 -0.1407
   79MOL   O35739513   1.274   1.908   5.896  0.5020 -0.1787  0.2295
   79MOL   C35839514   1.139   1.952   5.912  0.0040 -0.4249  0.1530
   79MOL   C35939515   1.064   1.963   5.777  0.2618  0.1891  0.4747
   79MOL   C36039516   0.984   2.080   5.744  0.6641 -0.2992  0.4596
   79MOL   C36139517   0.907   2.091   5.622 -0.0222  0.3998 -0.2489
   79MOL   C36239518   0.908   1.982   5.530 -0.6082 -0.2303 -0.1107
   79MOL   C36339519   0.996   1.871   5.561 -0.0290 -0.3897  1.2372
   79MOL   C36439520   1.082   1.869   5.672 -0.1074  0.4634 -0.5371
   79MOL   H36539521   1.638   1.871   6.113  1.7368 -1.0411 -1.2930
   79MOL   H36639522   1.684   1.880   5.948 -0.6125  1.2821 -0.2612
   79MOL   H36739523   1.423   1.683   5.803 -1.4988  1.6869 -1.5924
   79MOL   H36839524   1.596   1.721   5.811  0.7831  1.9949  1.6692
   79MOL   H36939525   1.491   1.843   5.758  1.9061 -1.4807 -1.4083
   79MOL   H37039526   1.080   1.877   5.965 -0.0801 -0.3268  0.1975
   79MOL   H37139527   1.141   2.044   5.969  2.5935 -1.7443  2.2911
   79MOL   H37239528   0.977   2.153   5.824 -0.4744 -0.2469  0.3235
   79MOL   H37339529   0.845   2.179   5.615 -2.3932 -1.0841  1.2490
   79MOL   H37439530   0.845   1.992   5.443  1.8227 -0.3678 -1.9450
   79MOL   H37539531   1.006   1.796   5.483 -1.8747 -0.7148  1.2891
   79MOL   H37639532   1.135   1.780   5.702  0.3368  0.9814  0.2309
   79MOL   C37739533   1.502   1.666   6.062  0.0121  0.0067  1.0682
   79MOL   C37839534   1.594   1.546   6.043  0.2176 -0.8308  0.2317
   79MOL   C37939535   1.737   1.597   6.027  0.7596 -0.1461 -0.0902
   79MOL   C38039536   1.549   1.464   5.918  0.4724 -0.3951 -0.3099
   79MOL   O38139537   1.633   1.441   5.831 -0.2252  0.5294  0.7296
   79MOL   O38239538   1.416   1.441   5.914  0.0457  0.0863  0.3244
   79MOL   C38339539   1.360   1.378   5.795 -0.0488  0.0135 -0.3211
   79MOL   C38439540   1.207   1.383   5.774 -0.0051  0.7873  0.0391
   79MOL   C38539541   1.141   1.298   5.687  0.4292 -0.2485  0.5498
   79MOL   C38639542   1.000   1.306   5.667  0.1908 -0.8638 -0.0157
   79MOL   C38739543   0.931   1.404   5.733  0.8669 -0.0129  0.2960
   79MOL   C38839544   1.000   1.499   5.820  0.5435  0.1503 -0.8397
   79MOL   C38939545   1.135   1.489   5.829  0.3138 -0.1089  0.0987
   79MOL   H39039546   1.400   1.632   6.085  0.5710 -0.6985  2.5516
   79MOL   H39139547   1.521   1.708   6.160  0.6851  2.8561 -0.2500
   79MOL   H39239548   1.763   1.667   5.948 -3.1985  1.2851 -0.2137
   79MOL   H39339549   1.806   1.517   5.999  2.5695  0.8231  1.4660
   79MOL   H39439550   1.763   1.658   6.113 -1.8088  4.2143 -2.2468
   79MOL   H39539551   1.401   1.419   5.703  1.3177  1.5077  0.9182
   79MOL   H39639552   1.385   1.272   5.805 -1.6931 -0.5012 -1.3158
   79MOL   H39739553   1.200   1.219   5.642 -1.5568 -1.2441 -0.4040
   79MOL   H39839554   0.956   1.229   5.605 -0.4490 -1.2559  0.9222
   79MOL   H39939555   0.823   1.396   5.735  0.6274  2.7340  0.4732
   79MOL   H40039556   0.956   1.581   5.874 -1.3968 -0.3234 -1.6892
   79MOL   H40139557   1.186   1.561   5.892  2.0504 -1.8611  0.7571
   79MOL   C40239558   1.579   1.452   6.170 -0.2094 -0.5905  0.2418
   79MOL   C40339559   1.697   1.365   6.238 -0.2515  0.2280  0.4005
   79MOL   C40439560   1.811   1.449   6.304 -0.0003  0.0280  0.5124
   79MOL   C40539561   1.755   1.278   6.129  0.3945  0.2396 -0.1603
   79MOL   O40639562   1.877   1.277   6.097 -0.1322 -0.4890  0.2092
   79MOL   O40739563   1.655   1.212   6.064  0.4667  0.1459  0.1957
   79MOL   C40839564   1.694   1.114   5.961  0.5765 -0.3908 -0.3871
   79MOL   C40939565   1.583   1.016   5.949 -0.6350  0.1612  0.8740
   79MOL   C41039566   1.550   0.977   5.815 -0.0599 -0.3328 -0.1677
   79MOL   C41139567   1.446   0.880   5.787  0.0452 -0.2893  0.0564
   79MOL   C41239568   1.382   0.818   5.892  0.1456 -0.2342  0.2664
   79MOL   C41339569   1.420   0.851   6.027  0.2450 -0.3722  0.3716
   79MOL   C41439570   1.514   0.954   6.056 -0.0459  0.4167 -0.2739
   79MOL   H41539571   1.497   1.382   6.156 -0.5056 -0.0854 -0.5619
   79MOL   H41639572   1.546   1.518   6.251  2.4078  0.3603  0.5722
   79MOL   H41739573   1.852   1.528   6.241  0.4555 -0.1384  0.5982
   79MOL   H41839574   1.892   1.386   6.340 -1.5283 -1.3094  1.7001
   79MOL   H41939575   1.774   1.499   6.394 -2.3909 -2.3375  0.9056
   79MOL   H42039576   1.693   1.177   5.872 -0.0900 -0.4594 -0.4269
   79MOL   H42139577   1.793   1.072   5.976 -0.3457 -3.0622 -1.6495
   79MOL   H42239578   1.601   1.029   5.735 -2.0224  1.2652 -0.4235
   79MOL   H42339579   1.411   0.861   5.687 -0.6488 -1.5757  0.5315
   79MOL   H42439580   1.316   0.734   5.877  1.1458 -0.8961 -0.4669
   79MOL   H42539581   1.368   0.808   6.111  0.2859 -0.0575  0.5544
   79MOL   H42639582   1.554   0.973   6.154  1.9419  1.2055 -1.2148
   79MOL   C42739583   1.631   1.279   6.354  0.2332 -0.2468 -0.2175
   79MOL   C42839584   1.710   1.199   6.466  0.2555 -0.1907 -0.3280
   79MOL   C42939585   1.822   1.110   6.407 -0.1192  0.5290  0.2943
   79MOL   C43039586   1.606   1.102   6.530 -0.7955 -0.3084  0.3704
   79MOL   O43139587   1.621   0.976   6.543  0.6322 -0.1453  0.4877
   79MOL   O43239588   1.486   1.155   6.560 -0.2655  0.4478  0.0427
   79MOL   C43339589   1.384   1.066   6.608 -0.2692 -0.1666 -0.1748
   79MOL   C43439590   1.244   1.113   6.568  0.5148 -0.1143 -0.0399
   79MOL   C43539591   1.216   1.255   6.551 -0.1463 -0.7689  0.3862
   79MOL   C43639592   1.085   1.298   6.515 -0.1081  0.0631  0.5418
   79MOL   C43739593   0.983   1.203   6.498 -0.2296 -0.2778 -0.2470
   79MOL   C43839594   1.008   1.068   6.524  0.1759 -0.7158  0.1038
   79MOL   C43939595   1.140   1.023   6.544  0.4577 -0.4565  0.4619
   79MOL   H44039596   1.558   1.211   6.310  0.3398  0.1584 -1.0193
   79MOL   H44139597   1.567   1.352   6.404  0.9777  0.0433  0.3068
   79MOL   H44239598   1.854   1.038   6.482 -2.5786 -0.3499  0.5472
   79MOL   H44339599   1.913   1.155   6.367 -0.0736  1.9251  1.9336
   79MOL   H44439600   1.782   1.041   6.332  0.5578 -1.0351  1.3473
   79MOL   H44539601   1.387   0.969   6.559 -1.0527 -1.4441  2.2200
   79MOL   H44639602   1.392   1.054   6.716  1.2001 -1.6434 -0.4342
   79MOL   H44739603   1.282   1.338   6.570 -0.6145 -0.5564  1.1313
   79MOL   H44839604   1.071   1.404   6.502  0.5201  0.1250  0.3624
   79MOL   H44939605   0.883   1.234   6.471 -0.3401 -1.9879 -1.8714
   79MOL   H45039606   0.929   0.995   6.518  1.1241 -1.8370  1.0552
   79MOL   H45139607   1.147   0.915   6.539 -0.2842 -0.4458 -0.9647
   79MOL   C45239608   1.763   1.294   6.582  0.0856  0.8657  0.1468
   79MOL   C45339609   1.769   1.263   6.739 -0.0953  0.2859  0.0304
   79MOL   C45439610   1.814   1.123   6.779 -0.0151 -0.0487  0.5741
   79MOL   C45539611   1.630   1.295   6.794  0.1940 -0.2481 -0.1821
   79MOL   O45639612   1.562   1.216   6.865  0.7541 -0.0771 -0.0385
   79MOL   O45739613   1.582   1.422   6.768 -0.6576  0.9628  0.4594
   79MOL   C45839614   1.448   1.454   6.798  0.4066  0.8096 -0.2276
   79MOL   C45939615   1.390   1.567   6.713  0.3553 -0.2482 -0.0620
   79MOL   C46039616   1.444   1.601   6.584  0.1283  0.0776  0.4406
   79MOL   C46139617   1.390   1.706   6.508 -0.7624 -0.1128 -0.3812
   79MOL   C46239618   1.275   1.774   6.552  0.3278 -0.0356  0.3345
   79MOL   C46339619   1.228   1.745   6.677 -1.2670  0.1663  0.2556
   79MOL   C46439620   1.287   1.646   6.762 -0.1021  0.6467  1.1371
   79MOL   H46539621   1.731   1.398   6.570 -1.1874  0.1469 -3.1247
   79MOL   H46639622   1.869   1.288   6.555  0.1583 -2.5050  0.9906
   79MOL   H46739623   1.920   1.111   6.753  0.3923 -0.4199  2.3538
   79MOL   H46839624   1.759   1.038   6.739  0.6845 -1.1925  1.9703
   79MOL   H46939625   1.827   1.107   6.886  1.1340  2.0805  0.7807
   79MOL   H47039626   1.394   1.361   6.782 -2.2601  2.6619 -2.4770
   79MOL   H47139627   1.442   1.484   6.903 -1.3321 -2.2080  0.5943
   79MOL   H47239628   1.531   1.549   6.546 -0.3264  0.1371 -0.7265
   79MOL   H47339629   1.437   1.741   6.417  1.4267  0.4904  0.9382
   79MOL   H47439630   1.229   1.852   6.492 -1.6392 -1.2899  0.1763
   79MOL   H47539631   1.143   1.799   6.716 -1.0869  0.8298 -0.2712
   79MOL   H47639632   1.257   1.625   6.864 -1.6235  1.9346  0.9666
   79MOL   C47739633   1.878   1.365   6.796  0.0024  0.1503  0.1695
   79MOL   C47839634   1.905   1.394   6.942 -0.2210  0.1741 -1.6397
   79MOL   C47939635   2.001   1.514   6.967 -0.5662  0.0842  0.3812
   79MOL   C48039636   1.970   1.285   7.022 -0.3691 -0.2091 -0.2778
   79MOL   O48139637   2.061   1.219   6.968 -0.2263 -0.1937  0.0497
   79MOL   O48239638   1.921   1.261   7.141 -0.3824 -0.1807  0.3395
   79MOL   C48339639   1.973   1.144   7.202  0.3269  0.5653 -0.2442
   79MOL   C48439640   1.924   1.108   7.348  0.0033  0.5833  0.7954
   79MOL   C48539641   1.961   0.984   7.398 -0.2644  0.6212  0.0941
   79MOL   C48639642   1.941   0.950   7.530 -0.0342  0.4986 -0.0651
   79MOL   C48739643   1.895   1.042   7.621 -0.2641 -0.0442  0.1739
   79MOL   C48839644   1.851   1.167   7.572 -0.0097 -0.2416 -0.2943
   79MOL   C48939645   1.860   1.204   7.434 -0.1981  0.2793 -0.1343
   79MOL   H49039646   1.848   1.460   6.752  0.2140 -1.0767 -2.7561
   79MOL   H49139647   1.974   1.346   6.748 -0.4328  1.2205 -1.1738
   79MOL   H49239648   1.954   1.604   6.927 -0.8064 -0.5347 -0.7445
   79MOL   H49339649   2.095   1.503   6.914 -0.7152  1.4933 -0.2069
   79MOL   H49439650   2.014   1.543   7.072  2.4457 -0.3775  0.1610
   79MOL   H49539651   1.958   1.057   7.139  0.2312  1.6795 -1.7750
   79MOL   H49639652   2.081   1.157   7.211  0.3172  0.2513  0.3755
   79MOL   H49739653   2.001   0.911   7.330 -2.1240 -0.1735 -0.1824
   79MOL   H49839654   1.974   0.850   7.555  0.7755  0.6339 -0.5848
   79MOL   H49939655   1.894   1.015   7.726  3.0496 -1.2385 -0.0461
   79MOL   H50039656   1.814   1.234   7.648 -0.6162 -1.5299  0.5597
   79MOL   H50139657   1.836   1.305   7.402  0.7539  0.5125 -0.1318
   79MOL   H50239658   1.808   1.410   6.989 -0.1859 -2.6252 -0.5299
   80MOL     C139659   5.339   1.768   0.484 -0.0541 -0.0580 -0.1708
   80MOL     C239660   5.318   1.753   0.327  1.1728 -0.1663  0.0058
   80MOL     C339661   5.460   1.749   0.267  0.5209  0.4669 -0.6961
   80MOL     C439662   5.248   1.882   0.272 -0.0732  0.0519 -0.0412
   80MOL     O539663   5.282   1.924   0.165  0.0544 -0.5108  0.5420
   80MOL     O639664   5.174   1.944   0.365  0.1680 -0.1834 -0.6655
   80MOL     C739665   5.123   2.072   0.342 -0.0593  0.4170 -0.5340
   80MOL     C839666   4.977   2.082   0.384 -0.2938  0.3490  0.1517
   80MOL     C939667   4.883   2.145   0.300 -0.4103 -1.2252 -0.2657
   80MOL    C1039668   4.746   2.155   0.333 -0.1181 -0.3376 -0.0062
   80MOL    C1139669   4.705   2.109   0.459  0.1021  0.1117  0.1988
   80MOL    C1239670   4.801   2.058   0.551  0.7668 -0.0219  0.1470
   80MOL    C1339671   4.934   2.043   0.511 -0.1369 -0.4766  0.0531
   80MOL    H1439672   5.398   1.856   0.511  0.3469 -0.3243 -0.1652
   80MOL    H1539673   5.250   1.770   0.547  0.0478  1.1422 -0.0467
   80MOL    H1639674   5.454   1.745   0.158 -0.1394 -1.8098 -0.5936
   80MOL    H1739675   5.502   1.656   0.304  1.0881  0.3547 -1.6029
   80MOL    H1839676   5.516   1.837   0.299  2.6526 -0.4491 -1.8305
   80MOL    H1939677   5.167   2.148   0.407 -0.6995  1.7202 -1.6004
   80MOL    H2039678   5.129   2.105   0.239 -1.5425 -0.6016 -0.9661
   80MOL    H2139679   4.910   2.193   0.207  1.7708 -3.0576 -0.6059
   80MOL    H2239680   4.684   2.218   0.270 -0.2225 -0.4663 -0.0322
   80MOL    H2339681   4.604   2.120   0.495  0.1782 -1.3675  0.9240
   80MOL    H2439682   4.766   2.022   0.647 -3.2176  1.8265 -0.5053
   80MOL    H2539683   5.005   2.008   0.585 -2.5020  1.0918  3.1992
   80MOL    H2639684   5.393   1.682   0.522 -0.0521  0.4575  1.0100
   80MOL    C2739685   5.239   1.624   0.284 -0.1873 -0.3933 -0.1665
   80MOL    C2839686   5.102   1.572   0.329 -0.2639 -0.6321 -0.3520
   80MOL    C2939687   5.009   1.691   0.335  0.1389 -0.2131 -0.2005
   80MOL    C3039688   5.110   1.511   0.471 -0.2765 -0.0999  0.1108
   80MOL    O3139689   5.217   1.486   0.527  0.2982 -0.1362 -0.3243
   80MOL    O3239690   4.989   1.476   0.517 -0.1412 -0.1292  0.5985
   80MOL    C3339691   4.973   1.401   0.634 -0.0041  0.4416  0.5779
   80MOL    C3439692   4.973   1.485   0.760 -0.2325  0.4946 -0.1119
   80MOL    C3539693   4.876   1.588   0.764  0.6191  0.4793 -0.3009
   80MOL    C3639694   4.880   1.686   0.865 -0.5859  0.4982  0.4408
   80MOL    C3739695   4.970   1.669   0.976 -0.4983 -0.9284  0.2718
   80MOL    C3839696   5.064   1.561   0.975  0.4741  0.0618 -1.0253
   80MOL    C3939697   5.065   1.471   0.865 -0.8915  0.0745 -0.2145
   80MOL    H4039698   5.312   1.546   0.302  1.9379  1.3693 -0.9172
   80MOL    H4139699   5.228   1.633   0.176  1.1495 -0.2815 -0.2968
   80MOL    H4239700   5.034   1.748   0.245  0.4505 -0.5229 -0.3111
   80MOL    H4339701   5.016   1.758   0.421 -0.6357 -0.9529  0.4442
   80MOL    H4439702   4.905   1.661   0.344 -0.0063  0.2265 -0.3975
   80MOL    H4539703   4.882   1.341   0.630  0.7328 -0.6123 -1.3598
   80MOL    H4639704   5.043   1.318   0.648  0.9346  0.9785 -0.9155
   80MOL    H4739705   4.802   1.601   0.688  0.0747 -2.0056 -0.2612
   80MOL    H4839706   4.811   1.770   0.861  0.3932  1.2258 -4.4562
   80MOL    H4939707   4.973   1.741   1.057  1.5727 -0.1066 -0.5020
   80MOL    H5039708   5.141   1.550   1.050  0.4225  0.7526 -0.8661
   80MOL    H5139709   5.139   1.392   0.866 -1.6921 -0.6758  0.1992
   80MOL    C5239710   5.032   1.469   0.230  0.5091 -0.4468  0.4301
   80MOL    C5339711   5.092   1.337   0.174  0.8305 -0.0086 -0.4083
   80MOL    C5439712   5.167   1.256   0.280 -0.4214 -0.6008  0.2890
   80MOL    C5539713   5.190   1.374   0.062 -0.1510 -0.4291  0.0225
   80MOL    O5639714   5.315   1.376   0.081 -0.2707  0.4610  0.0961
   80MOL    O5739715   5.133   1.407   7.950  0.3319 -0.7452 -0.0696
   80MOL    C5839716   5.195   1.432   7.827 -0.3108  0.1565 -0.4306
   80MOL    C5939717   5.249   1.566   7.819 -0.3910 -0.1312  0.1634
   80MOL    C6039718   5.191   1.677   7.887 -0.1219  0.1021  0.1029
   80MOL    C6139719   5.256   1.800   7.889 -0.2061  0.1180 -0.3936
   80MOL    C6239720   5.379   1.814   7.820 -0.0049  0.6541 -0.8416
   80MOL    C6339721   5.430   1.708   7.747  0.1567 -0.5146  0.5440
   80MOL    C6439722   5.369   1.585   7.741  0.5268 -0.2625  0.3073
   80MOL    H6539723   4.997   1.525   0.144 -2.2267  0.9604  2.3832
   80MOL    H6639724   4.933   1.447   0.268  0.7767 -0.3175  1.2231
   80MOL    H6739725   5.211   1.170   0.230  2.8908  1.7747 -1.1248
   80MOL    H6839726   5.108   1.226   0.367 -1.3853  0.9537  0.1977
   80MOL    H6939727   5.245   1.319   0.325 -1.8230 -0.5899  2.8196
   80MOL    H7039728   5.276   1.360   7.816  0.9837  1.5698 -0.2751
   80MOL    H7139729   5.119   1.408   7.752 -1.8648 -0.2317  1.2461
   80MOL    H7239730   5.091   1.663   7.924 -0.9060  2.3738 -1.1018
   80MOL    H7339731   5.219   1.887   7.941  0.8203 -0.2413  0.9516
   80MOL    H7439732   5.432   1.909   7.820 -0.5342  1.0007  1.7266
   80MOL    H7539733   5.518   1.729   7.688 -0.4758  0.5818 -0.0290
   80MOL    H7639734   5.406   1.506   7.677  2.1895  0.2492  0.6288
   80MOL    C7739735   4.968   1.262   0.115  0.4650  0.4361  0.1566
   80MOL    C7839736   4.971   1.106   0.072 -0.3744 -0.2829 -0.5463
   80MOL    C7939737   4.828   1.086   0.008  0.3805 -0.0204 -0.4293
   80MOL    C8039738   4.964   1.015   0.199 -0.0518  0.0088 -0.3830
   80MOL    O8139739   5.063   0.946   0.225  0.1354 -0.2781 -1.1025
   80MOL    O8239740   4.848   1.019   0.266 -0.3659 -0.2748  0.0376
   80MOL    C8339741   4.830   0.931   0.376 -0.5248  0.8333  0.0592
   80MOL    C8439742   4.790   1.009   0.501 -0.3297  0.2018  0.4449
   80MOL    C8539743   4.881   1.023   0.607  0.7517  0.3020 -0.2520
   80MOL    C8639744   4.834   1.080   0.726 -0.4188 -0.0198  0.0372
   80MOL    C8739745   4.696   1.109   0.738  0.4731  0.0465  0.2913
   80MOL    C8839746   4.606   1.095   0.632 -0.1011  0.1821 -0.4650
   80MOL    C8939747   4.655   1.045   0.512  0.1445  0.4382 -0.1502
   80MOL    H9039748   4.912   1.312   0.036 -0.6859  0.4073  0.9460
   80MOL    H9139749   4.903   1.266   0.202  0.8371  1.2368  0.4051
   80MOL    H9239750   4.813   1.159   7.936  1.2060  0.3100 -0.2880
   80MOL    H9339751   4.757   1.112   0.087  0.3705  0.4412 -0.5898
   80MOL    H9439752   4.792   0.991   7.975 -2.7983  0.9005  0.1402
   80MOL    H9539753   4.754   0.858   0.348 -0.9926  0.4361  2.2423
   80MOL    H9639754   4.918   0.869   0.392 -0.9465  0.1616 -0.2118
   80MOL    H9739755   4.984   0.999   0.587  0.8926  0.1425  0.6414
   80MOL    H9839756   4.908   1.106   0.799  1.1121  0.8852 -1.7997
   80MOL    H9939757   4.655   1.135   0.835  0.5071  2.0569 -0.2207
   80MOL   H10039758   4.502   1.119   0.650 -1.2889 -1.7693 -4.1001
   80MOL   H10139759   4.594   1.003   0.434  0.7094  1.6706 -1.2694
   80MOL   C10239760   5.090   1.073   7.981  0.7741  0.1831 -0.1510
   80MOL   C10339761   5.081   0.954   7.873 -0.1357  0.1343  0.1370
   80MOL   C10439762   4.986   0.989   7.752 -0.1035 -0.2439 -0.4144
   80MOL   C10539763   5.034   0.823   7.948 -0.1119 -0.6014 -0.5542
   80MOL   O10639764   4.926   0.771   7.926  0.1618 -0.0405  0.2673
   80MOL   O10739765   5.128   0.784   0.025 -0.1523 -0.0044  0.1159
   80MOL   C10839766   5.132   0.654   0.081 -0.1815  0.1846 -0.0357
   80MOL   C10939767   5.065   0.642   0.218 -0.6307  0.4532  0.2509
   80MOL   C11039768   4.926   0.636   0.230  0.2339 -0.8628 -0.2823
   80MOL   C11139769   4.856   0.567   0.330 -0.2063 -0.2359  0.0419
   80MOL   C11239770   4.934   0.521   0.431 -0.2631 -0.3569 -0.7747
   80MOL   C11339771   5.070   0.547   0.440 -0.9363 -0.4296  0.0367
   80MOL   C11439772   5.140   0.608   0.330  0.1733  0.3466 -0.5320
   80MOL   H11539773   5.183   1.059   0.029 -0.5117  0.7959  2.2233
   80MOL   H11639774   5.108   1.168   7.932 -0.3426  0.1457 -0.6287
   80MOL   H11739775   4.892   1.033   7.784  0.5933 -0.0447  1.4498
   80MOL   H11839776   4.964   0.904   7.689 -0.5893 -0.0272 -0.5354
   80MOL   H11939777   5.029   1.064   7.686 -1.0874 -0.4996 -1.3583
   80MOL   H12039778   5.075   0.596   0.009  0.2995  2.4621 -2.3096
   80MOL   H12139779   5.232   0.615   0.068 -0.3407 -0.1066 -0.3812
   80MOL   H12239780   4.866   0.683   0.154 -1.3667 -1.9595  0.2838
   80MOL   H12339781   4.748   0.570   0.343 -0.4521 -1.3903 -1.6112
   80MOL   H12439782   4.886   0.467   0.513 -0.1022  1.8833  0.8348
   80MOL   H12539783   5.122   0.524   0.531  1.3033 -0.8852 -1.3117
   80MOL   H12639784   5.247   0.616   0.321  0.6851 -4.2563 -0.0064
   80MOL   C12739785   5.229   0.945   7.819 -0.1230 -0.1621  0.1249
   80MOL   C12839786   5.283   0.856   7.705 -0.1931 -0.0773 -0.3134
   80MOL   C12939787   5.278   0.946   7.571  0.1420 -0.1436  0.3729
   80MOL   C13039788   5.196   0.735   7.673  0.0701 -0.2414 -0.5726
   80MOL   O13139789   5.128   0.731   7.569  0.5992  0.1855 -0.6581
   80MOL   O13239790   5.209   0.634   7.763 -0.2987 -0.2478 -0.6435
   80MOL   C13339791   5.157   0.505   7.739 -0.9104 -0.5076  1.0346
   80MOL   C13439792   5.263   0.412   7.681 -0.7011 -0.5862 -0.0014
   80MOL   C13539793   5.299   0.424   7.543 -0.1347  0.0476  0.1960
   80MOL   C13639794   5.377   0.329   7.484  0.5723  0.7251  0.3277
   80MOL   C13739795   5.417   0.216   7.560 -0.0025  0.2929  0.2578
   80MOL   C13839796   5.379   0.199   7.689 -1.3518  0.0962  0.1192
   80MOL   C13939797   5.297   0.295   7.752  0.5019 -0.2519  0.3737
   80MOL   H14039798   5.287   0.916   7.907 -2.6516  0.0557  1.9492
   80MOL   H14139799   5.259   1.047   7.797 -2.0049  0.9937  2.5457
   80MOL   H14239800   5.305   0.883   7.486 -0.3953  2.0280 -1.4511
   80MOL   H14339801   5.343   1.032   7.561 -1.3724  0.9581 -0.1388
   80MOL   H14439802   5.178   0.986   7.555  0.1625  0.4791  1.7712
   80MOL   H14539803   5.134   0.460   7.836  2.1904  0.0336  2.1080
   80MOL   H14639804   5.073   0.503   7.670 -1.2944  1.7929  1.3791
   80MOL   H14739805   5.275   0.508   7.479  2.1235 -0.4427 -1.3583
   80MOL   H14839806   5.393   0.327   7.377 -2.2743 -0.9496 -0.1082
   80MOL   H14939807   5.473   0.141   7.506  0.4855  0.1655  0.9414
   80MOL   H15039808   5.411   0.104   7.729  0.3001  0.3426 -0.5882
   80MOL   H15139809   5.262   0.294   7.854 -1.5587  0.8885 -0.2938
   80MOL   C15239810   5.433   0.798   7.737 -0.3519  0.2562 -0.4342
   80MOL   C15339811   5.556   0.893   7.734 -0.0169  0.5890 -0.5325
   80MOL   C15439812   5.530   1.028   7.798  0.1498 -0.4235  0.3500
   80MOL   C15539813   5.602   0.922   7.587 -0.9186 -0.0697  0.0371
   80MOL   O15639814   5.546   0.854   7.496 -0.6059 -0.6284 -0.2764
   80MOL   O15739815   5.698   1.011   7.574 -0.1856  0.1571  0.0210
   80MOL   C15839816   5.755   1.032   7.443 -0.2223 -0.2742  0.7396
   80MOL   C15939817   5.902   1.053   7.456  0.6907  0.2824  0.5549
   80MOL   C16039818   5.986   1.051   7.345 -0.1438 -0.7106  0.2514
   80MOL   C16139819   6.127   1.068   7.360  0.3416  0.1247 -0.0725
   80MOL   C16239820   6.173   1.073   7.492 -0.6637 -0.1999  0.2618
   80MOL   C16339821   6.089   1.078   7.604  0.2497  0.3966  0.1759
   80MOL   C16439822   5.953   1.078   7.581 -0.0399 -0.1582 -0.8008
   80MOL   H16539823   5.450   0.714   7.670  0.5583 -0.6405  0.9183
   80MOL   H16639824   5.432   0.760   7.839  1.2432  0.3628 -0.3616
   80MOL   H16739825   5.619   1.090   7.803 -1.0343  1.4391 -0.7134
   80MOL   H16839826   5.488   1.025   7.899  1.8836 -2.3757  1.0291
   80MOL   H16939827   5.467   1.090   7.734  0.1490 -1.9864 -1.2020
   80MOL   H17039828   5.725   0.954   7.373 -1.1786  0.4219  0.3555
   80MOL   H17139829   5.715   1.130   7.416 -3.3640 -2.0192 -1.2321
   80MOL   H17239830   5.951   1.031   7.245  0.8855  2.6005 -0.8391
   80MOL   H17339831   6.192   1.050   7.276 -0.1650 -0.1790 -0.4039
   80MOL   H17439832   6.279   1.080   7.508 -0.4398  0.4406 -1.3999
   80MOL   H17539833   6.131   1.093   7.702 -0.3323  0.7495  0.3726
   80MOL   H17639834   5.900   1.066   7.674  1.2466 -1.1288 -0.1637
   80MOL   C17739835   5.674   0.842   7.824 -0.0058 -0.3116 -0.2947
   80MOL   C17839836   5.743   0.700   7.794  0.4426 -0.4546 -0.6900
   80MOL   C17939837   5.817   0.701   7.654 -0.2422 -0.3027 -0.5824
   80MOL   C18039838   5.649   0.581   7.815 -0.7854  0.5657 -0.1887
   80MOL   O18139839   5.621   0.506   7.723 -0.4928  0.3966 -0.1128
   80MOL   O18239840   5.600   0.580   7.939 -0.1505 -0.0471 -0.2361
   80MOL   C18339841   5.530   0.463   7.977 -0.2901  0.3726  0.2951
   80MOL   C18439842   5.522   0.444   0.114  0.7174  0.1093 -0.0169
   80MOL   C18539843   5.408   0.377   0.170 -0.8889 -0.1094 -0.1563
   80MOL   C18639844   5.394   0.380   0.313 -0.6573  0.7225  0.8156
   80MOL   C18739845   5.493   0.442   0.392 -0.8048  0.7501 -0.2207
   80MOL   C18839846   5.612   0.493   0.330 -1.0442  0.1742  0.0693
   80MOL   C18939847   5.627   0.495   0.196  0.1116 -0.2734 -0.2985
   80MOL   H19039848   5.628   0.838   7.923 -0.5475 -2.2458 -0.5943
   80MOL   H19139849   5.744   0.925   7.824 -1.7646  1.1996 -0.3131
   80MOL   H19239850   5.873   0.610   7.631 -0.4910  0.0598 -2.6477
   80MOL   H19339851   5.873   0.794   7.646  1.3882 -1.2578 -0.4457
   80MOL   H19439852   5.735   0.704   7.582 -1.2648 -1.5553  0.4957
   80MOL   H19539853   5.440   0.456   7.916  0.1326  0.3100 -0.3208
   80MOL   H19639854   5.589   0.381   7.937 -3.9981 -2.0472 -0.5072
   80MOL   H19739855   5.319   0.356   0.113 -0.5968 -0.6968 -0.4035
   80MOL   H19839856   5.314   0.333   0.368 -0.0743 -0.3686  0.7531
   80MOL   H19939857   5.483   0.451   0.499 -0.3713 -1.9868  0.0626
   80MOL   H20039858   5.690   0.530   0.395  0.3763 -0.6661 -1.1321
   80MOL   H20139859   5.715   0.530   0.144  0.9257 -1.4411  0.2777
   80MOL   C20239860   5.858   0.704   7.908  0.5004 -0.3599  0.0356
   80MOL   C20339861   5.974   0.591   7.923  0.1030  0.2309  0.0383
   80MOL   C20439862   6.087   0.640   7.831 -0.1892  0.0081  0.0504
   80MOL   C20539863   5.923   0.449   7.884  0.3901 -0.0564 -0.2136
   80MOL   O20639864   5.856   0.378   7.966  0.7142  0.3310  0.4978
   80MOL   O20739865   5.964   0.415   7.766  0.2387 -0.3708  0.3300
   80MOL   C20839866   5.946   0.278   7.715  0.1053 -0.1644 -0.4026
   80MOL   C20939867   6.070   0.191   7.708 -0.3117  0.3546 -0.4050
   80MOL   C21039868   6.060   0.055   7.733 -0.4061  0.3853 -0.0939
   80MOL   C21139869   6.177   7.981   7.728  0.5261  0.2582 -0.0391
   80MOL   C21239870   6.304   0.032   7.704 -0.1870  0.2076  0.0154
   80MOL   C21339871   6.313   0.171   7.680  0.0709  0.5366  0.0287
   80MOL   C21439872   6.195   0.251   7.679  0.6514 -1.1875 -0.4245
   80MOL   H21539873   5.798   0.704   7.999 -1.0457  1.4652 -0.9528
   80MOL   H21639874   5.912   0.797   7.893 -0.5684  0.1460 -0.7834
   80MOL   H21739875   6.054   0.685   7.738  0.5159  0.2428 -0.0889
   80MOL   H21839876   6.162   0.563   7.813 -0.3901  0.2706 -1.9854
   80MOL   H21939877   6.129   0.727   7.882  0.1131  0.4749 -0.9853
   80MOL   H22039878   5.879   0.231   7.788 -0.5070 -1.1997 -1.6151
   80MOL   H22139879   5.899   0.286   7.617  0.6473  0.9805 -0.5795
   80MOL   H22239880   5.963   0.014   7.757 -0.3903  0.6336  0.4086
   80MOL   H22339881   6.165   7.877   7.757  1.3173  0.3669  0.6999
   80MOL   H22439882   6.387   7.970   7.701  0.3515  0.8652 -0.4390
   80MOL   H22539883   6.402   0.229   7.659  0.7574 -0.5907 -0.1936
   80MOL   H22639884   6.205   0.350   7.638  0.9335 -1.0802 -0.1039
   80MOL   C22739885   6.018   0.589   0.069 -0.1716  0.5215  0.0424
   80MOL   C22839886   6.149   0.533   0.132 -1.3652  0.7125 -0.0227
   80MOL   C22939887   6.264   0.628   0.096 -0.2982 -0.0866  0.2413
   80MOL   C23039888   6.173   0.388   0.075  0.0552 -0.3384  0.3501
   80MOL   O23139889   6.258   0.375   7.987  0.9286 -0.7715  0.5263
   80MOL   O23239890   6.100   0.283   0.135  0.3113  0.2764  0.1995
   80MOL   C23339891   6.120   0.158   0.083 -0.0580  0.0271  0.9112
   80MOL   C23439892   6.238   0.078   0.144  0.8041 -0.4557 -0.5495
   80MOL   C23539893   6.366   0.085   0.087 -0.2393 -0.3343 -0.2283
   80MOL   C23639894   6.475   0.028   0.157  0.0386 -0.3845 -0.1952
   80MOL   C23739895   6.453   7.970   0.283 -0.6704 -0.2786  0.4969
   80MOL   C23839896   6.321   7.955   0.337  0.0408 -0.1755  0.0068
   80MOL   C23939897   6.215   0.014   0.267 -0.0801 -0.0393  0.8852
   80MOL   H24039898   5.940   0.540   0.125 -0.5089  2.2999  1.1614
   80MOL   H24139899   6.015   0.693   0.102  1.2953  1.0056 -1.2353
   80MOL   H24239900   6.353   0.586   0.144 -0.8182 -0.3902  0.9587
   80MOL   H24339901   6.252   0.733   0.125  0.6900  0.6302 -1.8647
   80MOL   H24439902   6.293   0.644   7.999  0.9231  2.6956  0.9392
   80MOL   H24539903   6.031   0.105   0.117  1.0391 -1.2903  1.7638
   80MOL   H24639904   6.129   0.170   7.982 -2.4974  1.0481  0.7800
   80MOL   H24739905   6.384   0.143   8.004  0.2439 -0.1283  0.0002
   80MOL   H24839906   6.577   0.044   0.126  0.7315  0.6305  2.4646
   80MOL   H24939907   6.531   7.931   0.347 -0.6757 -0.7509  0.2207
   80MOL   H25039908   6.310   7.910   0.435  0.4923 -0.7281 -0.1911
   80MOL   H25139909   6.120   0.018   0.319  0.4036  1.7245  1.6751
   80MOL   C25239910   6.127   0.524   0.293 -0.2796 -0.2645 -0.0595
   80MOL   C25339911   6.243   0.495   0.395 -0.7602  0.0023 -1.0611
   80MOL   C25439912   6.344   0.391   0.341 -0.1759  0.1407  0.2778
   80MOL   C25539913   6.180   0.447   0.523 -0.8670  0.7935  0.1153
   80MOL   O25639914   6.114   0.523   0.599 -0.1211  0.1427  0.1423
   80MOL   O25739915   6.191   0.320   0.544 -0.4848  0.3605 -0.0072
   80MOL   C25839916   6.153   0.262   0.668  0.1554  0.4844  0.2682
   80MOL   C25939917   6.215   0.123   0.678  0.5335 -0.8782 -0.2205
   80MOL   C26039918   6.142   0.018   0.739 -0.0870 -0.3683 -0.2277
   80MOL   C26139919   6.194   7.897   0.767  0.1462  0.5164  0.1129
   80MOL   C26239920   6.329   7.873   0.749  0.4413 -0.4624 -0.7498
   80MOL   C26339921   6.409   7.976   0.684 -0.4790 -0.4472 -0.0500
   80MOL   C26439922   6.350   0.094   0.643  0.2570  0.3804  0.6798
   80MOL   H26539923   6.055   0.447   0.320  0.7320 -1.3474 -0.3821
   80MOL   H26639924   6.078   0.613   0.333  2.5878  1.4564 -0.2290
   80MOL   H26739925   6.297   0.296   0.314 -1.6451  0.8602  0.2211
   80MOL   H26839926   6.417   0.367   0.418  2.4152 -0.6228 -2.3505
   80MOL   H26939927   6.408   0.415   0.257  0.7001 -0.9977  0.6048
   80MOL   H27039928   6.192   0.308   0.758  1.1974  0.0261  0.0584
   80MOL   H27139929   6.044   0.266   0.664  0.0472 -0.5497  1.7660
   80MOL   H27239930   6.045   0.036   0.783  0.7857 -0.7633  1.9309
   80MOL   H27339931   6.128   7.827   0.816 -2.5762  3.4893  0.8243
   80MOL   H27439932   6.376   7.778   0.769  0.6048  0.5135  3.8561
   80MOL   H27539933   6.515   7.966   0.667  0.1135  4.0605  0.1789
   80MOL   H27639934   6.411   0.164   0.589  1.0960 -0.6870  0.2226
   80MOL   C27739935   6.320   0.634   0.413 -0.5021  0.3317 -0.5831
   80MOL   C27839936   6.464   0.645   0.477  0.5342  0.2251  0.5626
   80MOL   C27939937   6.580   0.608   0.370  0.3583 -0.3230 -0.0927
   80MOL   C28039938   6.493   0.559   0.605  0.4613 -0.3999  1.0364
   80MOL   O28139939   6.579   0.467   0.612 -0.0569 -0.4680 -0.5790
   80MOL   O28239940   6.418   0.590   0.708  0.0445  0.0848 -0.2715
   80MOL   C28339941   6.445   0.527   0.835  0.0566 -1.0366 -0.0830
   80MOL   C28439942   6.489   0.626   0.941  0.1621 -0.2567  0.1143
   80MOL   C28539943   6.436   0.753   0.930 -0.4098 -0.0619 -0.0553
   80MOL   C28639944   6.466   0.846   1.029  0.3352 -0.0032 -0.0337
   80MOL   C28739945   6.545   0.807   1.145  0.2660  0.6203 -0.3454
   80MOL   C28839946   6.607   0.679   1.148  0.3167 -0.2505 -0.7885
   80MOL   C28939947   6.577   0.589   1.045  0.6397  0.4770 -0.3690
   80MOL   H29039948   6.262   0.695   0.482  1.0212 -0.3827  1.3752
   80MOL   H29139949   6.317   0.693   0.321  2.4556  0.8890 -0.3824
   80MOL   H29239950   6.599   0.502   0.382 -0.4048 -0.6626 -1.7112
   80MOL   H29339951   6.671   0.666   0.384  0.2759 -0.4473  1.0036
   80MOL   H29439952   6.534   0.619   0.272  0.6457 -1.1399 -0.3172
   80MOL   H29539953   6.347   0.489   0.864  0.2239 -1.0054  0.5244
   80MOL   H29639954   6.506   0.437   0.841 -1.7816 -2.2705  0.4589
   80MOL   H29739955   6.369   0.796   0.858  0.2413  2.9277  1.0797
   80MOL   H29839956   6.418   0.942   1.040  2.2601  1.3285 -2.8406
   80MOL   H29939957   6.562   0.866   1.235  0.2226 -0.8301  0.6286
   80MOL   H30039958   6.668   0.657   1.234  0.4741  0.5097 -0.7043
   80MOL   H30139959   6.615   0.489   1.056 -0.2294  0.2578  0.7921
   80MOL   C30239960   6.500   0.795   0.516 -0.1127 -0.3022  0.8265
   80MOL   C30339961   6.466   0.931   0.427 -0.8425 -0.5440 -0.5702
   80MOL   C30439962   6.310   0.960   0.426  0.7972  0.8723  0.2018
   80MOL   C30539963   6.509   0.912   0.277  0.0449  0.3951  0.1233
   80MOL   O30639964   6.436   0.948   0.178  0.1861 -0.0719  0.0254
   80MOL   O30739965   6.631   0.870   0.261 -0.2989  0.1772 -0.7264
   80MOL   C30839966   6.680   0.865   0.128  0.7602  0.7348  0.7393
   80MOL   C30939967   6.783   0.975   0.089 -0.3810  0.2531  0.0347
   80MOL   C31039968   6.842   0.961   7.970 -0.6558  0.2803  0.1327
   80MOL   C31139969   6.929   1.060   7.923  0.4618 -0.0816 -0.9338
   80MOL   C31239970   6.960   1.175   7.995 -0.6884  0.0373  0.1170
   80MOL   C31339971   6.916   1.182   0.126 -0.1324  0.1315 -0.2039
   80MOL   C31439972   6.823   1.085   0.173  0.4143  0.5216  0.1975
   80MOL   H31539973   6.604   0.806   0.544  0.0008  3.7515 -0.7779
   80MOL   H31639974   6.438   0.818   0.603 -2.5073  1.0318 -1.1285
   80MOL   H31739975   6.275   0.945   0.528 -1.0461  1.3427 -0.3270
   80MOL   H31839976   6.239   0.929   0.348  2.0988  1.3097 -1.1856
   80MOL   H31939977   6.295   1.067   0.412 -2.0956  0.4202 -0.6359
   80MOL   H32039978   6.746   0.778   0.126  1.4680  1.2434  1.8118
   80MOL   H32139979   6.601   0.838   0.057  1.3713  0.0374  0.3151
   80MOL   H32239980   6.806   0.881   7.907 -1.3067  0.6289  0.0480
   80MOL   H32339981   6.960   1.053   7.820 -0.2490 -0.0406 -1.1522
   80MOL   H32439982   7.028   1.250   7.959  0.8797 -1.5964 -0.4151
   80MOL   H32539983   6.947   1.263   0.191  0.7359 -0.3345 -0.0362
   80MOL   H32639984   6.777   1.090   0.270  1.4857  0.2973  0.7249
   80MOL   C32739985   6.539   1.062   0.468 -0.0544 -0.3447 -0.5814
   80MOL   C32839986   6.536   1.139   0.613 -0.0072 -0.0386  0.9642
   80MOL   C32939987   6.590   1.046   0.726  0.7423  0.0579 -0.1733
   80MOL   C33039988   6.389   1.199   0.633  0.2393  0.0811  0.1922
   80MOL   O33139989   6.320   1.255   0.546  0.4848  0.4480 -0.0037
   80MOL   O33239990   6.346   1.185   0.760 -0.3211  0.4665 -0.1812
   80MOL   C33339991   6.223   1.234   0.798  0.0229 -0.4995 -0.9537
   80MOL   C33439992   6.169   1.163   0.918  0.1876 -0.1019 -0.6623
   80MOL   C33539993   6.094   1.230   1.018  0.3213 -0.0338 -0.2223
   80MOL   C33639994   6.011   1.161   1.105 -0.3839  0.0774  0.0599
   80MOL   C33739995   6.005   1.024   1.093  0.5747 -0.5727 -0.0221
   80MOL   C33839996   6.081   0.955   1.003  0.2990  0.1741  0.2922
   80MOL   C33939997   6.164   1.025   0.915 -1.0588 -0.1285 -0.6103
   80MOL   H34039998   6.516   1.138   0.394  0.3100  1.0021  0.6673
   80MOL   H34139999   6.646   1.040   0.459  0.1010 -0.9445  2.1364
   80MOL   H34240000   6.694   1.015   0.710  0.3680 -2.4440  1.9346
   80MOL   H34340001   6.525   0.958   0.729  0.3734  0.3163 -0.5551
   80MOL   H34440002   6.576   1.095   0.822 -3.3165  1.0969 -1.1976
   80MOL   H34540003   6.237   1.340   0.820 -0.3460 -0.5405 -0.5106
   80MOL   H34640004   6.147   1.221   0.721  0.0913 -3.4879 -0.5775
   80MOL   H34740005   6.100   1.337   1.030 -0.3582 -0.2534  2.4922
   80MOL   H34840006   5.968   1.218   1.186 -0.6938 -2.9309  2.0713
   80MOL   H34940007   5.941   0.974   1.164  0.3406  0.7770  0.7361
   80MOL   H35040008   6.061   0.849   0.995 -0.3835  0.0619  2.8880
   80MOL   H35140009   6.215   0.965   0.841  0.5497 -0.7273  0.9337
   80MOL   C35240010   6.623   1.266   0.593 -0.5328 -0.2592 -0.4957
   80MOL   C35340011   6.653   1.378   0.703 -0.4359  0.6769  0.3278
   80MOL   C35440012   6.687   1.317   0.845  0.1114 -0.2774  0.6907
   80MOL   C35540013   6.530   1.477   0.722  0.1518  1.0645  0.4525
   80MOL   O35640014   6.477   1.491   0.832 -0.4928 -0.3360 -0.5246
   80MOL   O35740015   6.499   1.541   0.608 -0.0078 -0.2267 -0.8916
   80MOL   C35840016   6.391   1.644   0.618  0.5964 -0.1497  0.1663
   80MOL   C35940017   6.431   1.773   0.674 -1.0006  0.1593  0.1869
   80MOL   C36040018   6.344   1.842   0.764 -0.1006  0.6544  0.0507
   80MOL   C36140019   6.387   1.959   0.826 -0.8814 -0.4263 -0.3275
   80MOL   C36240020   6.515   2.014   0.806 -0.3281  0.6958  0.5287
   80MOL   C36340021   6.604   1.939   0.723 -0.4457  0.1221 -0.0632
   80MOL   C36440022   6.562   1.824   0.651 -0.7805  0.6601 -0.0526
   80MOL   H36540023   6.592   1.323   0.506  1.1200 -0.9102 -1.5446
   80MOL   H36640024   6.719   1.235   0.551 -1.1307 -0.7430 -1.5181
   80MOL   H36740025   6.739   1.382   0.916 -1.2065  1.4409  0.1215
   80MOL   H36840026   6.760   1.236   0.841  0.7493  0.3033  0.3846
   80MOL   H36940027   6.599   1.284   0.900  0.2112  1.0391  1.6478
   80MOL   H37040028   6.354   1.672   0.519 -0.2463  1.8005  1.0241
   80MOL   H37140029   6.305   1.597   0.665  0.1101  0.0597 -0.5116
   80MOL   H37240030   6.245   1.808   0.788 -0.0637  0.2948 -0.2962
   80MOL   H37340031   6.320   2.011   0.893 -0.1887  0.8369 -0.5949
   80MOL   H37440032   6.547   2.106   0.852  1.6281  0.1944  0.2269
   80MOL   H37540033   6.703   1.980   0.704  0.5199 -0.7042  2.9388
   80MOL   H37640034   6.625   1.775   0.579  0.6926  0.6097  1.2277
   80MOL   C37740035   6.771   1.474   0.645  0.2283 -0.4802 -0.7061
   80MOL   C37840036   6.928   1.438   0.647  0.1673 -0.0023 -0.0782
   80MOL   C37940037   6.963   1.295   0.597  0.9994 -0.4285 -0.6524
   80MOL   C38040038   6.975   1.444   0.800 -0.3257  0.9985  0.1875
   80MOL   O38140039   7.030   1.353   0.863 -0.8220  0.6995 -0.7311
   80MOL   O38240040   6.947   1.566   0.846  0.2825 -0.1186  0.2776
   80MOL   C38340041   6.972   1.591   0.986  0.2651  0.3665  0.1753
   80MOL   C38440042   6.887   1.701   1.037  0.7743  0.1955 -0.1697
   80MOL   C38540043   6.750   1.679   1.043 -0.5445 -0.5065  0.4878
   80MOL   C38640044   6.667   1.789   1.087 -0.0164 -0.4214 -0.3642
   80MOL   C38740045   6.726   1.901   1.146 -0.1697  0.2023 -0.3526
   80MOL   C38840046   6.864   1.918   1.143 -0.0071 -0.4469 -0.6381
   80MOL   C38940047   6.949   1.818   1.089  0.1315 -0.0409  0.4139
   80MOL   H39040048   6.769   1.570   0.696 -0.8432  0.9495 -3.3201
   80MOL   H39140049   6.741   1.503   0.544 -0.2363  3.1262  0.4105
   80MOL   H39240050   7.062   1.266   0.629  1.2986 -0.5269 -1.6291
   80MOL   H39340051   6.946   1.276   0.490 -0.2529  0.8078 -0.6884
   80MOL   H39440052   6.904   1.219   0.649 -0.5509 -0.7995 -2.8380
   80MOL   H39540053   6.956   1.499   1.043  0.3516  0.4520  0.3386
   80MOL   H39640054   7.079   1.605   1.002  0.3398 -0.0527  0.0466
   80MOL   H39740055   6.709   1.590   0.998 -0.0816 -0.3294 -0.2961
   80MOL   H39840056   6.561   1.794   1.067 -0.9858 -0.5019  4.1438
   80MOL   H39940057   6.659   1.981   1.173  1.1303  0.4064  2.3779
   80MOL   H40040058   6.910   2.010   1.175 -0.3587 -1.2046  2.1700
   80MOL   H40140059   7.057   1.828   1.090 -0.1576  4.8755 -1.7844
   80MOL   C40240060   7.007   1.546   0.571 -1.0214  0.5831  0.0070
   80MOL   C40340061   7.032   1.545   0.415 -0.0520  0.1201  0.8533
   80MOL   C40440062   6.901   1.516   0.337  0.3836  0.1410 -0.2141
   80MOL   C40540063   7.151   1.451   0.364  0.5144  1.1568 -0.0145
   80MOL   O40640064   7.218   1.393   0.450 -0.0815 -0.0191 -0.3584
   80MOL   O40740065   7.178   1.448   0.234  0.5053  0.0358  0.3014
   80MOL   C40840066   7.281   1.365   0.187  0.3031  0.0468  0.4756
   80MOL   C40940067   7.299   1.378   0.034  0.1090  0.0799 -0.3022
   80MOL   C41040068   7.232   1.471   7.961  0.0131  0.1207 -0.1467
   80MOL   C41140069   7.247   1.473   7.819  0.0765 -0.3803 -0.0495
   80MOL   C41240070   7.336   1.383   7.761  0.6535  0.0807 -0.1407
   80MOL   C41340071   7.401   1.289   7.839 -0.5165 -0.2375 -0.7406
   80MOL   C41440072   7.384   1.281   7.980  0.2758  0.2373 -0.0356
   80MOL   H41540073   7.103   1.564   0.620  0.2513 -0.7423 -1.9236
   80MOL   H41640074   6.956   1.641   0.588 -1.1675  1.0254 -2.7461
   80MOL   H41740075   6.856   1.423   0.372 -0.2021  0.2448 -0.6784
   80MOL   H41840076   6.926   1.517   0.231  1.6228  0.2280  0.0741
   80MOL   H41940077   6.829   1.597   0.351 -0.4438 -0.4727 -0.8729
   80MOL   H42040078   7.377   1.390   0.230  1.1800 -1.4811 -0.5345
   80MOL   H42140079   7.253   1.262   0.210 -1.0167  0.6723  1.8101
   80MOL   H42240080   7.160   1.538   8.006 -1.1943 -0.9199 -0.4993
   80MOL   H42340081   7.199   1.548   7.757  2.0548  0.1808 -0.9237
   80MOL   H42440082   7.366   1.396   7.658  0.6181  1.9327  0.0613
   80MOL   H42540083   7.461   1.214   7.790  1.3798  1.2699 -0.7783
   80MOL   H42640084   7.439   1.200   0.018 -0.6184 -0.7021 -0.5965
   80MOL   C42740085   7.070   1.689   0.364 -0.2446 -0.0079  0.3284
   80MOL   C42840086   7.189   1.783   0.418 -0.1743  0.1355 -0.7944
   80MOL   C42940087   7.329   1.724   0.373 -0.6697  0.3011  0.3812
   80MOL   C43040088   7.190   1.807   0.575 -0.0446 -0.7970  0.0929
   80MOL   O43140089   7.289   1.798   0.645 -0.4112 -0.0239 -0.6412
   80MOL   O43240090   7.069   1.850   0.623  0.2814 -0.1498  0.1958
   80MOL   C43340091   7.046   1.867   0.761 -0.3232 -0.8277  0.0652
   80MOL   C43440092   7.106   2.000   0.806 -0.1148 -0.2904  0.0972
   80MOL   C43540093   7.231   2.010   0.869  0.7618  0.0383 -0.3706
   80MOL   C43640094   7.276   2.128   0.920 -0.4377  0.1321  0.0828
   80MOL   C43740095   7.210   2.250   0.898 -0.1275  0.5215  0.0009
   80MOL   C43840096   7.087   2.246   0.823 -0.4558  0.1403  0.1744
   80MOL   C43940097   7.031   2.124   0.776 -0.6594  0.2549 -0.1859
   80MOL   H44040098   6.978   1.747   0.377 -0.5013 -0.7372  1.8024
   80MOL   H44140099   7.086   1.682   0.256  1.8107  0.1569  0.6094
   80MOL   H44240100   7.349   1.635   0.433  1.6558 -0.8028 -1.9309
   80MOL   H44340101   7.416   1.781   0.407  0.0064 -0.7589  0.4209
   80MOL   H44440102   7.337   1.701   0.267  0.2103 -0.4380  0.6081
   80MOL   H44540103   6.939   1.873   0.785 -0.7659  0.7086 -2.0956
   80MOL   H44640104   7.094   1.789   0.820  2.4570  1.4422  0.9388
   80MOL   H44740105   7.281   1.918   0.896 -0.8423 -0.4051  1.2047
   80MOL   H44840106   7.361   2.123   0.987  0.3903  0.4031 -0.9440
   80MOL   H44940107   7.243   2.344   0.940  2.0717 -1.9755  4.1107
   80MOL   H45040108   7.039   2.340   0.799  1.9303  0.9722 -1.5645
   80MOL   H45140109   6.945   2.133   0.711 -2.2470  0.5997  1.9162
   80MOL   C45240110   7.164   1.922   0.346  0.1121 -0.1316  0.4394
   80MOL   C45340111   7.264   2.043   0.332 -0.1204 -0.0200  0.0653
   80MOL   C45440112   7.184   2.162   0.280  0.0302  0.0523  0.6979
   80MOL   C45540113   7.381   2.014   0.232  0.2641  0.0994  0.4801
   80MOL   O45640114   7.499   2.002   0.262  0.6195 -0.0714 -0.6265
   80MOL   O45740115   7.332   2.016   0.105  0.1192 -0.2546 -0.4859
   80MOL   C45840116   7.404   1.958   8.003  0.4136 -0.7369 -0.5894
   80MOL   C45940117   7.330   1.957   7.871 -0.2812 -0.2361  0.6956
   80MOL   C46040118   7.257   2.072   7.837 -0.5600 -0.3966 -0.1835
   80MOL   C46140119   7.173   2.073   7.725  0.3821  0.6004  0.4264
   80MOL   C46240120   7.171   1.958   7.640 -1.1568 -0.0536  0.1442
   80MOL   C46340121   7.231   1.840   7.674 -0.1150  0.0880  0.8840
   80MOL   C46440122   7.320   1.843   7.781 -0.6607 -0.7200  0.0119
   80MOL   H46540123   7.075   1.971   0.384  0.5616  2.2533 -1.4524
   80MOL   H46640124   7.136   1.895   0.245  1.7494  2.2631 -0.7266
   80MOL   H46740125   7.243   2.253   0.269  1.2141 -0.7011  0.7324
   80MOL   H46840126   7.106   2.180   0.354 -2.6477 -0.0479 -1.9971
   80MOL   H46940127   7.136   2.155   0.183 -0.8024  2.0926  0.9504
   80MOL   H47040128   7.504   1.998   7.987 -0.1741  1.2301  0.5447
   80MOL   H47140129   7.415   1.852   0.019 -2.5977 -0.5827  1.8408
   80MOL   H47240130   7.244   2.154   7.906 -2.3297 -1.7553  1.1423
   80MOL   H47340131   7.124   2.164   7.694 -0.3930 -0.2638 -0.9354
   80MOL   H47440132   7.110   1.968   7.552  1.1177  0.9847 -1.3572
   80MOL   H47540133   7.230   1.751   7.613  1.9541  1.0422 -0.5775
   80MOL   H47640134   7.360   1.747   7.810 -0.0689 -0.6035 -0.4178
   80MOL   C47740135   7.314   2.084   0.472  0.4718  0.2684  0.3671
   80MOL   C47840136   7.418   2.206   0.489 -0.0158  0.0853 -0.5305
   80MOL   C47940137   7.514   2.190   0.612  0.3276 -0.7165  0.9398
   80MOL   C48040138   7.348   2.340   0.503  0.2627  0.7961 -0.5162
   80MOL   O48140139   7.231   2.358   0.528 -0.1531  0.4449 -0.3828
   80MOL   O48240140   7.437   2.435   0.485  0.1548 -0.0969 -0.1805
   80MOL   C48340141   7.386   2.566   0.452 -0.1701  0.4538 -0.0852
   80MOL   C48440142   7.363   2.668   0.567  0.1275 -0.1533 -0.3948
   80MOL   C48540143   7.290   2.642   0.682  0.7222  0.7227  0.1026
   80MOL   C48640144   7.280   2.729   0.792 -0.3495  0.0975  0.7587
   80MOL   C48740145   7.349   2.852   0.784  0.1957  0.4639  0.5203
   80MOL   C48840146   7.421   2.879   0.672  0.1659 -0.0725  0.5746
   80MOL   C48940147   7.435   2.786   0.564  0.3821  0.1562  0.7444
   80MOL   H49040148   7.360   1.993   0.512 -0.3423 -0.7956 -1.0670
   80MOL   H49140149   7.233   2.100   0.543 -0.0367  2.1195 -0.6071
   80MOL   H49240150   7.577   2.102   0.598  0.1695 -0.6688 -0.0856
   80MOL   H49340151   7.447   2.173   0.696  0.1365 -2.2746  0.4771
   80MOL   H49440152   7.565   2.286   0.623 -0.1714  0.1228 -3.4847
   80MOL   H49540153   7.465   2.617   0.397 -2.2750  2.4441 -1.3353
   80MOL   H49640154   7.315   2.573   0.370 -0.9441 -0.0867  0.5316
   80MOL   H49740155   7.235   2.549   0.686 -1.1911  1.7947 -0.5452
   80MOL   H49840156   7.234   2.705   0.887 -1.5172  0.0754  0.2000
   80MOL   H49940157   7.329   2.920   0.866  0.0812  0.6595  0.3323
   80MOL   H50040158   7.474   2.973   0.672  1.2243 -0.6513 -2.2592
   80MOL   H50140159   7.494   2.811   0.477 -1.4412 -0.8598 -0.8182
   80MOL   H50240160   7.480   2.221   0.400  0.4554  3.3535  0.2785
   81MOL     C140161   3.137   4.033   5.575  0.0626  0.0775 -0.2793
   81MOL     C240162   3.129   4.145   5.464  0.3995 -0.4095  0.2631
   81MOL     C340163   3.271   4.141   5.407 -0.6938 -0.3781 -0.6544
   81MOL     C440164   3.098   4.279   5.527  0.6716  0.0997 -0.0283
   81MOL     O540165   3.070   4.292   5.646 -0.4013  0.2764  0.1685
   81MOL     O640166   3.110   4.378   5.435 -0.5882  0.6858 -0.5115
   81MOL     C740167   3.087   4.512   5.468 -0.4329  0.5984 -0.3759
   81MOL     C840168   3.209   4.593   5.495  0.2395  0.1140 -0.6665
   81MOL     C940169   3.278   4.575   5.614 -0.6332 -0.3570  0.1021
   81MOL    C1040170   3.391   4.660   5.645 -0.0329  0.8289 -0.0342
   81MOL    C1140171   3.436   4.754   5.557  0.1965  0.0841 -0.0119
   81MOL    C1240172   3.371   4.769   5.437 -0.4016 -0.1913 -0.0927
   81MOL    C1340173   3.257   4.693   5.407 -0.1263  0.2008 -0.6367
   81MOL    H1440174   3.056   4.030   5.647  0.1508  2.4133 -0.0518
   81MOL    H1540175   3.136   3.935   5.526  0.9734 -0.3800  0.6081
   81MOL    H1640176   3.340   4.198   5.469 -1.2276  1.0319 -1.3269
   81MOL    H1740177   3.278   4.184   5.308  0.5482 -0.6529 -0.6988
   81MOL    H1840178   3.302   4.038   5.392  0.5142 -0.2149  0.6264
   81MOL    H1940179   3.047   4.573   5.387  0.6344 -0.7821 -1.9562
   81MOL    H2040180   3.014   4.523   5.548  0.3321  0.1146  0.3990
   81MOL    H2140181   3.244   4.494   5.677 -0.3714 -2.0131 -1.8281
   81MOL    H2240182   3.424   4.644   5.747  0.4703 -2.5278 -0.6781
   81MOL    H2340183   3.514   4.825   5.583  0.3859 -0.0322 -0.2614
   81MOL    H2440184   3.405   4.840   5.363 -1.6262 -1.0745 -1.5339
   81MOL    H2540185   3.193   4.711   5.321 -0.6742 -0.0172 -0.2790
   81MOL    H2640186   3.228   4.037   5.634  0.0614  1.0038 -0.3345
   81MOL    C2740187   3.029   4.101   5.351 -0.6165 -0.2110  0.6257
   81MOL    C2840188   2.880   4.071   5.366  0.4234  0.1816  0.0808
   81MOL    C2940189   2.834   4.056   5.215  0.5044 -0.0735  0.5200
   81MOL    C3040190   2.802   4.192   5.425 -0.3954  0.5669  0.2470
   81MOL    O3140191   2.762   4.294   5.363  0.8198 -0.5457 -0.2866
   81MOL    O3240192   2.785   4.178   5.559  0.0512 -0.4171  0.4867
   81MOL    C3340193   2.725   4.289   5.630  0.2473  0.3209  0.5552
   81MOL    C3440194   2.719   4.273   5.778 -0.2350 -0.7100 -0.3131
   81MOL    C3540195   2.820   4.200   5.853 -0.5585 -0.3002 -0.0539
   81MOL    C3640196   2.809   4.183   5.990  0.5322  0.6317 -0.1310
   81MOL    C3740197   2.691   4.223   6.053 -0.5603 -1.0924  0.8302
   81MOL    C3840198   2.594   4.299   5.985 -1.0787  0.2854  0.2360
   81MOL    C3940199   2.600   4.311   5.843  0.1021  0.0176 -0.2713
   81MOL    H4040200   3.081   4.016   5.306 -0.7712  0.3614 -0.6611
   81MOL    H4140201   3.023   4.186   5.283 -0.0752 -1.1784 -0.6813
   81MOL    H4240202   2.887   3.970   5.176 -1.5709 -0.6734 -1.0611
   81MOL    H4340203   2.859   4.142   5.153  0.4209 -1.3089 -1.2651
   81MOL    H4440204   2.726   4.040   5.208  0.3964  0.2319  1.3269
   81MOL    H4540205   2.776   4.379   5.597 -0.8324  1.1320  1.0781
   81MOL    H4640206   2.626   4.288   5.584  0.1869 -2.9937  0.5924
   81MOL    H4740207   2.907   4.170   5.798 -0.3324 -0.5367  0.4299
   81MOL    H4840208   2.884   4.132   6.048 -1.1769 -1.4526  0.3385
   81MOL    H4940209   2.674   4.218   6.160 -0.4726  0.0762  0.9105
   81MOL    H5040210   2.519   4.339   6.051 -0.0066  0.6126  1.2625
   81MOL    H5140211   2.511   4.352   5.799  0.1453 -0.6128 -0.9695
   81MOL    C5240212   2.854   3.931   5.447 -1.0505 -0.3205  1.2057
   81MOL    C5340213   2.726   3.834   5.439 -0.5998 -0.0389  0.4813
   81MOL    C5440214   2.594   3.919   5.450 -0.2790  0.3922 -0.4493
   81MOL    C5540215   2.747   3.734   5.560  0.1737 -0.5817 -0.2291
   81MOL    O5640216   2.858   3.699   5.602 -0.1000 -0.4537 -0.6748
   81MOL    O5740217   2.636   3.688   5.619 -0.1091 -0.5292  0.1323
   81MOL    C5840218   2.648   3.623   5.749  0.3636 -0.4332  0.1780
   81MOL    C5940219   2.603   3.712   5.866 -0.7801 -0.0719 -0.2570
   81MOL    C6040220   2.686   3.809   5.923  0.0857  0.0552  0.7127
   81MOL    C6140221   2.654   3.872   6.042  0.0137 -0.0391  0.8770
   81MOL    C6240222   2.529   3.844   6.112  0.7114  0.1079 -0.0206
   81MOL    C6340223   2.444   3.745   6.059  0.8002  0.6797  0.2461
   81MOL    C6440224   2.485   3.679   5.936 -0.1850 -0.7726  0.3119
   81MOL    H6540225   2.886   3.952   5.549  1.0068 -1.1857  0.7795
   81MOL    H6640226   2.940   3.871   5.415  0.3378  1.0786  2.2237
   81MOL    H6740227   2.511   3.848   5.445  1.0161 -1.0794 -1.6500
   81MOL    H6840228   2.589   3.992   5.369 -0.1262  0.2459 -0.5909
   81MOL    H6940229   2.588   3.972   5.545 -3.8780 -0.3901 -0.1930
   81MOL    H7040230   2.575   3.542   5.753 -0.3149  0.1650  0.0851
   81MOL    H7140231   2.739   3.565   5.767  3.2092  2.8804 -2.8404
   81MOL    H7240232   2.780   3.834   5.877  0.9026  1.5756  3.1168
   81MOL    H7340233   2.723   3.948   6.074  1.1061 -0.3571 -0.6754
   81MOL    H7440234   2.511   3.906   6.198 -0.5144 -0.6088  0.2542
   81MOL    H7540235   2.350   3.742   6.112  0.1885 -0.4071 -0.8853
   81MOL    H7640236   2.430   3.597   5.891  1.4454 -1.5436 -0.3357
   81MOL    C7740237   2.724   3.758   5.293  0.2655 -0.1549 -0.9460
   81MOL    C7840238   2.704   3.597   5.267 -0.3790 -0.1630  0.6908
   81MOL    C7940239   2.707   3.578   5.116 -0.1699  0.5943 -0.4340
   81MOL    C8040240   2.561   3.547   5.317  0.1316 -1.0167  0.1989
   81MOL    O8140241   2.549   3.456   5.402 -0.3573 -0.1790 -0.2622
   81MOL    O8240242   2.462   3.632   5.275 -0.3903 -0.0047  0.0169
   81MOL    C8340243   2.328   3.599   5.320  0.2397 -0.6580  0.4451
   81MOL    C8440244   2.221   3.709   5.274 -0.7526  0.6476 -0.5653
   81MOL    C8540245   2.088   3.671   5.256  0.1436 -0.0095  0.3874
   81MOL    C8640246   1.991   3.760   5.202 -0.3461  0.6485  0.2980
   81MOL    C8740247   2.028   3.895   5.177  0.1356 -0.4449 -0.0688
   81MOL    C8840248   2.166   3.931   5.195  0.2336 -0.1250 -0.0216
   81MOL    C8940249   2.259   3.837   5.234  0.0927 -0.4454  0.2354
   81MOL    H9040250   2.818   3.789   5.247  0.3192 -1.4331 -1.7126
   81MOL    H9140251   2.648   3.814   5.238 -2.4436 -0.6862  2.0768
   81MOL    H9240252   2.630   3.643   5.075  0.4541  2.1059  0.7387
   81MOL    H9340253   2.674   3.480   5.081 -0.1932  0.5873 -0.3935
   81MOL    H9440254   2.806   3.607   5.081  0.4841  0.1332  0.9746
   81MOL    H9540255   2.297   3.498   5.293 -2.6921 -0.0899  1.4213
   81MOL    H9640256   2.331   3.605   5.429  2.8124  4.8333  0.2533
   81MOL    H9740257   2.053   3.569   5.264 -0.1153 -0.0037 -0.5990
   81MOL    H9840258   1.889   3.729   5.183  0.3674 -1.4598 -0.1850
   81MOL    H9940259   1.959   3.967   5.136  1.0559  0.4728 -0.0554
   81MOL   H10040260   2.198   4.032   5.172 -1.5502  0.6598  0.8354
   81MOL   H10140261   2.362   3.867   5.231 -0.3605  1.2496  0.7233
   81MOL   C10240262   2.815   3.499   5.328 -0.6004  1.3743 -0.4902
   81MOL   C10340263   2.975   3.491   5.280 -0.1373  0.4666  0.2985
   81MOL   C10440264   3.037   3.630   5.266  0.4332 -0.0823 -0.1776
   81MOL   C10540265   2.990   3.419   5.146  0.1512 -0.0450  0.3665
   81MOL   O10640266   3.059   3.453   5.050 -0.4938  0.0497 -0.1221
   81MOL   O10740267   2.912   3.301   5.135  0.5287  0.4463  0.3893
   81MOL   C10840268   2.930   3.222   5.016 -0.3472 -0.7895 -0.1784
   81MOL   C10940269   2.880   3.079   5.029 -0.1722  0.5186 -0.5962
   81MOL   C11040270   2.844   3.031   5.155 -0.1238  0.5585  0.0827
   81MOL   C11140271   2.803   2.894   5.165 -0.6298  0.1172  0.1928
   81MOL   C11240272   2.793   2.812   5.048  0.1764  0.2608 -0.5111
   81MOL   C11340273   2.846   2.860   4.929 -0.0198 -0.4788  0.1375
   81MOL   C11440274   2.891   2.994   4.917 -0.0683  0.3367 -0.0422
   81MOL   H11540275   2.782   3.395   5.323  0.4337  1.0511 -0.7169
   81MOL   H11640276   2.829   3.529   5.432  0.7995 -0.9845  0.0378
   81MOL   H11740277   3.144   3.630   5.249  0.2652  1.8934 -1.4385
   81MOL   H11840278   3.024   3.684   5.359 -0.6677  1.2153 -1.0663
   81MOL   H11940279   2.994   3.676   5.177  0.0053  1.5117  0.8390
   81MOL   H12040280   2.886   3.271   4.929  1.2932 -1.4764 -1.4414
   81MOL   H12140281   3.039   3.224   5.007 -0.5489  0.9056 -2.7001
   81MOL   H12240282   2.840   3.087   5.247 -0.7713  2.4440 -1.0661
   81MOL   H12340283   2.786   2.856   5.265 -0.5855 -0.6412 -0.0793
   81MOL   H12440284   2.761   2.709   5.056 -0.4321  0.4315 -0.7060
   81MOL   H12540285   2.850   2.801   4.839  0.7882  1.1151 -0.9116
   81MOL   H12640286   2.934   3.019   4.821 -2.6010  0.8055 -1.0891
   81MOL   C12740287   3.059   3.412   5.395 -0.6444  0.3528  0.0948
   81MOL   C12840288   3.206   3.423   5.442  0.0916  0.6513 -0.5499
   81MOL   C12940289   3.224   3.565   5.503  0.8337 -0.5967 -0.2012
   81MOL   C13040290   3.296   3.406   5.316 -0.3328  0.3341 -0.1633
   81MOL   O13140291   3.370   3.499   5.286 -0.0597 -0.1744  0.3591
   81MOL   O13240292   3.288   3.290   5.258  0.1193 -0.4732 -0.0968
   81MOL   C13340293   3.347   3.258   5.131 -0.5038  1.0334  0.9230
   81MOL   C13440294   3.320   3.116   5.086  0.1613 -0.3401 -0.8328
   81MOL   C13540295   3.242   3.035   5.164  0.4045  0.0470  0.0452
   81MOL   C13640296   3.212   2.911   5.110  0.4169 -0.5496  0.1564
   81MOL   C13740297   3.263   2.863   4.989 -0.4352 -0.3159  0.1233
   81MOL   C13840298   3.345   2.944   4.912 -0.2859 -0.2470 -0.4037
   81MOL   C13940299   3.375   3.073   4.962  0.1805 -0.5462  0.4256
   81MOL   H14040300   3.058   3.310   5.356 -0.4091 -0.2372  1.5690
   81MOL   H14140301   3.005   3.412   5.490  1.5149  3.5666  1.4225
   81MOL   H14240302   3.228   3.645   5.430  0.1345  1.4388  1.8994
   81MOL   H14340303   3.309   3.574   5.570 -2.0664 -1.1497  3.7485
   81MOL   H14440304   3.144   3.596   5.571 -0.7158 -1.1680 -1.7438
   81MOL   H14540305   3.309   3.322   5.052  1.9177 -0.5175 -1.5850
   81MOL   H14640306   3.453   3.279   5.120 -0.3070 -0.5379 -0.2793
   81MOL   H14740307   3.198   3.059   5.260  0.8479 -0.9760  0.5102
   81MOL   H14840308   3.141   2.854   5.168 -0.2401 -1.8389 -1.8674
   81MOL   H14940309   3.249   2.758   4.970  0.5002 -0.6773  1.4169
   81MOL   H15040310   3.381   2.916   4.814 -2.1393 -2.5532 -0.4779
   81MOL   H15140311   3.423   3.152   4.906 -1.1346 -0.8728 -1.2048
   81MOL   C15240312   3.230   3.320   5.563 -0.0775 -0.1512 -0.5045
   81MOL   C15340313   3.366   3.262   5.620  0.2086  0.1791 -0.2262
   81MOL   C15440314   3.461   3.385   5.647  0.0463  0.2315  0.3365
   81MOL   C15540315   3.431   3.160   5.525 -0.0617  0.3944 -0.5050
   81MOL   O15640316   3.392   3.042   5.531 -0.8775 -0.0549  0.2662
   81MOL   O15740317   3.519   3.193   5.438 -0.8380 -0.6342 -0.0249
   81MOL   C15840318   3.595   3.100   5.353 -0.0915  0.0924  0.4061
   81MOL   C15940319   3.695   3.019   5.436 -0.1505  1.1482 -0.4072
   81MOL   C16040320   3.704   2.881   5.422 -0.3035  0.0565  0.3982
   81MOL   C16140321   3.785   2.809   5.513 -0.5454 -0.0276 -0.9521
   81MOL   C16240322   3.852   2.877   5.616 -0.7169 -0.2986  0.3373
   81MOL   C16340323   3.844   3.019   5.630 -0.5001  0.4201  0.7079
   81MOL   C16440324   3.774   3.088   5.534  0.2152  0.1808 -0.7441
   81MOL   H16540325   3.170   3.233   5.536 -1.1103 -0.1417  1.6817
   81MOL   H16640326   3.175   3.367   5.644  0.7854 -0.7167  0.4141
   81MOL   H16740327   3.429   3.445   5.732  1.1272  1.6691 -0.2617
   81MOL   H16840328   3.474   3.445   5.558 -1.7214  0.2683  0.0995
   81MOL   H16940329   3.562   3.348   5.666 -0.0411 -0.4132 -0.4136
   81MOL   H17040330   3.534   3.025   5.302 -0.9303  2.9150 -2.9531
   81MOL   H17140331   3.654   3.160   5.284 -1.3326 -0.9598 -1.6285
   81MOL   H17240332   3.646   2.824   5.351 -2.9678  1.8442  1.0896
   81MOL   H17340333   3.807   2.703   5.502 -0.8550 -0.2568  0.5625
   81MOL   H17440334   3.901   2.812   5.688  0.0211  0.4521  0.5199
   81MOL   H17540335   3.891   3.079   5.706 -2.1378  0.1216  1.9831
   81MOL   H17640336   3.770   3.196   5.538 -1.3668  0.1361 -0.8456
   81MOL   C17740337   3.327   3.188   5.753  0.2455 -0.9953 -0.4984
   81MOL   C17840338   3.439   3.148   5.863  0.0911 -0.0879 -0.3438
   81MOL   C17940339   3.551   3.070   5.801  0.0796  0.6548  0.2080
   81MOL   C18040340   3.361   3.051   5.963  0.1457  0.4364  0.3345
   81MOL   O18140341   3.240   3.055   5.976 -0.7229 -0.0494 -0.0099
   81MOL   O18240342   3.430   2.959   6.015 -0.3140 -0.7658  0.6688
   81MOL   C18340343   3.376   2.868   6.107  0.5250  0.0612  0.3495
   81MOL   C18440344   3.488   2.771   6.153  0.0201 -0.5437  0.2141
   81MOL   C18540345   3.550   2.784   6.281  0.8553  0.3230 -0.1953
   81MOL   C18640346   3.652   2.693   6.319  0.1198  0.1118  0.2185
   81MOL   C18740347   3.681   2.580   6.237  0.3771  0.2949  0.2616
   81MOL   C18840348   3.620   2.568   6.108  1.1044  0.6316  0.2237
   81MOL   C18940349   3.524   2.669   6.067 -0.0284 -0.2621  0.5083
   81MOL   H19040350   3.258   3.106   5.730 -0.3402 -1.3182  2.2494
   81MOL   H19140351   3.261   3.259   5.804  1.3482  1.0346 -1.8223
   81MOL   H19240352   3.511   2.990   5.740  0.1316  1.1549 -0.4869
   81MOL   H19340353   3.622   3.029   5.873  2.1742  2.8673 -0.5026
   81MOL   H19440354   3.601   3.142   5.735 -1.3602  1.4109 -0.0679
   81MOL   H19540355   3.336   2.925   6.190 -2.9327 -0.8513 -0.6156
   81MOL   H19640356   3.287   2.812   6.077  0.9507 -1.1234  1.2545
   81MOL   H19740357   3.510   2.861   6.345  0.9851 -1.1631  1.7596
   81MOL   H19840358   3.691   2.693   6.420  1.4000  0.2606 -0.2697
   81MOL   H19940359   3.751   2.510   6.279  0.6281  0.9401  0.9290
   81MOL   H20040360   3.649   2.483   6.048  0.2571  0.0816  0.5977
   81MOL   H20140361   3.475   2.645   5.973 -2.8550 -1.1603  2.1507
   81MOL   C20240362   3.490   3.272   5.942  0.6124 -0.4647 -0.2955
   81MOL   C20340363   3.550   3.276   6.087  0.0021 -0.8088  0.3992
   81MOL   C20440364   3.663   3.169   6.115 -0.0109  0.3936  0.2242
   81MOL   C20540365   3.436   3.254   6.183  0.0165 -0.1080 -0.7498
   81MOL   O20640366   3.443   3.166   6.269 -0.6880 -0.0748  0.3378
   81MOL   O20740367   3.336   3.343   6.161 -0.9875  0.4327 -0.4183
   81MOL   C20840368   3.217   3.340   6.238 -0.3926 -0.3229 -0.0017
   81MOL   C20940369   3.089   3.386   6.173 -0.1061 -0.5681 -0.1246
   81MOL   C21040370   3.023   3.493   6.221 -0.3292 -0.3606  0.3840
   81MOL   C21140371   2.901   3.534   6.170  0.9222 -0.5938 -0.4387
   81MOL   C21240372   2.847   3.467   6.056 -0.6817 -0.2135 -0.8474
   81MOL   C21340373   2.919   3.357   6.003 -0.1268  0.2228 -0.1683
   81MOL   C21440374   3.040   3.323   6.059 -0.3913  0.2027  0.4458
   81MOL   H21540375   3.419   3.354   5.939  0.9766 -0.1353 -0.0006
   81MOL   H21640376   3.575   3.305   5.882  1.7996 -0.4039  1.3715
   81MOL   H21740377   3.728   3.165   6.027 -0.8267 -0.0801 -0.3589
   81MOL   H21840378   3.619   3.070   6.122 -1.5330  1.0341 -0.2582
   81MOL   H21940379   3.701   3.193   6.215 -1.0436  1.6027  0.3363
   81MOL   H22040380   3.196   3.237   6.269  0.1006 -0.2403  0.6062
   81MOL   H22140381   3.234   3.401   6.326  0.8408 -0.2270 -0.3036
   81MOL   H22240382   3.065   3.553   6.300  0.8325 -1.0742  0.3175
   81MOL   H22340383   2.868   3.631   6.205  1.0516 -0.8719  0.4710
   81MOL   H22440384   2.758   3.500   6.004 -1.9634 -0.8507  0.9258
   81MOL   H22540385   2.885   3.308   5.912 -1.0998 -0.6464  0.6477
   81MOL   H22640386   3.083   3.229   6.027  0.7351  1.7431 -2.8041
   81MOL   C22740387   3.615   3.416   6.118  0.0073 -0.9157 -0.0962
   81MOL   C22840388   3.614   3.492   6.257  0.4713 -0.3550 -0.0468
   81MOL   C22940389   3.652   3.409   6.382 -0.7054 -0.4057 -0.2718
   81MOL   C23040390   3.475   3.561   6.282 -0.2199 -0.0281  0.3234
   81MOL   O23140391   3.426   3.560   6.392 -0.0241 -0.3023 -0.3535
   81MOL   O23240392   3.424   3.627   6.174 -0.3172  0.0403 -0.3388
   81MOL   C23340393   3.315   3.722   6.182 -0.0297  0.1000  0.0513
   81MOL   C23440394   3.238   3.729   6.053  0.6009 -0.7002 -0.6859
   81MOL   C23540395   3.191   3.858   6.008  0.1510 -0.4921 -0.6191
   81MOL   C23640396   3.130   3.868   5.884 -0.1812 -0.3458  0.5150
   81MOL   C23740397   3.111   3.750   5.805  0.2873  0.5207  0.2128
   81MOL   C23840398   3.161   3.626   5.845 -0.0169  0.9246 -0.1277
   81MOL   C23940399   3.229   3.617   5.967 -0.5238 -0.7732  0.1250
   81MOL   H24040400   3.585   3.490   6.044  0.9697 -0.3101  0.1209
   81MOL   H24140401   3.719   3.393   6.096  0.4983  1.8356 -0.8155
   81MOL   H24240402   3.752   3.368   6.364 -1.4109 -1.9476 -0.7254
   81MOL   H24340403   3.581   3.328   6.395 -1.2422 -0.1487 -1.5726
   81MOL   H24440404   3.646   3.473   6.470 -1.6222 -0.4024 -0.3305
   81MOL   H24540405   3.245   3.681   6.255  0.8469 -0.5187  0.5479
   81MOL   H24640406   3.348   3.822   6.207 -0.5381  0.7119 -1.6377
   81MOL   H24740407   3.209   3.954   6.054 -2.0468 -0.7625  0.8585
   81MOL   H24840408   3.094   3.964   5.851  1.3159  0.2119  0.4436
   81MOL   H24940409   3.062   3.763   5.710  0.1899  1.1431  0.3435
   81MOL   H25040410   3.140   3.531   5.798 -1.8221 -0.0015  2.4583
   81MOL   H25140411   3.256   3.519   6.003  0.8261 -2.0410 -4.1652
   81MOL   C25240412   3.725   3.605   6.228  0.2874 -0.1775 -0.6368
   81MOL   C25340413   3.796   3.702   6.331  0.3725 -0.2004 -0.4380
   81MOL   C25440414   3.892   3.614   6.412  0.0171  0.2181  0.2794
   81MOL   C25540415   3.680   3.774   6.409  0.6322  0.2635 -0.1761
   81MOL   O25640416   3.593   3.829   6.347  0.0780  0.1013  0.2591
   81MOL   O25740417   3.704   3.781   6.539  0.3330 -0.2688 -0.3640
   81MOL   C25840418   3.612   3.848   6.625 -0.4349  0.4156  0.3441
   81MOL   C25940419   3.676   3.960   6.700 -0.2881  0.3506  0.8347
   81MOL   C26040420   3.636   4.090   6.665 -0.1719 -0.1466 -0.3768
   81MOL   C26140421   3.689   4.197   6.736 -0.2304  0.5893 -0.0888
   81MOL   C26240422   3.786   4.172   6.830  0.1869  0.5235 -0.2476
   81MOL   C26340423   3.838   4.048   6.858 -0.0849  0.0373 -0.1160
   81MOL   C26440424   3.780   3.937   6.792 -0.0479  0.0334 -0.0405
   81MOL   H26540425   3.679   3.673   6.156  1.9045  0.3303 -1.2078
   81MOL   H26640426   3.810   3.556   6.181  1.5768 -0.5090  1.9916
   81MOL   H26740427   3.924   3.527   6.355 -1.9353 -0.8746  0.8011
   81MOL   H26840428   3.850   3.576   6.506  0.2180 -0.5708  0.0464
   81MOL   H26940429   3.980   3.672   6.441  0.5796 -1.1281  1.3140
   81MOL   H27040430   3.522   3.880   6.574 -0.1096  0.1572 -0.3905
   81MOL   H27140431   3.573   3.772   6.693 -0.2008 -1.1511 -1.2468
   81MOL   H27240432   3.560   4.099   6.589  1.0248 -0.9465 -1.6947
   81MOL   H27340433   3.645   4.295   6.723  0.0453  0.5005 -1.7930
   81MOL   H27440434   3.840   4.249   6.883  1.3392 -1.8389  2.1594
   81MOL   H27540435   3.933   4.036   6.907 -1.2059  0.3127  2.2040
   81MOL   H27640436   3.812   3.836   6.809  1.2010  0.6895  1.6854
   81MOL   C27740437   3.888   3.793   6.244 -0.1852 -0.5596  0.4305
   81MOL   C27840438   3.936   3.944   6.279  0.0729  0.2779  0.0311
   81MOL   C27940439   3.978   3.957   6.434 -0.6159  0.6652  0.2040
   81MOL   C28040440   3.807   4.026   6.254  0.3374 -0.2298  0.4778
   81MOL   O28140441   3.757   4.101   6.341  0.2872 -0.0720  0.3155
   81MOL   O28240442   3.748   4.007   6.134 -0.5319 -0.1226  0.4508
   81MOL   C28340443   3.624   4.064   6.104 -0.0588  0.1248  0.7944
   81MOL   C28440444   3.565   4.014   5.974 -0.2266 -0.6601  0.8783
   81MOL   C28540445   3.546   4.092   5.858 -0.2308  0.2879 -0.5415
   81MOL   C28640446   3.496   4.036   5.736 -0.5568 -0.3374  0.2241
   81MOL   C28740447   3.468   3.896   5.733 -0.0811 -0.1672  0.8477
   81MOL   C28840448   3.496   3.815   5.847  0.4649  0.1250  0.0330
   81MOL   C28940449   3.540   3.874   5.968  0.1878 -0.4817  0.1016
   81MOL   H29040450   3.853   3.794   6.141  2.5769 -0.5217 -0.5503
   81MOL   H29140451   3.978   3.737   6.219  0.0509 -0.0858  0.2106
   81MOL   H29240452   3.947   4.051   6.480 -0.5926  0.9394 -0.3358
   81MOL   H29340453   4.085   3.948   6.450 -0.8511 -1.8281  0.5874
   81MOL   H29440454   3.924   3.888   6.499  3.1017 -1.8315  0.8181
   81MOL   H29540455   3.558   4.033   6.185 -2.6217  2.0690 -0.4597
   81MOL   H29640456   3.638   4.172   6.106  1.9744 -0.1047  0.4841
   81MOL   H29740457   3.565   4.199   5.861  0.4911  0.1487  0.0020
   81MOL   H29840458   3.479   4.110   5.659  1.2604  2.8420  2.7711
   81MOL   H29940459   3.431   3.855   5.640  0.7059  1.3317 -0.1548
   81MOL   H30040460   3.488   3.709   5.827  0.1355  0.1229  0.1756
   81MOL   H30140461   3.550   3.811   6.055  0.7988 -1.7724 -0.8883
   81MOL   C30240462   4.053   3.990   6.188  1.1401  0.2689  0.3412
   81MOL   C30340463   4.102   4.135   6.183 -0.5078 -0.1837 -0.0489
   81MOL   C30440464   4.094   4.204   6.328 -0.2422 -0.1217  0.4076
   81MOL   C30540465   4.007   4.216   6.096 -0.0350  0.0767  0.3495
   81MOL   O30640466   3.955   4.325   6.132 -0.6095 -0.4620  0.2437
   81MOL   O30740467   3.995   4.164   5.976 -0.0081  0.5703 -0.3515
   81MOL   C30840468   3.921   4.238   5.875 -0.0631 -0.6083  0.3591
   81MOL   C30940469   3.952   4.180   5.733 -1.0299  0.3995  0.3274
   81MOL   C31040470   3.948   4.048   5.705  0.7094 -0.1022  0.4218
   81MOL   C31140471   3.954   4.005   5.568 -0.5123 -0.4883 -0.3362
   81MOL   C31240472   3.965   4.096   5.471  1.5708 -0.3443  0.5658
   81MOL   C31340473   3.954   4.234   5.500 -0.0262 -0.7654 -0.3665
   81MOL   C31440474   3.950   4.279   5.631  0.0097 -0.2702 -0.0619
   81MOL   H31540475   4.023   3.966   6.086 -0.6336 -0.8189  1.1085
   81MOL   H31640476   4.143   3.937   6.220  2.1515  1.5475 -0.3430
   81MOL   H31740477   4.145   4.301   6.327  2.8006 -1.6565 -1.1745
   81MOL   H31840478   4.146   4.140   6.399 -1.8898  0.3367  2.0631
   81MOL   H31940479   3.996   4.225   6.371 -0.3604 -0.1722  0.1631
   81MOL   H32040480   3.815   4.227   5.895 -0.3554 -0.1891 -0.8982
   81MOL   H32140481   3.950   4.343   5.868  3.0951 -1.5950 -3.8274
   81MOL   H32240482   3.943   3.968   5.777 -2.4332 -0.3500 -0.0212
   81MOL   H32340483   3.951   3.901   5.541 -1.3948 -0.8809  1.2219
   81MOL   H32440484   3.945   4.063   5.370 -0.7232 -1.6993  1.4417
   81MOL   H32540485   3.945   4.309   5.423  0.9353 -0.6324 -0.3584
   81MOL   H32640486   3.946   4.385   5.648  1.2697 -0.6381  2.6826
   81MOL   C32740487   4.250   4.136   6.126 -0.8392  0.0889  0.1801
   81MOL   C32840488   4.331   4.252   6.063 -0.7617  0.1486  0.0958
   81MOL   C32940489   4.325   4.383   6.141 -0.2897  0.2718  0.1638
   81MOL   C33040490   4.283   4.279   5.920 -0.5381  0.6847  0.4369
   81MOL   O33140491   4.277   4.194   5.835 -0.2718  0.4519  0.2258
   81MOL   O33240492   4.242   4.408   5.896 -0.4138 -0.3684 -0.0469
   81MOL   C33340493   4.245   4.456   5.763 -0.6982 -0.0897  0.1066
   81MOL   C33440494   4.281   4.601   5.766 -0.6315  0.2418 -0.1855
   81MOL   C33540495   4.413   4.644   5.741 -0.5698 -0.1902  0.4133
   81MOL   C33640496   4.440   4.782   5.743 -0.0531  0.3582 -0.0374
   81MOL   C33740497   4.335   4.879   5.759 -0.2290 -0.6485  0.6864
   81MOL   C33840498   4.211   4.824   5.789 -0.6326 -0.3241 -0.2176
   81MOL   C33940499   4.177   4.693   5.796  0.4541  0.5098 -0.1538
   81MOL   H34040500   4.254   4.056   6.052  0.0232 -0.2502  0.5902
   81MOL   H34140501   4.309   4.097   6.210 -0.9381 -0.2735  0.0836
   81MOL   H34240502   4.391   4.467   6.119 -0.0610  0.2817  0.8758
   81MOL   H34340503   4.353   4.361   6.244 -2.2573  1.6506  1.0280
   81MOL   H34440504   4.226   4.429   6.140 -0.7621 -0.7381 -0.1747
   81MOL   H34540505   4.312   4.396   5.702  0.9257  1.0624  0.7228
   81MOL   H34640506   4.155   4.433   5.707  0.3879  0.1671 -1.7613
   81MOL   H34740507   4.497   4.580   5.722  1.1246  1.8161  0.9219
   81MOL   H34840508   4.540   4.822   5.732  0.2015 -0.0126  0.9397
   81MOL   H34940509   4.346   4.986   5.753 -1.4313 -0.6359 -1.6252
   81MOL   H35040510   4.128   4.889   5.809 -1.1797 -1.0486 -0.1180
   81MOL   H35140511   4.074   4.664   5.810  0.1233  1.5650 -0.3744
   81MOL   C35240512   4.476   4.197   6.069 -0.3225 -0.3812  0.1886
   81MOL   C35340513   4.605   4.245   6.000  0.2003 -0.1021 -0.3001
   81MOL   C35440514   4.726   4.168   6.062 -0.7519  0.2055 -0.6242
   81MOL   C35540515   4.625   4.402   6.021 -0.2809 -0.0399  0.8719
   81MOL   O35640516   4.629   4.483   5.928  0.0872  0.2746  0.3478
   81MOL   O35740517   4.637   4.437   6.155  0.1865 -0.0768 -0.1062
   81MOL   C35840518   4.655   4.577   6.190 -0.2599 -0.2563 -0.0718
   81MOL   C35940519   4.792   4.603   6.231 -0.3493  0.4858  0.2291
   81MOL   C36040520   4.894   4.499   6.239  0.7806 -0.2224 -0.4636
   81MOL   C36140521   5.026   4.531   6.268  0.2576 -0.3581  0.2134
   81MOL   C36240522   5.051   4.660   6.325 -0.5221  1.3110 -0.3454
   81MOL   C36340523   4.954   4.757   6.327 -0.0154 -0.5029  0.1150
   81MOL   C36440524   4.823   4.733   6.275 -0.5777  0.3643  0.5733
   81MOL   H36540525   4.472   4.090   6.051  1.2401 -0.8585  2.3874
   81MOL   H36640526   4.502   4.201   6.175 -1.9687 -0.2343  0.6111
   81MOL   H36740527   4.748   4.070   6.018 -1.4955 -1.1126  1.8488
   81MOL   H36840528   4.720   4.144   6.168  0.1264 -1.6305 -0.9610
   81MOL   H36940529   4.819   4.224   6.049  0.5580 -1.7414  0.0120
   81MOL   H37040530   4.666   4.641   6.102 -0.9573  0.6904  0.5197
   81MOL   H37140531   4.585   4.609   6.267 -0.2409  0.0475 -0.1798
   81MOL   H37240532   4.872   4.394   6.225 -3.6870  0.8070 -2.1410
   81MOL   H37340533   5.103   4.456   6.257  0.2840 -0.4529  1.0147
   81MOL   H37440534   5.154   4.683   6.350 -0.2111 -1.0327  0.6490
   81MOL   H37540535   4.979   4.854   6.367 -0.3740 -0.3580 -0.0150
   81MOL   H37640536   4.750   4.812   6.270 -1.4586 -0.5345 -1.0501
   81MOL   C37740537   4.611   4.230   5.844 -0.2125 -0.3501  0.2568
   81MOL   C37840538   4.615   4.093   5.760  0.2745  0.4764 -0.4236
   81MOL   C37940539   4.540   3.983   5.843 -1.0902 -0.0715 -0.0088
   81MOL   C38040540   4.761   4.039   5.744  0.4747  0.9356  0.5817
   81MOL   O38140541   4.778   3.917   5.739 -0.6910 -0.2522  0.1493
   81MOL   O38240542   4.860   4.128   5.751 -0.5020 -0.1553 -0.1332
   81MOL   C38340543   4.997   4.081   5.758  0.3969  0.0373  0.8448
   81MOL   C38440544   5.070   4.175   5.848 -0.4039  0.1801  0.3018
   81MOL   C38540545   5.191   4.139   5.908  0.0299 -0.1060  0.5735
   81MOL   C38640546   5.271   4.236   5.972  0.5305 -0.2417 -0.8472
   81MOL   C38740547   5.222   4.369   5.984  0.7565  0.0312  0.6096
   81MOL   C38840548   5.101   4.405   5.922 -0.2380 -0.2932 -0.2253
   81MOL   C38940549   5.030   4.309   5.849 -1.1436  0.1088  0.1612
   81MOL   H39040550   4.702   4.275   5.805  0.2448 -1.6034 -0.1611
   81MOL   H39140551   4.539   4.284   5.782 -0.2532  1.3447  1.7675
   81MOL   H39240552   4.433   4.002   5.857 -0.8455  0.4746  1.2124
   81MOL   H39340553   4.593   3.956   5.934  1.7991  0.0134 -1.6022
   81MOL   H39440554   4.543   3.898   5.776  1.9759 -1.2412  1.5338
   81MOL   H39540555   5.003   3.981   5.803 -3.6465 -0.7498 -0.1896
   81MOL   H39640556   5.047   4.089   5.661 -0.6427  0.2100  0.3168
   81MOL   H39740557   5.233   4.039   5.902 -0.0331 -0.1016  0.0590
   81MOL   H39840558   5.369   4.220   6.013  0.5637  3.2808  0.6679
   81MOL   H39940559   5.278   4.440   6.042 -1.1267  1.8262  0.2640
   81MOL   H40040560   5.065   4.506   5.934  2.8655  0.7917  0.2811
   81MOL   H40140561   4.947   4.348   5.793  0.0963  3.3703  0.5323
   81MOL   C40240562   4.544   4.111   5.624 -0.0204  0.3552  0.7696
   81MOL   C40340563   4.592   4.191   5.498 -0.1335  0.3629  0.7512
   81MOL   C40440564   4.705   4.102   5.432  0.4061 -0.3765  0.2060
   81MOL   C40540565   4.661   4.330   5.531 -0.2691  0.5162  1.4309
   81MOL   O40640566   4.589   4.422   5.578  0.8810 -0.0637  0.3677
   81MOL   O40740567   4.801   4.341   5.496  0.7090  0.1547 -0.0552
   81MOL   C40840568   4.866   4.468   5.521 -0.2342 -0.3752 -0.1284
   81MOL   C40940569   5.016   4.473   5.489 -0.1291  0.4641  0.9897
   81MOL   C41040570   5.057   4.601   5.448 -0.4239 -0.1414 -0.0644
   81MOL   C41140571   5.188   4.614   5.402  0.3488 -0.4499 -0.2791
   81MOL   C41240572   5.272   4.506   5.376 -0.1797  0.7341  0.1730
   81MOL   C41340573   5.239   4.383   5.433 -0.0257  0.7525 -0.4360
   81MOL   C41440574   5.113   4.364   5.492  0.0354  0.6291  0.3329
   81MOL   H41540575   4.443   4.147   5.642  0.6095  0.4101  4.6221
   81MOL   H41640576   4.526   4.009   5.590 -0.3543  1.0032 -1.0256
   81MOL   H41740577   4.790   4.087   5.498  0.2544  0.6343  0.6384
   81MOL   H41840578   4.728   4.129   5.329  1.2939 -0.5065  0.3630
   81MOL   H41940579   4.671   3.999   5.420  1.0359 -0.5778  0.1403
   81MOL   H42040580   4.803   4.549   5.484  0.5094  0.3426  0.1594
   81MOL   H42140581   4.856   4.465   5.630  1.2212  2.6188  0.1462
   81MOL   H42240582   4.988   4.684   5.451  0.7849  0.9700 -2.2069
   81MOL   H42340583   5.210   4.715   5.370 -1.6046  0.0627 -0.0370
   81MOL   H42440584   5.368   4.512   5.325  0.0274  4.0298  0.8968
   81MOL   H42540585   5.303   4.298   5.414 -1.2340 -0.5147  0.9546
   81MOL   H42640586   5.078   4.263   5.509  1.1924  0.3254  0.9033
   81MOL   C42740587   4.458   4.211   5.413  0.1964 -0.3462 -0.8250
   81MOL   C42840588   4.444   4.222   5.259 -0.5804 -0.1494  0.0564
   81MOL   C42940589   4.454   4.082   5.205 -0.0243  0.7623  0.6474
   81MOL   C43040590   4.557   4.308   5.195 -0.2158  0.1164  0.2958
   81MOL   O43140591   4.621   4.269   5.098  0.0998  0.0709 -0.2585
   81MOL   O43240592   4.581   4.425   5.251  0.3484  0.3827 -0.1404
   81MOL   C43340593   4.674   4.511   5.200 -0.3622 -0.0208  0.0637
   81MOL   C43440594   4.623   4.652   5.217  0.0989  0.1194  0.1202
   81MOL   C43540595   4.596   4.727   5.102  0.2231 -0.2819 -0.2873
   81MOL   C43640596   4.548   4.860   5.121 -0.1241 -0.3267 -0.3484
   81MOL   C43740597   4.517   4.914   5.250  0.0100 -0.1114  0.1373
   81MOL   C43840598   4.558   4.840   5.364  0.2575  0.2652  0.1133
   81MOL   C43940599   4.608   4.706   5.346  0.3773 -0.0016 -0.2541
   81MOL   H44040600   4.411   4.304   5.444  0.2804 -0.1351 -1.3391
   81MOL   H44140601   4.383   4.137   5.442  2.0416 -2.7422 -1.9907
   81MOL   H44240602   4.377   4.023   5.255 -1.4194  2.6218  0.7463
   81MOL   H44340603   4.547   4.029   5.225 -0.4432 -0.4995 -0.6095
   81MOL   H44440604   4.440   4.071   5.097  0.2686 -0.9479  0.7711
   81MOL   H44540605   4.766   4.499   5.258 -1.0888  0.0846  1.2486
   81MOL   H44640606   4.700   4.486   5.097 -0.8156 -1.8014  0.3754
   81MOL   H44740607   4.604   4.689   5.001 -0.8294  0.1854 -0.5461
   81MOL   H44840608   4.520   4.921   5.037  1.1261 -1.5250 -1.6657
   81MOL   H44940609   4.473   5.013   5.255  1.2596  0.4587  0.1282
   81MOL   H45040610   4.536   4.889   5.457 -0.1750  0.2396  0.0268
   81MOL   H45140611   4.635   4.643   5.429  1.4678  0.5494 -0.1840
   81MOL   C45240612   4.305   4.291   5.231 -0.3773 -0.4491  0.5702
   81MOL   C45340613   4.230   4.269   5.095 -0.1504 -0.1811  0.2711
   81MOL   C45440614   4.149   4.132   5.094  0.1310  0.8496  0.1182
   81MOL   C45540615   4.313   4.286   4.967  0.5085  0.9752 -0.0087
   81MOL   O45640616   4.330   4.194   4.899 -0.0964  0.3553  0.2356
   81MOL   O45740617   4.364   4.409   4.955 -0.0633  0.4019 -0.1765
   81MOL   C45840618   4.472   4.437   4.861 -0.2047  0.3270 -0.3622
   81MOL   C45940619   4.432   4.456   4.715 -0.2119  0.3495 -0.3177
   81MOL   C46040620   4.402   4.579   4.671 -0.0871 -0.0013  0.0694
   81MOL   C46140621   4.386   4.599   4.534 -0.0260 -0.2105  0.4516
   81MOL   C46240622   4.407   4.497   4.444  0.4705  0.1375 -0.1794
   81MOL   C46340623   4.438   4.369   4.486  0.3011  0.4107 -0.4658
   81MOL   C46440624   4.451   4.344   4.623  0.2677 -0.1447 -0.3767
   81MOL   H46540625   4.310   4.397   5.255 -0.3601 -1.1850  4.0619
   81MOL   H46640626   4.237   4.270   5.314  1.8477 -0.8452  2.3250
   81MOL   H46740627   4.218   4.053   5.068 -1.7347 -0.3908 -1.1931
   81MOL   H46840628   4.068   4.121   5.022 -0.3848 -1.8311  1.0614
   81MOL   H46940629   4.114   4.116   5.197  2.7585  2.6591  1.3508
   81MOL   H47040630   4.522   4.528   4.896 -0.6684  0.3241  0.3220
   81MOL   H47140631   4.540   4.352   4.868 -1.3472 -0.7924 -2.5676
   81MOL   H47240632   4.407   4.663   4.740  2.0381 -1.0571  1.2568
   81MOL   H47340633   4.377   4.699   4.493 -1.6697 -0.4421  0.1971
   81MOL   H47440634   4.407   4.523   4.340  3.7520  1.0740  0.0020
   81MOL   H47540635   4.438   4.291   4.411 -0.8109 -0.7335  0.7000
   81MOL   H47640636   4.497   4.255   4.665 -3.0438 -2.2638 -1.0480
   81MOL   C47740637   4.116   4.379   5.092 -0.0984 -0.0755  0.0301
   81MOL   C47840638   4.033   4.392   4.960 -0.1693 -0.1175  0.2602
   81MOL   C47940639   4.062   4.524   4.877 -0.1223  0.5323 -0.6985
   81MOL   C48040640   3.886   4.374   4.984  0.2168  0.9112 -0.4674
   81MOL   O48140641   3.811   4.468   4.954  0.1632 -0.8173 -0.4847
   81MOL   O48240642   3.850   4.255   5.039 -0.0791 -0.7731 -0.0602
   81MOL   C48340643   3.717   4.219   5.061 -0.0419 -0.3524 -0.1678
   81MOL   C48440644   3.648   4.277   5.189 -0.2445 -0.8866 -0.4922
   81MOL   C48540645   3.576   4.399   5.183 -0.5328 -0.1093  0.1602
   81MOL   C48640646   3.519   4.455   5.297  0.1714  0.2335 -0.4556
   81MOL   C48740647   3.526   4.385   5.429 -0.1277  0.5666  0.4227
   81MOL   C48840648   3.597   4.263   5.427  0.6467  0.6872 -0.4372
   81MOL   C48940649   3.659   4.210   5.314 -0.5143 -0.7247 -0.6499
   81MOL   H49040650   4.161   4.475   5.117 -0.7135  0.0207  0.7838
   81MOL   H49140651   4.049   4.363   5.177  1.1754 -0.5606  0.9554
   81MOL   H49240652   4.170   4.532   4.871  0.0116  0.4804  1.2007
   81MOL   H49340653   4.028   4.622   4.912 -1.8048 -0.7327  1.3552
   81MOL   H49440654   4.021   4.504   4.779  0.8122 -1.7207 -0.6600
   81MOL   H49540655   3.658   4.236   4.970  2.2560 -0.6128 -1.7479
   81MOL   H49640656   3.722   4.111   5.069 -2.1714 -0.4147  0.5603
   81MOL   H49740657   3.557   4.469   5.103 -1.3077  0.0794  0.5004
   81MOL   H49840658   3.466   4.549   5.292 -0.1420  0.1893  1.5812
   81MOL   H49940659   3.484   4.431   5.518 -1.5585 -1.3012  0.7350
   81MOL   H50040660   3.618   4.210   5.519  0.2832 -2.2469 -2.0035
   81MOL   H50140661   3.714   4.117   5.317  1.9156  0.6917  1.1914
   81MOL   H50240662   4.065   4.309   4.897  2.9094  1.6511 -0.6218
   82MOL     C140663   4.849   5.162   5.336 -0.0534  1.2499 -0.3117
   82MOL     C240664   4.936   5.113   5.219 -0.2396 -0.0575  0.0017
   82MOL     C340665   4.851   5.032   5.120  0.0932  0.3668 -0.2871
   82MOL     C440666   5.053   5.020   5.283 -0.1054 -0.8911 -0.3649
   82MOL     O540667   5.047   4.900   5.271 -0.5416 -0.4564 -0.1642
   82MOL     O640668   5.155   5.089   5.353 -0.0360 -0.0170 -0.0526
   82MOL     C740669   5.263   5.011   5.400 -0.1791 -0.6342  0.1175
   82MOL     C840670   5.373   5.096   5.458  0.3663  0.0556 -0.4383
   82MOL     C940671   5.494   5.030   5.456  0.3921 -0.3419  0.1789
   82MOL    C1040672   5.597   5.095   5.517 -0.0528  0.5264  0.0593
   82MOL    C1140673   5.581   5.225   5.571 -0.2093  0.1014 -0.7073
   82MOL    C1240674   5.457   5.295   5.570 -0.0373  0.3657 -0.0509
   82MOL    C1340675   5.351   5.227   5.506 -0.1695 -0.1267 -1.4945
   82MOL    H1440676   4.818   5.071   5.388  1.6668  0.0514 -1.3457
   82MOL    H1540677   4.908   5.224   5.403 -0.4308  0.2032  1.0206
   82MOL    H1640678   4.810   4.942   5.165  1.6156 -0.0230  0.3344
   82MOL    H1740679   4.900   4.999   5.028 -1.6147 -2.0876 -0.3716
   82MOL    H1840680   4.767   5.096   5.090  1.2169  1.8047 -0.4225
   82MOL    H1940681   5.226   4.953   5.485 -1.1640 -1.2492 -0.7166
   82MOL    H2040682   5.303   4.944   5.324 -0.1784 -0.0955 -0.3576
   82MOL    H2140683   5.501   4.935   5.403 -0.4548 -0.8644  1.0053
   82MOL    H2240684   5.698   5.057   5.505 -0.4276 -0.6458  0.5806
   82MOL    H2340685   5.672   5.268   5.611 -0.5555  1.4029 -1.2776
   82MOL    H2440686   5.449   5.397   5.605  3.1679 -0.1509  2.3490
   82MOL    H2540687   5.252   5.270   5.504 -0.0123  0.3136 -0.0123
   82MOL    H2640688   4.759   5.207   5.294 -0.6568 -1.3851 -1.9738
   82MOL    C2740689   5.007   5.238   5.150  0.4276  0.4894 -0.7958
   82MOL    C2840690   4.939   5.346   5.050  0.0389  0.1010  0.9515
   82MOL    C2940691   4.825   5.414   5.123 -0.1677  0.5043 -0.3707
   82MOL    C3040692   4.889   5.285   4.924 -0.9516  0.2126  0.2405
   82MOL    O3140693   4.800   5.342   4.858  0.1520  0.6825  0.3351
   82MOL    O3240694   4.965   5.186   4.881  0.8055  0.8492 -0.1058
   82MOL    C3340695   4.936   5.130   4.747 -0.0165 -0.3895 -0.2438
   82MOL    C3440696   5.054   5.054   4.681  0.4805 -0.5437  0.7623
   82MOL    C3540697   5.025   4.944   4.597  0.0788 -0.2081 -0.0984
   82MOL    C3640698   5.133   4.869   4.540 -0.3901 -0.9062 -0.7533
   82MOL    C3740699   5.269   4.899   4.572  0.3127  0.1959 -0.1042
   82MOL    C3840700   5.296   5.008   4.657  0.0317 -0.4972 -0.5925
   82MOL    C3940701   5.192   5.089   4.706 -0.9491  0.5142 -0.5075
   82MOL    H4040702   5.087   5.206   5.083  1.0511  0.2221  0.0660
   82MOL    H4140703   5.049   5.296   5.231  0.2887  0.3093 -0.5946
   82MOL    H4240704   4.746   5.346   5.156  1.9763 -1.8394  0.1232
   82MOL    H4340705   4.765   5.485   5.066 -0.3421  0.3326 -0.4033
   82MOL    H4440706   4.853   5.470   5.212 -1.2069 -0.0922  0.3465
   82MOL    H4540707   4.845   5.071   4.743 -0.9108  1.0127 -1.0341
   82MOL    H4640708   4.908   5.215   4.684  0.9712 -0.1903 -0.4261
   82MOL    H4740709   4.925   4.923   4.561  0.3277 -2.1535  0.3195
   82MOL    H4840710   5.112   4.784   4.477  0.5272 -2.6001  1.1669
   82MOL    H4940711   5.341   4.829   4.533  1.7820  0.9195  1.2757
   82MOL    H5040712   5.396   5.026   4.693 -0.1028 -0.4511 -0.2397
   82MOL    H5140713   5.208   5.168   4.777  1.7352 -0.1775 -0.3091
   82MOL    C5240714   5.060   5.443   5.013  0.4299  0.3749  0.0552
   82MOL    C5340715   5.071   5.560   4.910  0.5067 -0.7072 -0.7384
   82MOL    C5440716   4.948   5.646   4.924  1.1511 -0.2240  0.3669
   82MOL    C5540717   5.085   5.518   4.762  0.6944  0.3102 -0.1129
   82MOL    O5640718   5.100   5.399   4.728 -0.3716 -0.9790  0.1185
   82MOL    O5740719   5.069   5.625   4.682 -0.3662 -0.2396  0.5438
   82MOL    C5840720   5.089   5.622   4.542  0.2860  0.0839 -0.2356
   82MOL    C5940721   5.232   5.668   4.503 -0.3546  0.3985  0.5052
   82MOL    C6040722   5.326   5.578   4.452  0.3811 -0.2512  0.5536
   82MOL    C6140723   5.461   5.615   4.432 -0.3808 -0.0278  0.5276
   82MOL    C6240724   5.498   5.751   4.457  0.0663 -0.3460  0.0551
   82MOL    C6340725   5.404   5.839   4.511 -0.5355  0.5508  0.8244
   82MOL    C6440726   5.273   5.802   4.533 -0.2652 -0.1032 -0.4092
   82MOL    H6540727   5.148   5.382   4.994 -0.4238 -0.7463 -0.3237
   82MOL    H6640728   5.069   5.489   5.111 -1.1276  0.9118 -0.0349
   82MOL    H6740729   4.956   5.737   4.864  1.0776 -1.6787 -1.9047
   82MOL    H6840730   4.928   5.667   5.030 -3.6017  1.0979 -0.6564
   82MOL    H6940731   4.855   5.599   4.893  2.0182 -1.2021 -0.7754
   82MOL    H7040732   5.080   5.521   4.502 -0.5172  0.0052  0.1425
   82MOL    H7140733   5.016   5.685   4.491  2.2722  2.1975 -0.5554
   82MOL    H7240734   5.303   5.473   4.443 -2.6494  0.1171  3.2151
   82MOL    H7340735   5.534   5.548   4.390  0.7294  1.6448 -0.2844
   82MOL    H7440736   5.592   5.787   4.418  0.0868 -1.4935 -0.9723
   82MOL    H7540737   5.446   5.935   4.536 -1.4610  1.7287 -1.8948
   82MOL    H7640738   5.197   5.871   4.565  0.4873  0.7570 -0.4629
   82MOL    C7740739   5.203   5.641   4.941  0.5423 -0.2487  0.9045
   82MOL    C7840740   5.356   5.582   4.939 -0.5605  0.1744  0.1891
   82MOL    C7940741   5.382   5.475   4.829  0.4714 -0.2381 -0.4142
   82MOL    C8040742   5.389   5.511   5.072 -0.2060  0.5380 -0.2186
   82MOL    O8140743   5.309   5.508   5.165  0.4000 -0.1461  0.9644
   82MOL    O8240744   5.511   5.450   5.079 -0.8224 -0.3880  0.2889
   82MOL    C8340745   5.542   5.366   5.189  0.0647 -0.1605  0.1434
   82MOL    C8440746   5.520   5.220   5.142  0.0104  0.4259 -0.3056
   82MOL    C8540747   5.622   5.128   5.136 -0.3663 -0.1691  0.0301
   82MOL    C8640748   5.597   4.992   5.097  0.4015  0.3459  0.6181
   82MOL    C8740749   5.465   4.954   5.067  0.1557  0.4830  0.6216
   82MOL    C8840750   5.366   5.050   5.049 -0.2534 -0.7876 -0.0399
   82MOL    C8940751   5.395   5.182   5.098 -0.0175 -0.1349 -0.1272
   82MOL    H9040752   5.186   5.689   5.037 -1.3639 -0.2504  0.5952
   82MOL    H9140753   5.211   5.716   4.862  0.6669 -2.2428 -1.0351
   82MOL    H9240754   5.323   5.383   4.837 -1.7444  0.9610 -2.2336
   82MOL    H9340755   5.486   5.444   4.819  0.1638 -1.4447  0.0270
   82MOL    H9440756   5.368   5.518   4.730  0.4466  0.3034 -0.1742
   82MOL    H9540757   5.640   5.381   5.236 -0.6465 -0.1802  1.6781
   82MOL    H9640758   5.471   5.376   5.271  0.7235 -1.6429  0.9344
   82MOL    H9740759   5.724   5.144   5.169 -0.0778 -1.9792  0.0640
   82MOL    H9840760   5.686   4.931   5.104 -0.6983 -1.4570 -0.9245
   82MOL    H9940761   5.439   4.852   5.040  0.2270  0.3828  0.9325
   82MOL   H10040762   5.266   5.036   5.011  0.7100 -1.5076 -2.3321
   82MOL   H10140763   5.318   5.258   5.087  0.8281  0.6861 -0.4456
   82MOL   C10240764   5.459   5.695   4.895 -0.2124 -0.0732  0.4929
   82MOL   C10340765   5.495   5.819   4.981  0.4162 -0.1028 -0.1623
   82MOL   C10440766   5.564   5.764   5.108 -0.5118  0.2734  0.5408
   82MOL   C10540767   5.370   5.904   5.031 -0.1408 -0.5109  0.9337
   82MOL   O10640768   5.351   5.918   5.149 -0.2292 -0.1841 -0.0647
   82MOL   O10740769   5.281   5.956   4.936 -0.1546  0.1880  0.8422
   82MOL   C10840770   5.166   6.021   4.975 -0.4410 -0.1109 -0.8247
   82MOL   C10940771   5.078   6.061   4.859  0.0616  0.3747 -0.4068
   82MOL   C11040772   5.036   5.975   4.753  0.1625 -0.7882 -0.4518
   82MOL   C11140773   4.968   6.031   4.648 -0.5599  0.2144  0.9646
   82MOL   C11240774   4.939   6.166   4.641  0.4533  0.8591  0.9978
   82MOL   C11340775   4.981   6.252   4.744  0.0841  0.4617  0.0109
   82MOL   C11440776   5.047   6.197   4.854  0.4841 -0.8391  0.0685
   82MOL   H11540777   5.428   5.721   4.794  2.4425 -1.5345 -0.7512
   82MOL   H11640778   5.544   5.629   4.876 -0.9840 -0.7981 -0.5009
   82MOL   H11740779   5.652   5.821   5.137  0.3223 -0.2474 -0.9165
   82MOL   H11840780   5.622   5.673   5.092 -0.6872  0.0604  1.1158
   82MOL   H11940781   5.503   5.748   5.197  0.5533 -1.0247  1.0493
   82MOL   H12040782   5.108   5.941   5.022 -0.0854 -1.1744 -2.1514
   82MOL   H12140783   5.182   6.099   5.049  1.0709 -3.3284  2.4435
   82MOL   H12240784   5.068   5.872   4.752 -0.0956 -0.8678 -0.3016
   82MOL   H12340785   4.941   5.965   4.566  0.6475  1.3006 -0.3284
   82MOL   H12440786   4.901   6.205   4.548 -0.0684 -1.3737  0.2476
   82MOL   H12540787   4.958   6.357   4.733  0.1297  0.7911  2.7785
   82MOL   H12640788   5.081   6.267   4.929  1.6722  1.2309 -2.3237
   82MOL   C12740789   5.611   5.897   4.905  0.3712 -0.3021  0.1689
   82MOL   C12840790   5.648   6.053   4.925  0.3479  0.1702  0.3718
   82MOL   C12940791   5.670   6.070   5.079  0.4969 -0.5673 -0.0536
   82MOL   C13040792   5.536   6.143   4.876 -0.9924  0.0019  0.3425
   82MOL   O13140793   5.483   6.232   4.947 -0.7324 -0.0091 -0.0451
   82MOL   O13240794   5.500   6.137   4.744 -0.2673 -0.3870 -0.3618
   82MOL   C13340795   5.386   6.208   4.691 -0.7286  0.4695  0.1246
   82MOL   C13440796   5.428   6.294   4.575 -0.4639  0.0836  1.0440
   82MOL   C13540797   5.444   6.430   4.598 -0.2688 -0.5761 -0.1277
   82MOL   C13640798   5.511   6.510   4.507 -0.2621  0.0132 -0.1421
   82MOL   C13740799   5.550   6.454   4.382  0.2650  0.1589 -0.1812
   82MOL   C13840800   5.538   6.317   4.357  0.3198 -0.0200  0.5539
   82MOL   C13940801   5.480   6.238   4.457  0.1902 -0.1610  0.2056
   82MOL   H14040802   5.604   5.894   4.797  0.4541 -1.6358  0.1999
   82MOL   H14140803   5.700   5.835   4.913 -0.2790 -0.9881  2.4233
   82MOL   H14240804   5.682   6.173   5.114 -1.3584  0.1309 -1.3868
   82MOL   H14340805   5.759   6.012   5.099  2.3078  2.1912  0.1705
   82MOL   H14440806   5.589   6.035   5.143  1.7823  0.7993  2.3969
   82MOL   H14540807   5.317   6.134   4.652  1.8294 -0.5681 -2.5430
   82MOL   H14640808   5.337   6.274   4.763  1.9737  1.3294  1.2282
   82MOL   H14740809   5.427   6.467   4.698 -0.5709 -0.5004 -0.2066
   82MOL   H14840810   5.534   6.612   4.533  2.2906 -0.7267  0.5952
   82MOL   H14940811   5.599   6.509   4.304 -0.2272  1.7100  0.5801
   82MOL   H15040812   5.564   6.278   4.259 -0.8012  0.1613  0.1666
   82MOL   H15140813   5.483   6.130   4.447 -0.5894 -0.1829  0.1153
   82MOL   C15240814   5.780   6.072   4.832  0.4485 -0.4586 -0.0823
   82MOL   C15340815   5.891   6.179   4.850 -0.3029  0.2667  0.7221
   82MOL   C15440816   5.963   6.158   4.988 -0.4313 -0.6830  0.0370
   82MOL   C15540817   5.834   6.320   4.835  0.1472 -0.2280  0.2245
   82MOL   O15640818   5.738   6.343   4.759  0.0857  0.2075 -0.2322
   82MOL   O15740819   5.897   6.417   4.901  0.3074  0.0172 -0.2502
   82MOL   C15840820   5.860   6.553   4.883 -0.7772 -0.1622  0.1884
   82MOL   C15940821   5.973   6.629   4.816 -0.5333 -0.0377  0.0011
   82MOL   C16040822   6.002   6.757   4.871 -0.1348  0.1663  0.0108
   82MOL   C16140823   6.113   6.827   4.823 -0.8211  0.0136  0.3642
   82MOL   C16240824   6.199   6.765   4.720  0.4608  0.5732 -0.6962
   82MOL   C16340825   6.177   6.635   4.675  0.5472  0.2302  0.7499
   82MOL   C16440826   6.054   6.572   4.713  0.1126 -0.4219 -0.6767
   82MOL   H16540827   5.749   6.090   4.729 -0.2933  0.8194  0.3579
   82MOL   H16640828   5.838   5.980   4.834  3.0197  1.1217  0.8794
   82MOL   H16740829   6.052   6.220   5.000 -1.2739  0.6654 -0.6377
   82MOL   H16840830   5.999   6.057   5.009  1.0988 -0.1679 -0.0599
   82MOL   H16940831   5.899   6.189   5.070  0.8245  0.1087  0.7339
   82MOL   H17040832   5.765   6.567   4.831 -0.3714 -0.5877 -0.6816
   82MOL   H17140833   5.843   6.601   4.980  0.7017 -0.7415  0.7425
   82MOL   H17240834   5.936   6.804   4.942  0.2212  0.3345  0.2331
   82MOL   H17340835   6.133   6.929   4.854  0.6992  0.3722 -1.6777
   82MOL   H17440836   6.289   6.812   4.684  0.4485  0.8623 -0.3465
   82MOL   H17540837   6.249   6.592   4.608  2.2795  2.7230  0.9414
   82MOL   H17640838   6.028   6.472   4.681 -0.9692 -0.6188  0.7631
   82MOL   C17740839   6.028   6.170   4.759  0.2396 -0.3835 -0.4548
   82MOL   C17840840   6.015   6.138   4.601  0.4260 -0.0832  0.0600
   82MOL   C17940841   5.912   6.220   4.525 -0.3477 -0.4610  0.5841
   82MOL   C18040842   5.975   5.990   4.583  0.1715 -0.2392  0.0760
   82MOL   O18140843   5.901   5.951   4.494 -0.3642  0.0074  0.1314
   82MOL   O18240844   6.025   5.895   4.664 -0.3329 -0.5750 -0.1572
   82MOL   C18340845   6.018   5.750   4.633 -0.0055 -0.4967 -0.4093
   82MOL   C18440846   5.953   5.675   4.749 -0.2988 -0.2061 -0.2462
   82MOL   C18540847   5.999   5.689   4.882  0.5974 -0.1448 -0.4034
   82MOL   C18640848   5.942   5.617   4.987 -0.9952  0.7212 -0.0783
   82MOL   C18740849   5.842   5.523   4.961  0.7961 -0.3942 -0.3075
   82MOL   C18840850   5.795   5.503   4.830 -0.5648 -0.5871  0.2097
   82MOL   C18940851   5.850   5.579   4.723  0.3220 -0.1118 -0.2190
   82MOL   H19040852   6.096   6.096   4.800 -0.8445 -1.5280 -0.6989
   82MOL   H19140853   6.083   6.264   4.763  1.5647 -1.1940  0.7015
   82MOL   H19240854   5.806   6.197   4.535 -0.3545 -0.1854  1.1709
   82MOL   H19340855   5.939   6.198   4.422 -0.4657 -1.7288  0.8107
   82MOL   H19440856   5.917   6.326   4.547 -1.1516 -0.3951  0.4419
   82MOL   H19540857   5.973   5.726   4.537  0.2135  1.0721 -0.9187
   82MOL   H19640858   6.117   5.713   4.607 -0.8083 -0.4738 -3.7001
   82MOL   H19740859   6.076   5.762   4.901 -1.3350  2.0472 -0.7309
   82MOL   H19840860   5.981   5.635   5.086 -0.3580 -1.3974  0.0909
   82MOL   H19940861   5.809   5.452   5.035 -0.7999  1.5366  0.8745
   82MOL   H20040862   5.736   5.418   4.800 -1.4016  0.3052 -0.6930
   82MOL   H20140863   5.823   5.560   4.620  2.0710 -2.0148 -0.3786
   82MOL   C20240864   6.151   6.164   4.514  0.5394 -0.2541 -0.5251
   82MOL   C20340865   6.303   6.141   4.566  0.0003 -0.4588  0.2264
   82MOL   C20440866   6.385   6.170   4.436 -0.5175 -0.0567 -0.6307
   82MOL   C20540867   6.328   5.987   4.602  0.9473  0.0709  0.1362
   82MOL   O20640868   6.373   5.903   4.519  0.2222 -0.0581  0.1452
   82MOL   O20740869   6.296   5.960   4.732  0.3399 -0.0720  0.0855
   82MOL   C20840870   6.339   5.838   4.793  0.3146  0.4832 -0.7175
   82MOL   C20940871   6.355   5.839   4.941  0.2917  0.1222  0.3085
   82MOL   C21040872   6.385   5.721   5.007 -0.1153 -0.2205 -0.8758
   82MOL   C21140873   6.420   5.718   5.142  0.1688  0.5048 -0.2376
   82MOL   C21240874   6.412   5.838   5.216 -0.2946 -0.0042 -0.1119
   82MOL   C21340875   6.370   5.958   5.151  0.6219  0.4160  0.0457
   82MOL   C21440876   6.344   5.957   5.017  0.4408 -0.5880  0.1334
   82MOL   H21540877   6.148   6.265   4.475 -0.0156 -0.1944 -0.3320
   82MOL   H21640878   6.139   6.104   4.423  0.3000  0.1643 -0.7697
   82MOL   H21740879   6.386   6.277   4.411 -0.7568  0.5253  1.7580
   82MOL   H21840880   6.336   6.116   4.354 -1.2702  0.8072 -0.7649
   82MOL   H21940881   6.486   6.133   4.446 -1.1445 -1.3615  1.0564
   82MOL   H22040882   6.271   5.755   4.773 -1.5296  1.3739  1.7227
   82MOL   H22140883   6.438   5.814   4.753  0.6638 -0.0425  0.4489
   82MOL   H22240884   6.386   5.630   4.949 -2.5278 -0.4982 -0.5202
   82MOL   H22340885   6.451   5.626   5.190 -0.0156  0.8912  0.6359
   82MOL   H22440886   6.457   5.834   5.314  1.1314 -1.5070 -0.8180
   82MOL   H22540887   6.362   6.053   5.202 -1.3212  1.6365 -2.4644
   82MOL   H22640888   6.331   6.053   4.969  0.9146  0.8505  2.7933
   82MOL   C22740889   6.333   6.233   4.686 -0.2425 -0.2941  0.7538
   82MOL   C22840890   6.482   6.279   4.727  0.1188 -0.0457 -0.2863
   82MOL   C22940891   6.578   6.159   4.721 -0.1293 -0.0512  0.2821
   82MOL   C23040892   6.474   6.309   4.879 -0.3751  0.0862 -0.3572
   82MOL   O23140893   6.543   6.247   4.964 -0.3237 -0.0627 -0.1642
   82MOL   O23240894   6.383   6.397   4.908  0.2802 -0.2048  0.0890
   82MOL   C23340895   6.342   6.405   5.043  0.1047 -0.6958 -0.9087
   82MOL   C23440896   6.354   6.548   5.085  0.1271 -0.0170  0.7507
   82MOL   C23540897   6.236   6.619   5.097 -0.2387 -0.5319  0.3462
   82MOL   C23640898   6.242   6.755   5.139 -0.3228 -0.6178  0.1373
   82MOL   C23740899   6.370   6.813   5.162  0.1753  0.0234  0.1385
   82MOL   C23840900   6.486   6.735   5.154 -0.3538  0.2017  0.4210
   82MOL   C23940901   6.478   6.602   5.112  0.4134 -0.3624 -0.1582
   82MOL   H24040902   6.301   6.184   4.778  0.2822  0.9798  1.6248
   82MOL   H24140903   6.278   6.326   4.678  2.3437  1.2124 -0.1882
   82MOL   H24240904   6.675   6.183   4.765  0.2981 -0.0720 -0.6367
   82MOL   H24340905   6.602   6.122   4.622 -1.3450  0.9988 -0.4196
   82MOL   H24440906   6.540   6.069   4.771 -0.4169 -0.3917 -0.5455
   82MOL   H24540907   6.241   6.366   5.050 -1.3284  2.9960  0.4807
   82MOL   H24640908   6.403   6.352   5.116 -0.3607 -0.7083 -0.5238
   82MOL   H24740909   6.145   6.567   5.071  0.4587 -1.5679 -0.0658
   82MOL   H24840910   6.154   6.816   5.151  0.3047  0.7235 -1.8507
   82MOL   H24940911   6.371   6.915   5.198 -0.8339 -0.0137  0.2821
   82MOL   H25040912   6.584   6.771   5.184  0.5055 -0.1297 -1.9030
   82MOL   H25140913   6.568   6.543   5.115  1.3065  0.8694 -1.6281
   82MOL   C25240914   6.527   6.410   4.651 -0.6607 -0.5223 -0.2790
   82MOL   C25340915   6.677   6.454   4.625 -0.0639  0.1056 -0.4540
   82MOL   C25440916   6.655   6.583   4.539 -0.1816 -1.2766 -0.6918
   82MOL   C25540917   6.753   6.349   4.537  0.1182 -0.1944  0.1098
   82MOL   O25640918   6.835   6.265   4.578 -0.3872  0.5135 -0.2252
   82MOL   O25740919   6.714   6.352   4.415  0.4088 -0.0445  0.6882
   82MOL   C25840920   6.738   6.241   4.338 -0.7110 -0.2804 -0.1693
   82MOL   C25940921   6.690   6.263   4.191  0.1196  0.1406 -0.0909
   82MOL   C26040922   6.670   6.159   4.093  0.4484  0.3577 -0.2734
   82MOL   C26140923   6.622   6.178   3.960  0.0878 -0.5569 -0.4111
   82MOL   C26240924   6.597   6.317   3.923 -0.0205  0.6734 -0.4430
   82MOL   C26340925   6.634   6.423   4.004 -0.0304 -0.4143 -0.3439
   82MOL   C26440926   6.669   6.394   4.142  0.5772  0.2311 -0.9645
   82MOL   H26540927   6.480   6.497   4.697  0.4002  0.2755 -0.6763
   82MOL   H26640928   6.474   6.399   4.557 -2.7691 -0.2564  0.8407
   82MOL   H26740929   6.743   6.615   4.482 -0.5722  1.9532  0.3905
   82MOL   H26840930   6.621   6.668   4.598 -0.7308 -1.1456 -1.1913
   82MOL   H26940931   6.580   6.564   4.462 -1.4873 -0.1805  0.2881
   82MOL   H27040932   6.844   6.218   4.336 -0.1570  1.7697  2.4802
   82MOL   H27140933   6.700   6.148   4.381 -1.6887  1.1662  2.2435
   82MOL   H27240934   6.672   6.055   4.122  0.2925  0.3960 -0.1225
   82MOL   H27340935   6.598   6.090   3.903  2.8519 -0.8880 -1.0991
   82MOL   H27440936   6.560   6.340   3.824  1.0927  0.6950 -0.8655
   82MOL   H27540937   6.619   6.524   3.969 -0.8229 -1.1232 -2.1219
   82MOL   H27640938   6.676   6.480   4.207 -1.5569  0.7388 -1.3672
   82MOL   C27740939   6.746   6.488   4.764 -0.4391  0.0144 -0.0358
   82MOL   C27840940   6.895   6.547   4.783 -0.0419  0.0368  0.0150
   82MOL   C27940941   6.933   6.638   4.666  0.2045  0.0177  0.1168
   82MOL   C28040942   6.994   6.430   4.783 -0.2140 -0.4714  0.5854
   82MOL   O28140943   7.100   6.423   4.712 -0.1729 -0.3095 -0.1977
   82MOL   O28240944   6.961   6.331   4.868 -0.2455 -0.1012  0.5070
   82MOL   C28340945   7.053   6.221   4.863  0.1759  0.1897 -0.0181
   82MOL   C28440946   7.014   6.129   4.980  0.2168 -0.9311  0.2674
   82MOL   C28540947   6.879   6.081   5.001 -0.5282  0.1728 -0.2687
   82MOL   C28640948   6.845   5.991   5.103 -0.5444  0.1504 -0.1557
   82MOL   C28740949   6.944   5.934   5.188 -0.2533  0.6179  0.0575
   82MOL   C28840950   7.073   5.980   5.167 -0.2358  0.0922 -0.6877
   82MOL   C28940951   7.111   6.074   5.065 -0.1166 -0.0313  0.4618
   82MOL   H29040952   6.730   6.394   4.818 -0.3508  1.1361  1.9710
   82MOL   H29140953   6.677   6.555   4.815  0.7573  0.7316  0.6614
   82MOL   H29240954   6.929   6.588   4.569  3.7570 -1.5251  0.7099
   82MOL   H29340955   7.035   6.677   4.675  0.8651 -1.7073  0.2084
   82MOL   H29440956   6.865   6.723   4.660  0.5861  0.3106 -0.1289
   82MOL   H29540957   7.040   6.161   4.773  0.4252 -1.1564  0.8349
   82MOL   H29640958   7.159   6.247   4.865  0.2899 -0.0792 -1.7644
   82MOL   H29740959   6.805   6.139   4.947  0.1173  0.8453 -0.4428
   82MOL   H29840960   6.742   5.962   5.120 -0.0482  0.8132  4.6349
   82MOL   H29940961   6.917   5.852   5.254 -1.3255  0.2244 -0.8393
   82MOL   H30040962   7.155   5.939   5.225  0.5898  1.7835 -0.6289
   82MOL   H30140963   7.216   6.088   5.046  0.2555 -0.7523  1.9568
   82MOL   C30240964   6.889   6.613   4.925  0.8910  0.5846 -0.2165
   82MOL   C30340965   7.005   6.692   4.985  0.3028  0.0249  0.3561
   82MOL   C30440966   7.145   6.627   4.958 -0.1730  0.0343  0.3872
   82MOL   C30540967   6.978   6.694   5.142  0.0076  0.4738  0.1185
   82MOL   O30640968   6.884   6.761   5.183 -0.1563  0.0400 -0.0308
   82MOL   O30740969   7.043   6.600   5.207 -0.3956 -0.2739  0.1969
   82MOL   C30840970   7.018   6.576   5.343 -0.2042  0.6716 -0.6420
   82MOL   C30940971   6.904   6.471   5.363  0.5470  0.0611 -0.5439
   82MOL   C31040972   6.776   6.518   5.391  0.1614 -0.3742  0.3030
   82MOL   C31140973   6.665   6.434   5.382 -0.5995  0.2721  0.3762
   82MOL   C31240974   6.688   6.293   5.370  0.1013 -0.0462  0.0571
   82MOL   C31340975   6.820   6.248   5.345 -0.0484 -0.1744 -0.0915
   82MOL   C31440976   6.926   6.334   5.335 -0.4693 -0.1675 -0.0834
   82MOL   H31540977   6.858   6.529   4.987 -1.7259  0.5469 -1.4808
   82MOL   H31640978   6.796   6.669   4.932  1.3916  1.4482 -0.4042
   82MOL   H31740979   7.151   6.520   4.979 -0.2601 -0.4556 -1.9346
   82MOL   H31840980   7.223   6.672   5.020  2.5071 -0.5749 -2.4061
   82MOL   H31940981   7.173   6.637   4.853  0.9478 -1.1323  0.5655
   82MOL   H32040982   7.111   6.551   5.393  0.1104 -0.2369 -1.6526
   82MOL   H32140983   7.002   6.675   5.385  2.6695  0.5890  0.6975
   82MOL   H32240984   6.757   6.620   5.422 -4.0410 -1.3314  1.2440
   82MOL   H32340985   6.569   6.471   5.413 -0.5223  2.2398 -1.6337
   82MOL   H32440986   6.612   6.216   5.372  3.2786 -3.3761 -1.6853
   82MOL   H32540987   6.842   6.146   5.316  0.1989  0.3387 -1.7654
   82MOL   H32640988   7.028   6.303   5.315 -0.7927 -0.4018 -1.4150
   82MOL   C32740989   7.011   6.841   4.920  0.2290 -0.1427  0.1708
   82MOL   C32840990   7.081   6.971   4.980  0.2537 -0.0996 -0.2811
   82MOL   C32940991   7.206   6.929   5.064  0.3917 -0.3778  0.0952
   82MOL   C33040992   6.977   7.046   5.076  0.3683 -0.2119  0.4458
   82MOL   O33140993   6.992   7.051   5.196  0.6630 -0.0831  0.1345
   82MOL   O33240994   6.858   7.084   5.021 -0.4592  0.4926 -0.0494
   82MOL   C33340995   6.759   7.137   5.108  0.5759 -0.2897  0.2572
   82MOL   C33440996   6.628   7.147   5.034 -0.8322 -0.3522  0.7325
   82MOL   C33540997   6.562   7.029   4.996 -0.2721  0.3548  0.1828
   82MOL   C33640998   6.436   7.051   4.933 -0.3012 -0.1455 -0.9840
   82MOL   C33740999   6.382   7.176   4.904 -0.1013  0.0523  0.1315
   82MOL   C33841000   6.454   7.291   4.940 -0.8454  0.0847  0.4460
   82MOL   C33941001   6.578   7.275   5.011  0.4023  0.5196  0.4458
   82MOL   H34041002   6.909   6.877   4.906  0.3882  0.0395 -0.5400
   82MOL   H34141003   7.064   6.822   4.827  1.5413  2.8319  0.2399
   82MOL   H34241004   7.270   6.884   4.989  0.2423 -2.0741  0.9393
   82MOL   H34341005   7.175   6.852   5.136 -1.1940 -1.7167 -1.9733
   82MOL   H34441006   7.257   7.014   5.108 -0.6835  1.4145 -2.0240
   82MOL   H34541007   6.739   7.082   5.200 -2.5633  1.3971  0.6647
   82MOL   H34641008   6.797   7.231   5.147 -0.9198 -0.3846  2.0624
   82MOL   H34741009   6.607   6.932   5.016 -0.9097 -0.1788 -0.9090
   82MOL   H34841010   6.392   6.956   4.905 -1.2802  0.1374 -0.4282
   82MOL   H34941011   6.284   7.175   4.860 -0.0517  2.2869 -0.0783
   82MOL   H35041012   6.414   7.389   4.922 -0.1710  0.7728  2.5637
   82MOL   H35141013   6.626   7.365   5.046  2.0895 -0.0296 -0.3656
   82MOL   C35241014   7.122   7.061   4.859 -0.4577 -0.7400 -0.6287
   82MOL   C35341015   7.163   7.220   4.859 -0.6506  1.1249  0.9725
   82MOL   C35441016   7.027   7.305   4.891 -0.5121  0.5487  0.4450
   82MOL   C35541017   7.211   7.245   4.711 -0.3752  0.0308  0.7445
   82MOL   O35641018   7.164   7.339   4.641  0.2564 -0.1508  0.4769
   82MOL   O35741019   7.312   7.176   4.676  0.3376  0.1385 -0.2290
   82MOL   C35841020   7.370   7.181   4.552 -0.8822 -0.0883 -0.1624
   82MOL   C35941021   7.403   7.037   4.521 -0.3511  0.4706  0.1435
   82MOL   C36041022   7.310   6.928   4.543 -0.2067  0.2964  0.7847
   82MOL   C36141023   7.350   6.797   4.515  0.4838  0.0800  0.5157
   82MOL   C36241024   7.485   6.768   4.482 -0.1118 -0.3040 -0.7612
   82MOL   C36341025   7.578   6.872   4.462 -0.1450 -0.1276 -0.5071
   82MOL   C36441026   7.532   7.004   4.480 -0.1610 -0.0067 -0.1993
   82MOL   H36541027   7.038   7.053   4.789 -0.9828  1.8337 -0.3429
   82MOL   H36641028   7.200   7.010   4.803  1.2721  0.8447  0.3179
   82MOL   H36741029   7.033   7.411   4.867 -3.8932  0.9299  1.0412
   82MOL   H36841030   6.999   7.310   4.996  2.6765 -0.9828  1.4546
   82MOL   H36941031   6.949   7.261   4.830  0.0444 -2.1377  1.5873
   82MOL   H37041032   7.306   7.235   4.483 -0.8587 -0.4212 -0.4457
   82MOL   H37141033   7.457   7.244   4.569 -1.5891  0.4057  1.7115
   82MOL   H37241034   7.208   6.941   4.577  0.3616 -0.7081  2.9884
   82MOL   H37341035   7.285   6.714   4.538  1.0688 -1.2499 -2.4287
   82MOL   H37441036   7.527   6.669   4.467 -0.6696 -0.3465 -2.1238
   82MOL   H37541037   7.681   6.864   4.431  0.1767 -0.0602  0.5560
   82MOL   H37641038   7.604   7.081   4.457 -1.0202  1.4435  1.8791
   82MOL   C37741039   7.276   7.229   4.962  0.5702 -0.2436  0.6819
   82MOL   C37841040   7.358   7.356   4.994 -0.3160 -0.0269 -0.3684
   82MOL   C37941041   7.261   7.477   5.012 -0.1916 -0.3266 -0.3152
   82MOL   C38041042   7.465   7.390   4.887  0.2848  0.5008  0.2687
   82MOL   O38141043   7.512   7.303   4.809 -0.1340 -0.0959 -0.5780
   82MOL   O38241044   7.487   7.525   4.890 -0.4142  0.2888 -0.6888
   82MOL   C38341045   7.563   7.589   4.788  0.0637  0.3236  0.5649
   82MOL   C38441046   7.469   7.636   4.674  0.2477 -0.0959  0.3764
   82MOL   C38541047   7.343   7.700   4.692  0.0644  0.3491  0.5083
   82MOL   C38641048   7.271   7.750   4.579 -0.2392  0.6361  0.0889
   82MOL   C38741049   7.320   7.729   4.447 -0.1239  0.1621 -0.3814
   82MOL   C38841050   7.441   7.661   4.423 -0.7071  0.0228 -0.3823
   82MOL   C38941051   7.520   7.628   4.538 -0.6211  0.1348 -0.1531
   82MOL   H39041052   7.341   7.143   4.951 -1.4257 -1.7442  0.2274
   82MOL   H39141053   7.211   7.214   5.048 -1.1710  1.1804 -0.3437
   82MOL   H39241054   7.309   7.560   5.063 -1.1813 -0.2144  0.4314
   82MOL   H39341055   7.169   7.453   5.065 -0.4463  0.7847 -0.2370
   82MOL   H39441056   7.224   7.507   4.913  2.3355 -0.6296 -1.4083
   82MOL   H39541057   7.618   7.671   4.834 -0.5952  0.8664  0.3889
   82MOL   H39641058   7.651   7.532   4.759 -0.1324  0.9324 -1.3478
   82MOL   H39741059   7.299   7.724   4.787 -3.5372 -0.2654 -0.8915
   82MOL   H39841060   7.181   7.809   4.586 -1.1984 -0.7932 -0.1459
   82MOL   H39941061   7.273   7.763   4.356  2.5711  0.0301 -1.8528
   82MOL   H40041062   7.484   7.656   4.324 -0.4610  0.9422 -0.3213
   82MOL   H40141063   7.617   7.590   4.512 -0.5901  0.2438 -0.1970
   82MOL   C40241064   7.412   7.328   5.144  0.4931  0.3472  0.0406
   82MOL   C40341065   7.545   7.383   5.213 -0.5701 -0.3207  0.1670
   82MOL   C40441066   7.532   7.542   5.214  0.1474  0.0886  0.3094
   82MOL   C40541067   7.663   7.345   5.114  0.9032  1.0089  1.0504
   82MOL   O40641068   7.752   7.418   5.068  0.1879 -0.6995  0.0555
   82MOL   O40741069   7.653   7.218   5.087 -0.4592  0.1290 -0.5851
   82MOL   C40841070   7.741   7.157   4.998 -0.1431 -0.1990 -0.7901
   82MOL   C40941071   7.707   7.011   4.966 -0.8578 -0.3069  0.0589
   82MOL   C41041072   7.780   6.906   5.034 -0.5787  0.5495  0.0718
   82MOL   C41141073   7.745   6.774   5.010  0.4528 -0.5596 -0.2331
   82MOL   C41241074   7.642   6.735   4.913 -0.5722  0.3607 -0.1657
   82MOL   C41341075   7.569   6.839   4.853  0.0114  0.5472  0.1036
   82MOL   C41441076   7.603   6.976   4.876  0.3111  1.3387  0.2893
   82MOL   H41541077   7.406   7.222   5.168  1.6317  0.5119  1.1112
   82MOL   H41641078   7.327   7.360   5.205  0.1910 -1.5580  0.6585
   82MOL   H41741079   7.628   7.584   5.246  0.9031 -0.8669 -0.6399
   82MOL   H41841080   7.451   7.585   5.272  1.5738  1.2168  1.5007
   82MOL   H41941081   7.514   7.578   5.112 -1.0936 -0.0068  0.4916
   82MOL   H42041082   7.739   7.217   4.907  1.7929 -0.5611 -1.0921
   82MOL   H42141083   7.840   7.166   5.044 -0.6120  3.7744 -0.4005
   82MOL   H42241084   7.862   6.925   5.102 -0.5218 -0.4278  0.2736
   82MOL   H42341085   7.809   6.699   5.054  2.0462  1.9797  1.9414
   82MOL   H42441086   7.628   6.631   4.889 -2.7798  0.5753  0.0999
   82MOL   H42541087   7.491   6.815   4.783  1.5987  0.0656 -1.5488
   82MOL   H42641088   7.540   7.052   4.832 -3.5886 -1.6844  0.3065
   82MOL   C42741089   7.585   7.303   5.350 -0.0775 -0.4624  0.6172
   82MOL   C42841090   7.509   7.314   5.486  0.2165  0.3345  0.0066
   82MOL   C42941091   7.360   7.328   5.461  0.7689 -0.6476  0.3064
   82MOL   C43041092   7.555   7.440   5.565  0.1144  0.3572  0.2472
   82MOL   O43141093   7.635   7.522   5.518 -0.1667 -0.6765 -0.1446
   82MOL   O43241094   7.489   7.447   5.681  0.5156  0.1342 -0.3864
   82MOL   C43341095   7.544   7.527   5.784 -0.1848 -0.4642  0.6020
   82MOL   C43441096   7.534   7.474   5.926  0.0309  0.0952 -0.4206
   82MOL   C43541097   7.492   7.338   5.949 -0.1172 -0.1616  0.0206
   82MOL   C43641098   7.500   7.288   6.084  0.7280  0.7153 -0.2245
   82MOL   C43741099   7.547   7.367   6.191  0.1991  1.0157  0.1382
   82MOL   C43841100   7.583   7.498   6.160 -0.6919 -0.6625  0.3602
   82MOL   C43941101   7.572   7.552   6.033 -0.1289  0.0438  0.5384
   82MOL   H44041102   7.688   7.334   5.367 -0.2729  0.2951  0.4678
   82MOL   H44141103   7.597   7.198   5.327  1.6254 -0.5458  1.8411
   82MOL   H44241104   7.311   7.247   5.406  0.2105 -0.7588  0.9478
   82MOL   H44341105   7.328   7.420   5.412 -1.9816 -1.8521 -0.2558
   82MOL   H44441106   7.304   7.332   5.555 -0.8780 -0.2974 -0.6764
   82MOL   H44541107   7.650   7.543   5.769  0.0240 -0.5898  1.8865
   82MOL   H44641108   7.492   7.623   5.777 -0.6404 -0.9394 -3.7277
   82MOL   H44741109   7.461   7.280   5.864  0.3774 -0.0490 -0.2399
   82MOL   H44841110   7.441   7.199   6.100  0.5464  1.1119  1.4293
   82MOL   H44941111   7.538   7.341   6.295  1.1775  0.8572  0.1889
   82MOL   H45041112   7.613   7.570   6.235 -1.4025  1.9408 -1.7950
   82MOL   H45141113   7.594   7.654   6.005 -0.1752  0.7664  3.0070
   82MOL   C45241114   7.514   7.180   5.572 -0.0506  0.2315  1.2484
   82MOL   C45341115   7.649   7.112   5.622 -0.6364  0.2528  0.4240
   82MOL   C45441116   7.763   7.208   5.660 -0.6561 -0.2747 -0.9806
   82MOL   C45541117   7.705   7.015   5.512 -0.2135 -0.6911  0.0564
   82MOL   O45641118   7.814   7.024   5.456 -0.0947 -0.1361  0.2680
   82MOL   O45741119   7.622   6.917   5.485 -0.5174  0.4730 -0.5221
   82MOL   C45841120   7.636   6.845   5.368  0.0884 -0.0620  0.4665
   82MOL   C45941121   7.554   6.720   5.364  0.1247  0.1586  0.0476
   82MOL   C46041122   7.540   6.638   5.484  0.6346 -0.3610  0.2008
   82MOL   C46141123   7.476   6.511   5.479 -0.1180 -0.6562  0.0846
   82MOL   C46241124   7.401   6.478   5.363  0.2333  0.8129  0.5298
   82MOL   C46341125   7.403   6.563   5.249 -0.2694 -0.1123  0.4804
   82MOL   C46441126   7.476   6.681   5.250 -0.7106 -0.0212  1.0376
   82MOL   H46541127   7.455   7.106   5.517  0.5398  0.0320  0.8720
   82MOL   H46641128   7.450   7.197   5.658  0.3239  1.6154  1.2512
   82MOL   H46741129   7.852   7.154   5.693 -1.2734 -0.8599 -0.2854
   82MOL   H46841130   7.742   7.268   5.748  1.6011 -0.9936  0.0769
   82MOL   H46941131   7.778   7.277   5.576  1.0345  2.8868  1.7883
   82MOL   H47041132   7.586   6.917   5.304  2.7347  0.2295 -1.3426
   82MOL   H47141133   7.739   6.843   5.333  0.4768 -1.9718  1.6197
   82MOL   H47241134   7.601   6.660   5.570  0.4760  0.6855  0.0572
   82MOL   H47341135   7.493   6.447   5.564 -0.8244  1.2103  1.6496
   82MOL   H47441136   7.344   6.386   5.358  1.8152 -0.1669  0.1271
   82MOL   H47541137   7.352   6.541   5.157 -0.4525  1.6006  0.1563
   82MOL   H47641138   7.465   6.739   5.160  0.6243 -1.2630  0.0537
   82MOL   C47741139   7.616   7.029   5.753 -0.3673  0.3268 -0.0021
   82MOL   C47841140   7.693   6.905   5.795 -0.4690 -0.4210 -0.1016
   82MOL   C47941141   7.618   6.809   5.879 -0.0347  0.0246 -0.1556
   82MOL   C48041142   7.831   6.930   5.869  0.5796  0.7538 -0.5797
   82MOL   O48141143   7.849   7.021   5.942  0.6246  0.0714 -0.4651
   82MOL   O48241144   7.922   6.833   5.832 -0.4636  0.7891 -0.4232
   82MOL   C48341145   0.050   6.839   5.874  0.6634 -0.5597 -0.1799
   82MOL   C48441146   0.090   6.720   5.960  0.3840  0.1282  1.1842
   82MOL   C48541147   0.125   6.733   6.099  0.6556 -0.2507 -0.2100
   82MOL   C48641148   0.177   6.618   6.165  0.0718  0.9704 -0.2783
   82MOL   C48741149   0.177   6.494   6.096  0.1258 -0.1727 -0.3398
   82MOL   C48841150   0.119   6.477   5.966  0.1806  0.4076 -0.4963
   82MOL   C48941151   0.085   6.595   5.897  0.3061  0.0710 -0.5440
   82MOL   H49041152   7.512   6.998   5.744  0.0382 -1.2121  0.4792
   82MOL   H49141153   7.615   7.094   5.841 -0.1142  2.1529 -1.3257
   82MOL   H49241154   7.591   6.861   5.971  1.9575 -3.1882  2.3527
   82MOL   H49341155   7.679   6.725   5.911 -4.6051 -2.5864  2.2273
   82MOL   H49441156   7.527   6.781   5.825  0.4820 -1.4320 -0.3035
   82MOL   H49541157   0.110   6.837   5.783  1.7444 -1.2329  0.5272
   82MOL   H49641158   0.076   6.930   5.928  0.3214 -1.2838  1.2260
   82MOL   H49741159   0.098   6.822   6.154 -0.3380 -0.3860 -0.4773
   82MOL   H49841160   0.204   6.617   6.269 -1.5059 -0.9564  0.1376
   82MOL   H49941161   0.217   6.404   6.139  0.7644  0.1012 -0.3476
   82MOL   H50041162   0.116   6.382   5.916 -0.5818  1.1590 -1.9206
   82MOL   H50141163   0.062   6.584   5.792  3.0314  1.8038 -1.3438
   82MOL   H50241164   7.714   6.843   5.708  0.5288 -1.9704  1.2036
   83MOL     C141165   3.270   1.111   7.044 -0.3654 -0.5207 -0.5160
   83MOL     C241166   3.269   1.261   7.028  0.3603 -0.6301  0.1788
   83MOL     C341167   3.321   1.323   7.162  0.5182  0.0700  0.4045
   83MOL     C441168   3.123   1.301   6.992 -0.5144 -0.0850 -0.3804
   83MOL     O541169   3.064   1.371   7.068  0.2502  0.4421 -0.2584
   83MOL     O641170   3.080   1.259   6.870  0.3153 -0.3644 -0.0088
   83MOL     C741171   2.952   1.278   6.815  0.1102 -0.6530  0.0521
   83MOL     C841172   2.954   1.231   6.676  0.6144 -0.7082  0.4298
   83MOL     C941173   3.058   1.282   6.590  0.0883  0.5743 -0.7391
   83MOL    C1041174   3.052   1.244   6.454 -0.6809  0.2874  0.9095
   83MOL    C1141175   2.947   1.172   6.403  0.5436  0.7880  0.5023
   83MOL    C1241176   2.843   1.127   6.487  0.0327  0.7464  0.1491
   83MOL    C1341177   2.844   1.155   6.625 -0.5746  0.2724  0.1912
   83MOL    H1441178   3.195   1.069   7.111 -0.3256  1.0043  0.5172
   83MOL    H1541179   3.255   1.054   6.952  1.8272 -2.8581  0.5358
   83MOL    H1641180   3.415   1.282   7.199  0.3373  0.9397  1.8386
   83MOL    H1741181   3.245   1.335   7.239  0.3397  3.1238 -0.1908
   83MOL    H1841182   3.358   1.422   7.134 -1.1760  0.3876 -0.7752
   83MOL    H1941183   2.874   1.214   6.857 -2.9936  1.0523 -2.8385
   83MOL    H2041184   2.929   1.383   6.833  2.7370  0.0540 -0.5105
   83MOL    H2141185   3.148   1.336   6.616 -0.1959  0.6024  0.1920
   83MOL    H2241186   3.130   1.280   6.389  0.6142 -1.7608  1.2653
   83MOL    H2341187   2.939   1.152   6.297  0.9989 -0.7938  0.7660
   83MOL    H2441188   2.760   1.073   6.444 -0.4549  1.3587  0.3249
   83MOL    H2541189   2.756   1.129   6.681 -0.4531 -4.6911 -1.7149
   83MOL    H2641190   3.362   1.066   7.081  0.1249  1.4295  0.7063
   83MOL    C2741191   3.378   1.284   6.913 -0.0234  0.0133 -0.7393
   83MOL    C2841192   3.453   1.423   6.878  0.1571 -0.6748  0.7589
   83MOL    C2941193   3.565   1.451   6.988 -0.6432 -0.0456  0.4095
   83MOL    C3041194   3.362   1.555   6.881  0.2832  0.5686 -0.9268
   83MOL    O3141195   3.400   1.659   6.935 -0.3483  0.5418 -0.0969
   83MOL    O3241196   3.238   1.539   6.822  0.6724 -0.0150 -0.5299
   83MOL    C3341197   3.131   1.635   6.846 -0.4607 -0.2297 -0.5566
   83MOL    C3441198   3.067   1.678   6.719 -0.0479 -0.2856 -0.1782
   83MOL    C3541199   3.116   1.791   6.659  0.3609 -0.3722  0.8542
   83MOL    C3641200   3.065   1.830   6.537 -0.1771  0.2814  0.5023
   83MOL    C3741201   2.965   1.754   6.470  0.2162 -0.4824  0.6682
   83MOL    C3841202   2.903   1.643   6.532 -0.0907  0.5286  0.0112
   83MOL    C3941203   2.961   1.611   6.656  0.2844  0.2090  0.4562
   83MOL    H4041204   3.322   1.258   6.823 -2.2516 -0.6400  0.8115
   83MOL    H4141205   3.460   1.214   6.931 -0.6342 -0.3265  0.7492
   83MOL    H4241206   3.637   1.372   7.006  2.7491  2.5261 -1.2507
   83MOL    H4341207   3.526   1.487   7.083 -0.3947  0.7745  0.2037
   83MOL    H4441208   3.625   1.535   6.953 -1.6290 -0.2184 -1.8366
   83MOL    H4541209   3.047   1.590   6.899 -1.1456 -0.2425 -1.6396
   83MOL    H4641210   3.152   1.718   6.914  0.5979  0.3767 -1.5983
   83MOL    H4741211   3.200   1.844   6.701  0.8724 -1.4747  1.2474
   83MOL    H4841212   3.111   1.914   6.487  2.0798  1.0139  3.6726
   83MOL    H4941213   2.927   1.787   6.375 -3.2174 -2.1037  1.4044
   83MOL    H5041214   2.818   1.594   6.488  1.6772 -0.4526 -2.4169
   83MOL    H5141215   2.905   1.537   6.712 -1.7836  0.3264 -1.3790
   83MOL    C5241216   3.526   1.393   6.738 -0.0311 -0.1325  0.1075
   83MOL    C5341217   3.587   1.501   6.635 -0.0156  0.8977  0.5457
   83MOL    C5441218   3.675   1.608   6.706  0.4161  0.8674 -0.1568
   83MOL    C5541219   3.478   1.576   6.558  0.0696 -0.8227 -0.2431
   83MOL    O5641220   3.365   1.534   6.552 -0.1549 -0.0198  0.1397
   83MOL    O5741221   3.524   1.689   6.496 -1.2004 -0.0852 -0.1509
   83MOL    C5841222   3.438   1.773   6.430  0.4171 -0.0749  0.0295
   83MOL    C5941223   3.400   1.732   6.295 -0.1601  0.5625 -0.6016
   83MOL    C6041224   3.267   1.737   6.256  0.1717  0.0284  0.3468
   83MOL    C6141225   3.234   1.714   6.120  0.3306  0.0356  0.0911
   83MOL    C6241226   3.328   1.665   6.031 -0.7047 -0.2845  0.1294
   83MOL    C6341227   3.462   1.652   6.070 -0.7681  0.1402  0.1125
   83MOL    C6441228   3.497   1.694   6.200  0.3981  0.1278  0.2432
   83MOL    H6541229   3.464   1.322   6.684 -1.1587  1.0100 -0.1165
   83MOL    H6641230   3.611   1.332   6.770 -0.8965  0.2855  3.4391
   83MOL    H6741231   3.612   1.682   6.757  0.4685  0.6989  0.1568
   83MOL    H6841232   3.737   1.656   6.631  0.5398  0.7381 -0.1367
   83MOL    H6941233   3.752   1.577   6.777 -0.1494  0.5109  0.3090
   83MOL    H7041234   3.351   1.795   6.492  2.9570  0.1762  3.6855
   83MOL    H7141235   3.484   1.872   6.426 -0.9620  0.5810  0.3758
   83MOL    H7241236   3.188   1.770   6.322 -0.0496 -1.8565  1.0834
   83MOL    H7341237   3.129   1.714   6.093  0.6256 -1.1670 -1.0903
   83MOL    H7441238   3.301   1.658   5.927  2.8285  0.6686 -0.9128
   83MOL    H7541239   3.547   1.618   6.012  0.4363  0.2188  1.7844
   83MOL    H7641240   3.602   1.700   6.228  0.8366  1.4529 -1.5948
   83MOL    C7741241   3.684   1.432   6.527 -0.5758  0.6784  0.4014
   83MOL    C7841242   3.667   1.321   6.420  0.7563 -0.0942  0.6864
   83MOL    C7941243   3.532   1.337   6.342  0.4695 -1.1454 -0.2144
   83MOL    C8041244   3.657   1.180   6.483  0.4175  0.1273 -0.1260
   83MOL    O8141245   3.734   1.090   6.440  0.6519  0.2396 -0.2595
   83MOL    O8241246   3.556   1.153   6.582  0.2473  0.4831  0.5102
   83MOL    C8341247   3.560   1.036   6.656 -0.2082 -0.0657 -0.2940
   83MOL    C8441248   3.430   0.954   6.648 -0.2142  1.0360  0.4854
   83MOL    C8541249   3.439   0.820   6.686  0.2357  0.0747 -0.5834
   83MOL    C8641250   3.319   0.752   6.705 -0.2232  0.1924  0.2259
   83MOL    C8741251   3.195   0.810   6.684  0.0548  0.3071  0.2091
   83MOL    C8841252   3.189   0.946   6.644 -0.4423 -0.1820  0.4571
   83MOL    C8941253   3.310   1.015   6.620  0.5409 -0.8295 -0.2489
   83MOL    H9041254   3.774   1.408   6.584  0.5173  0.7657 -1.2395
   83MOL    H9141255   3.718   1.513   6.462  0.0750  0.3794  0.3680
   83MOL    H9241256   3.500   1.439   6.320 -1.2420 -1.8426 -1.1128
   83MOL    H9341257   3.448   1.298   6.400  0.0286  0.7385  0.4344
   83MOL    H9441258   3.533   1.272   6.254  0.7804  2.9278 -3.3789
   83MOL    H9541259   3.637   0.967   6.621  0.3018  0.1064  0.4631
   83MOL    H9641260   3.570   1.064   6.761  0.4089 -0.4096 -0.2539
   83MOL    H9741261   3.527   0.774   6.727  1.3879  2.6218 -0.1186
   83MOL    H9841262   3.326   0.650   6.740 -0.1997  0.6344  1.5347
   83MOL    H9941263   3.113   0.746   6.714 -0.5281 -0.8163 -3.5228
   83MOL   H10041264   3.092   0.993   6.633 -0.9112 -0.9297  1.3562
   83MOL   H10141265   3.292   1.118   6.592  1.7326 -0.5298  0.0610
   83MOL   C10241266   3.775   1.337   6.305 -0.2970  0.0652  0.0867
   83MOL   C10341267   3.929   1.360   6.336 -0.4062 -0.1046 -0.3301
   83MOL   C10441268   3.977   1.268   6.446 -0.2050  0.5589 -0.5338
   83MOL   C10541269   3.965   1.503   6.363 -0.0082 -0.7015  0.3349
   83MOL   O10641270   4.056   1.539   6.440  0.2507  0.4677  0.0136
   83MOL   O10741271   3.898   1.599   6.287 -0.7762  0.0113 -0.4165
   83MOL   C10841272   3.931   1.737   6.303  0.4268 -0.2291 -0.0559
   83MOL   C10941273   3.823   1.841   6.280  0.3451  0.6680 -0.1478
   83MOL   C11041274   3.787   1.926   6.390 -0.5827 -0.3508 -0.3557
   83MOL   C11141275   3.704   2.036   6.358 -0.2365  0.0809 -0.9503
   83MOL   C11241276   3.649   2.055   6.230 -0.1665 -0.3625 -0.3142
   83MOL   C11341277   3.682   1.967   6.124 -0.0640  0.1458 -0.2086
   83MOL   C11441278   3.771   1.856   6.152 -0.7154 -0.2939  0.5132
   83MOL   H11541279   3.748   1.407   6.227  0.1983  0.6256  0.4080
   83MOL   H11641280   3.764   1.247   6.245  0.4069 -1.3340  1.9980
   83MOL   H11741281   3.926   1.268   6.543 -0.7195 -0.5413 -0.7983
   83MOL   H11841282   4.074   1.305   6.480 -1.0995  0.9810  1.6527
   83MOL   H11941283   3.976   1.167   6.407 -0.1289 -0.3668  1.7850
   83MOL   H12041284   3.972   1.762   6.401  0.5455  1.7481 -0.5866
   83MOL   H12141285   4.017   1.763   6.241  1.6289  1.0076  2.0718
   83MOL   H12241286   3.821   1.925   6.493 -1.6821  0.0281  0.0166
   83MOL   H12341287   3.684   2.098   6.443  1.1266  0.5229 -0.9349
   83MOL   H12441288   3.574   2.131   6.215 -1.0626 -1.6529 -2.6257
   83MOL   H12541289   3.633   1.967   6.028  2.1718 -0.6678 -1.3789
   83MOL   H12641290   3.792   1.777   6.081 -0.2070  1.3530 -1.2163
   83MOL   C12741291   4.005   1.313   6.206  0.6433  0.0539  0.0340
   83MOL   C12841292   4.162   1.290   6.192 -0.2179 -0.1112 -0.1299
   83MOL   C12941293   4.182   1.149   6.258 -0.7568  0.5260  0.2919
   83MOL   C13041294   4.252   1.402   6.259 -0.7450 -0.7560 -0.0858
   83MOL   O13141295   4.279   1.506   6.202 -0.4005  0.6019 -0.0790
   83MOL   O13241296   4.312   1.365   6.385 -0.1777 -0.0537 -0.3570
   83MOL   C13341297   4.409   1.450   6.437 -0.0203  0.1423  0.4284
   83MOL   C13441298   4.470   1.403   6.568  0.0197 -0.6777 -0.0802
   83MOL   C13541299   4.380   1.360   6.669  0.1181 -0.2666 -0.1203
   83MOL   C13641300   4.436   1.305   6.785  0.1720 -0.6179 -0.2444
   83MOL   C13741301   4.570   1.308   6.813  0.0939  0.2590  0.0587
   83MOL   C13841302   4.660   1.353   6.716  0.1217 -0.4288 -0.0511
   83MOL   C13941303   4.605   1.400   6.594  0.1770  0.0263 -0.0019
   83MOL   H14041304   3.983   1.387   6.128 -1.1323 -0.4723  0.0174
   83MOL   H14141305   3.960   1.225   6.160 -0.3057  1.4943 -1.8846
   83MOL   H14241306   4.175   1.155   6.367  0.4360 -1.4814  0.5021
   83MOL   H14341307   4.284   1.110   6.252 -0.8144  0.5338 -0.7999
   83MOL   H14441308   4.110   1.075   6.224 -1.6940 -0.2688  3.7707
   83MOL   H14541309   4.485   1.456   6.360  0.1152 -0.8858  0.4761
   83MOL   H14641310   4.380   1.555   6.451  1.4692  0.4169  1.5762
   83MOL   H14741311   4.277   1.351   6.639 -0.5693  2.1291  1.3685
   83MOL   H14841312   4.370   1.285   6.868  1.1995 -1.0237  0.4898
   83MOL   H14941313   4.602   1.271   6.909 -0.8844 -0.1533  0.2310
   83MOL   H15041314   4.766   1.349   6.735 -0.0286  0.1664  0.9582
   83MOL   H15141315   4.677   1.419   6.516  1.8395  0.8363  1.6953
   83MOL   C15241316   4.193   1.291   6.040  0.2719  0.2966 -0.0077
   83MOL   C15341317   4.331   1.237   5.971  0.2308  0.6724  0.0186
   83MOL   C15441318   4.346   1.308   5.833 -0.3653  0.1331 -0.0391
   83MOL   C15541319   4.307   1.089   5.942  0.7393  0.1850 -0.2169
   83MOL   O15641320   4.267   1.040   5.832 -0.1311  0.2200 -0.3330
   83MOL   O15741321   4.322   1.015   6.049 -0.5249 -0.0479 -0.4363
   83MOL   C15841322   4.286   0.878   6.049 -0.0588 -0.6519 -0.2116
   83MOL   C15941323   4.270   0.834   6.190 -0.1226  0.1934  0.3763
   83MOL   C16041324   4.374   0.859   6.282 -0.2844 -0.4369 -0.0460
   83MOL   C16141325   4.379   0.812   6.409 -0.1197  0.5730 -0.1849
   83MOL   C16241326   4.277   0.728   6.452 -0.1079 -0.2928  0.6394
   83MOL   C16341327   4.179   0.684   6.358  0.1577  0.3416 -0.2472
   83MOL   C16441328   4.168   0.739   6.232  0.5053 -0.0879  0.6978
   83MOL   H16541329   4.172   1.394   6.014 -1.5288 -0.2642 -0.8395
   83MOL   H16641330   4.106   1.245   5.993  0.8290  0.1988 -0.9422
   83MOL   H16741331   4.434   1.277   5.776 -2.5821 -1.3571 -2.7800
   83MOL   H16841332   4.365   1.413   5.858  0.4064 -0.1370  0.5069
   83MOL   H16941333   4.259   1.299   5.768  1.4391  0.1176 -2.5568
   83MOL   H17041334   4.196   0.873   5.988  0.9053  1.1542 -1.8468
   83MOL   H17141335   4.368   0.825   5.999  0.1553 -1.4125  0.9272
   83MOL   H17241336   4.453   0.925   6.249 -0.8997  1.0168  1.3732
   83MOL   H17341337   4.456   0.840   6.479  0.3091 -1.1899  0.0679
   83MOL   H17441338   4.279   0.694   6.555 -2.6331  0.5831  1.0213
   83MOL   H17541339   4.118   0.600   6.389  1.0199  0.1272  0.8948
   83MOL   H17641340   4.096   0.700   6.162 -0.3062  2.0170  0.3296
   83MOL   C17741341   4.463   1.266   6.060  0.7198 -0.3354  0.0962
   83MOL   C17841342   4.615   1.230   6.031  0.4386 -0.7654  0.4528
   83MOL   C17941343   4.619   1.084   5.982 -0.7458  0.6558 -0.3852
   83MOL   C18041344   4.681   1.249   6.179  0.0907  0.2380  0.0468
   83MOL   O18141345   4.684   1.359   6.229 -0.2037  0.1405 -0.4625
   83MOL   O18241346   4.723   1.133   6.237  0.0490 -0.6427  0.0546
   83MOL   C18341347   4.771   1.144   6.372 -0.0043 -0.2020 -0.0495
   83MOL   C18441348   4.833   1.020   6.427  0.0232 -0.5478 -0.5836
   83MOL   C18541349   4.829   0.995   6.565 -0.0534  0.5154  0.4604
   83MOL   C18641350   4.880   0.870   6.618 -0.0858  0.0376 -0.2477
   83MOL   C18741351   4.936   0.779   6.527 -0.4102  0.2360 -0.3467
   83MOL   C18841352   4.943   0.811   6.387 -0.1279 -0.6155 -0.0404
   83MOL   C18941353   4.893   0.933   6.339  1.4083  0.6527  0.4184
   83MOL   H19041354   4.429   1.213   6.149 -0.2496  1.6820  0.9589
   83MOL   H19141355   4.463   1.374   6.076  0.1918 -0.4588  0.9575
   83MOL   H19241356   4.563   1.070   5.889 -1.7666 -0.2128  0.3438
   83MOL   H19341357   4.575   1.013   6.052 -0.1224  0.0102 -0.6432
   83MOL   H19441358   4.722   1.051   5.966 -1.3575 -1.9672  0.7575
   83MOL   H19541359   4.823   1.236   6.398 -1.1151  0.6312 -0.6988
   83MOL   H19641360   4.676   1.157   6.424  0.2509  0.0966  0.3368
   83MOL   H19741361   4.776   1.062   6.631 -1.4451 -1.2578  1.1881
   83MOL   H19841362   4.875   0.836   6.721 -1.1176  0.1834 -0.2457
   83MOL   H19941363   4.977   0.685   6.560 -2.5435 -1.3002 -1.9331
   83MOL   H20041364   4.991   0.748   6.314 -1.6371 -0.9142 -0.7932
   83MOL   H20141365   4.897   0.972   6.239 -1.4187 -1.6233 -0.6313
   83MOL   C20241366   4.668   1.337   5.921  0.4519 -0.4151  0.0585
   83MOL   C20341367   4.787   1.328   5.817  1.1704  0.2947 -0.4088
   83MOL   C20441368   4.726   1.250   5.702  0.1929  0.7194 -0.6509
   83MOL   C20541369   4.899   1.251   5.885  0.6214  0.0400  0.4215
   83MOL   O20641370   4.936   1.134   5.851 -0.3024 -0.5407  0.6134
   83MOL   O20741371   4.945   1.314   5.996  0.5658  0.4057 -0.2277
   83MOL   C20841372   5.031   1.246   6.084  0.7901 -0.0026  0.4280
   83MOL   C20941373   5.044   1.315   6.218 -0.5024  0.7045  0.9603
   83MOL   C21041374   4.988   1.435   6.249 -0.3766  0.1274  0.0461
   83MOL   C21141375   5.005   1.492   6.378  0.0418 -0.1683 -0.4147
   83MOL   C21241376   5.076   1.421   6.475  0.3902 -0.3024 -0.3084
   83MOL   C21341377   5.122   1.291   6.448 -0.2050 -0.1359  0.7257
   83MOL   C21441378   5.117   1.248   6.315  0.8099  0.1689 -0.0630
   83MOL   H21541379   4.672   1.429   5.980  0.5204  0.7728 -1.7527
   83MOL   H21641380   4.588   1.379   5.860 -0.3724 -2.0725 -0.0368
   83MOL   H21741381   4.649   1.298   5.642 -2.7321  0.1066  2.3979
   83MOL   H21841382   4.687   1.154   5.738  1.8745  0.6523  1.0511
   83MOL   H21941383   4.802   1.219   5.631 -0.2558  0.5950 -1.0841
   83MOL   H22041384   4.997   1.143   6.094 -0.9822  0.6395  1.2372
   83MOL   H22141385   5.128   1.257   6.037 -0.1304  0.8577 -1.3173
   83MOL   H22241386   4.920   1.488   6.184 -2.4521 -1.0052  1.2339
   83MOL   H22341387   4.966   1.589   6.405 -2.9579 -1.3035 -0.4793
   83MOL   H22441388   5.091   1.456   6.576  0.4734  0.9132 -0.7288
   83MOL   H22541389   5.167   1.226   6.522  2.1002 -0.6581 -1.0889
   83MOL   H22641390   5.164   1.154   6.290  0.2994  0.1148 -0.8302
   83MOL   C22741391   4.831   1.477   5.783 -0.1563  0.3073 -0.7849
   83MOL   C22841392   4.934   1.523   5.679 -0.4249  0.0235  0.3051
   83MOL   C22941393   5.075   1.454   5.700 -0.3327 -0.0666 -0.1739
   83MOL   C23041394   4.949   1.671   5.687 -0.7440  0.3769 -0.5413
   83MOL   O23141395   5.070   1.711   5.709 -0.2155 -0.2737 -0.3719
   83MOL   O23241396   4.836   1.748   5.679 -0.2731 -0.7512 -0.3270
   83MOL   C23341397   4.840   1.888   5.703  0.2747 -0.3590 -0.7096
   83MOL   C23441398   4.714   1.962   5.680  0.5026 -0.4765  0.2465
   83MOL   C23541399   4.606   1.906   5.605 -0.7665 -0.7203  0.3695
   83MOL   C23641400   4.491   1.982   5.580  0.3489 -0.5121 -0.3566
   83MOL   C23741401   4.480   2.111   5.635  0.9107  0.7412  0.0165
   83MOL   C23841402   4.580   2.170   5.710  0.0211 -0.1604 -0.3765
   83MOL   C23941403   4.702   2.095   5.726 -0.1943 -0.4170  0.2056
   83MOL   H24041404   4.868   1.518   5.877 -1.6613 -0.3360  0.1142
   83MOL   H24141405   4.745   1.541   5.767 -0.0729  1.0929  1.7114
   83MOL   H24241406   5.155   1.483   5.632 -0.1519 -0.5794 -0.1845
   83MOL   H24341407   5.061   1.347   5.686  0.1100  0.0747 -1.7290
   83MOL   H24441408   5.121   1.475   5.797 -1.9827  0.0063  0.5954
   83MOL   H24541409   4.848   1.896   5.811  0.5446  1.5608 -0.8612
   83MOL   H24641410   4.932   1.933   5.664 -1.1655  1.3764 -2.1656
   83MOL   H24741411   4.602   1.811   5.554  0.4692 -0.5105 -0.1361
   83MOL   H24841412   4.413   1.937   5.520  0.8335 -1.9947  0.1224
   83MOL   H24941413   4.389   2.169   5.628  0.1428 -0.4408  0.1244
   83MOL   H25041414   4.566   2.268   5.754 -1.2219 -2.1060  3.8466
   83MOL   H25141415   4.789   2.142   5.768 -0.6786  1.5187 -0.8969
   83MOL   C25241416   4.867   1.486   5.539 -0.1049  0.4384 -0.4904
   83MOL   C25341417   4.914   1.548   5.405 -0.7903 -0.1892 -0.0590
   83MOL   C25441418   4.859   1.439   5.310 -0.2140  0.0619  1.1178
   83MOL   C25541419   5.074   1.544   5.382  0.3312  0.4125 -0.1732
   83MOL   O25641420   5.138   1.645   5.359 -0.1603  0.2859 -0.3752
   83MOL   O25741421   5.121   1.417   5.386 -0.3563  0.2982 -0.5070
   83MOL   C25841422   5.251   1.384   5.332 -0.1029  0.1912 -0.0351
   83MOL   C25941423   5.263   1.403   5.180 -1.0666 -0.2866  0.2185
   83MOL   C26041424   5.159   1.368   5.088  0.0763  0.8210  0.3327
   83MOL   C26141425   5.182   1.389   4.949 -0.2635  0.0488  0.1000
   83MOL   C26241426   5.301   1.450   4.904  0.7166 -1.1732  0.7618
   83MOL   C26341427   5.403   1.486   4.996 -0.1766 -0.0837 -0.1498
   83MOL   C26441428   5.377   1.465   5.131  0.5207 -1.2881 -0.1011
   83MOL   H26541429   4.758   1.490   5.537 -0.0804  0.8105 -1.7412
   83MOL   H26641430   4.889   1.379   5.536 -2.5759 -0.0959 -0.3677
   83MOL   H26741431   4.916   1.347   5.324 -2.6413 -1.3839  1.7216
   83MOL   H26841432   4.863   1.451   5.202 -1.4599 -0.8565  0.9556
   83MOL   H26941433   4.758   1.410   5.337 -0.4230  0.2717  0.5687
   83MOL   H27041434   5.320   1.456   5.377  1.3382 -0.4579 -1.1792
   83MOL   H27141435   5.277   1.281   5.353 -0.0384 -0.5600 -3.5201
   83MOL   H27241436   5.071   1.316   5.122  0.8784  0.2070  1.5186
   83MOL   H27341437   5.112   1.360   4.872  2.3039  0.6291 -2.4955
   83MOL   H27441438   5.294   1.470   4.798 -2.9848 -0.7044  1.0379
   83MOL   H27541439   5.496   1.530   4.961  1.1695 -1.4313  1.6109
   83MOL   H27641440   5.451   1.478   5.208 -0.4628  3.7583  0.1860
   83MOL   C27741441   4.854   1.694   5.380  0.5826 -0.1659  0.4522
   83MOL   C27841442   4.808   1.747   5.235  0.4540 -0.6429  0.1983
   83MOL   C27941443   4.784   1.894   5.264 -0.1384 -0.4774 -0.5404
   83MOL   C28041444   4.675   1.680   5.192  0.7951  0.6627  0.2845
   83MOL   O28141445   4.669   1.584   5.110 -0.0777  0.0421  0.1096
   83MOL   O28241446   4.570   1.729   5.251  0.2911  0.0758  0.0755
   83MOL   C28341447   4.436   1.683   5.230  0.1300 -0.0128 -0.1736
   83MOL   C28441448   4.370   1.676   5.366 -0.2623  0.9573  0.1230
   83MOL   C28541449   4.430   1.592   5.463  0.0998 -0.3654 -0.2729
   83MOL   C28641450   4.375   1.574   5.593 -0.8572 -0.2749 -0.5758
   83MOL   C28741451   4.243   1.621   5.617  0.7205 -0.3436 -0.3477
   83MOL   C28841452   4.186   1.709   5.518 -0.2921  0.1136  0.0525
   83MOL   C28941453   4.251   1.747   5.398  0.4366  0.4322 -0.2220
   83MOL   H29041454   4.922   1.765   5.427  0.8594  0.2384 -0.5546
   83MOL   H29141455   4.767   1.698   5.447 -0.3756 -0.7327 -0.7404
   83MOL   H29241456   4.747   1.958   5.184  0.7072 -1.1582 -1.4890
   83MOL   H29341457   4.879   1.934   5.299 -0.5175  0.6793 -0.8091
   83MOL   H29441458   4.730   1.904   5.358 -1.1052  0.7765 -1.2131
   83MOL   H29541459   4.390   1.757   5.164  1.8481  0.5256 -0.8032
   83MOL   H29641460   4.430   1.589   5.175  3.0318 -0.9771  1.0641
   83MOL   H29741461   4.517   1.535   5.433 -0.6083 -1.0624 -1.0026
   83MOL   H29841462   4.414   1.510   5.671 -0.0381 -0.9876 -1.5549
   83MOL   H29941463   4.196   1.594   5.710  0.4951  0.5105 -0.2019
   83MOL   H30041464   4.092   1.760   5.530 -0.4691  0.5110 -2.7718
   83MOL   H30141465   4.211   1.819   5.329 -0.0481  2.4417  2.0771
   83MOL   C30241466   4.919   1.727   5.126  0.5321 -1.1620  0.1288
   83MOL   C30341467   4.916   1.787   4.976 -0.1634 -0.3091 -0.0184
   83MOL   C30441468   5.006   1.693   4.882 -0.2956 -0.5921  0.3036
   83MOL   C30541469   4.999   1.917   4.993  0.4748 -1.2460  0.0859
   83MOL   O30641470   4.944   2.022   5.019 -0.2614 -0.7468 -0.7357
   83MOL   O30741471   5.131   1.900   4.987  0.0886  0.2071  0.4765
   83MOL   C30841472   5.225   1.986   5.040  0.5713 -0.7146 -0.1769
   83MOL   C30941473   5.350   1.914   5.085  0.7587 -0.1750  0.0945
   83MOL   C31041474   5.469   1.937   5.013 -0.0148 -0.4223  0.6999
   83MOL   C31141475   5.587   1.876   5.045 -0.1475 -0.3005 -0.2472
   83MOL   C31241476   5.585   1.785   5.157  0.2521 -0.4658  0.8359
   83MOL   C31341477   5.463   1.761   5.229 -0.2380 -0.5366 -0.1758
   83MOL   C31441478   5.347   1.834   5.194 -0.2271  0.1434 -0.0796
   83MOL   H31541479   4.918   1.619   5.110 -2.2777 -1.3278  1.0910
   83MOL   H31641480   5.017   1.736   5.172  2.2274 -0.5223 -3.4065
   83MOL   H31741481   5.028   1.750   4.792 -2.9473  1.2140  0.7348
   83MOL   H31841482   4.955   1.602   4.850  0.9654 -1.0947 -0.3181
   83MOL   H31941483   5.097   1.666   4.935  1.8436  2.0884 -1.8501
   83MOL   H32041484   5.238   2.058   4.959 -1.2069 -0.7480 -0.5213
   83MOL   H32141485   5.181   2.050   5.117  0.0889 -0.0872 -0.9538
   83MOL   H32241486   5.472   1.995   4.922  0.2370 -0.2519  0.8142
   83MOL   H32341487   5.683   1.888   4.997 -1.0843  3.2006 -1.3669
   83MOL   H32441488   5.672   1.732   5.192 -0.3723 -1.3382  1.0711
   83MOL   H32541489   5.456   1.692   5.312  0.7549 -0.6213 -0.1523
   83MOL   H32641490   5.256   1.819   5.250  0.2873  2.1097  1.3486
   83MOL   C32741491   4.770   1.796   4.918  0.4146  0.1804  0.6325
   83MOL   C32841492   4.711   1.876   4.784 -0.7050 -0.8437 -0.9787
   83MOL   C32941493   4.798   1.841   4.659  0.0885  0.4809 -0.2534
   83MOL   C33041494   4.714   2.028   4.807  0.5953 -0.5878 -0.1500
   83MOL   O33141495   4.780   2.102   4.736 -0.2734 -0.2039 -0.1368
   83MOL   O33241496   4.647   2.066   4.909  0.5600  0.3909 -0.5065
   83MOL   C33341497   4.659   2.201   4.954 -0.1542 -0.2707  0.2046
   83MOL   C33441498   4.600   2.222   5.093 -0.0498 -0.6421  0.6681
   83MOL   C33541499   4.677   2.219   5.208 -0.6862  0.1870  0.2646
   83MOL   C33641500   4.624   2.244   5.334 -0.5336 -0.2883  0.8455
   83MOL   C33741501   4.486   2.276   5.341  0.2392 -0.2057 -0.2911
   83MOL   C33841502   4.402   2.276   5.224  0.3912 -0.2173 -0.7406
   83MOL   C33941503   4.465   2.256   5.103  0.0588 -0.8986 -0.2131
   83MOL   H34041504   4.714   1.839   5.001  1.1180  1.9047  0.2310
   83MOL   H34141505   4.744   1.691   4.905  3.2327 -0.7496  1.9450
   83MOL   H34241506   4.788   1.733   4.643 -2.7340  0.7548 -0.6341
   83MOL   H34341507   4.904   1.866   4.661 -0.3617  2.5070 -1.0181
   83MOL   H34441508   4.761   1.887   4.567 -1.4754  1.0742  0.6567
   83MOL   H34541509   4.766   2.224   4.950 -0.3052  0.3889 -0.0160
   83MOL   H34641510   4.613   2.264   4.877 -0.3422  1.0143  1.3569
   83MOL   H34741511   4.781   2.195   5.199 -1.3404 -2.3937 -0.6632
   83MOL   H34841512   4.684   2.238   5.423 -2.0130  1.9206  2.0571
   83MOL   H34941513   4.443   2.278   5.440  0.8844 -1.3028  0.0156
   83MOL   H35041514   4.294   2.284   5.232  0.5354 -0.9638  3.2776
   83MOL   H35141515   4.407   2.269   5.013  0.8079 -2.0635 -0.8765
   83MOL   C35241516   4.570   1.817   4.774 -0.2375  0.0662 -0.2367
   83MOL   C35341517   4.458   1.875   4.683  0.8384  0.5969  0.0092
   83MOL   C35441518   4.518   1.943   4.551 -0.5584  0.1403 -0.7805
   83MOL   C35541519   4.382   1.980   4.771 -0.0814 -0.2012  0.4468
   83MOL   O35641520   4.401   2.100   4.757  0.4258 -0.2944 -0.0435
   83MOL   O35741521   4.320   1.923   4.870 -0.5017 -0.5892 -0.4195
   83MOL   C35841522   4.233   1.999   4.955 -0.3333  0.2927 -0.1303
   83MOL   C35941523   4.131   1.912   5.028  0.0646  0.2371  0.3238
   83MOL   C36041524   4.078   1.951   5.150 -1.2528  0.2240  0.0067
   83MOL   C36141525   3.976   1.879   5.210  0.1046  0.6277 -0.0669
   83MOL   C36241526   3.934   1.751   5.154 -0.1812 -0.2294 -0.2221
   83MOL   C36341527   3.991   1.708   5.032 -0.8269 -0.1711 -0.1276
   83MOL   C36441528   4.091   1.789   4.969 -0.1991  0.0243 -0.3993
   83MOL   H36541529   4.529   1.822   4.875 -0.9123 -0.4256 -0.4857
   83MOL   H36641530   4.593   1.713   4.754  2.9179  0.2991  1.7889
   83MOL   H36741531   4.457   2.007   4.487  2.0762  1.2222 -2.3282
   83MOL   H36841532   4.562   1.867   4.486  2.8630  0.6433  0.8423
   83MOL   H36941533   4.600   2.014   4.567  1.6887 -2.2713 -1.2437
   83MOL   H37041534   4.289   2.049   5.034  0.5636 -0.9009 -0.0091
   83MOL   H37141535   4.175   2.078   4.908 -0.2031 -0.9494 -2.4640
   83MOL   H37241536   4.102   2.050   5.187 -2.7881  0.3862  0.6242
   83MOL   H37341537   3.937   1.900   5.308 -0.6103 -0.3872 -0.1278
   83MOL   H37441538   3.861   1.691   5.206 -0.3561 -0.2251 -0.4605
   83MOL   H37541539   3.960   1.615   4.987  0.4198 -0.2779 -0.7874
   83MOL   H37641540   4.124   1.763   4.869 -2.6870 -3.2137 -0.4555
   83MOL   C37741541   4.356   1.754   4.642 -0.2683  0.1076  0.8198
   83MOL   C37841542   4.236   1.769   4.536  0.1899 -0.3139 -0.8144
   83MOL   C37941543   4.156   1.907   4.564  0.0224 -0.1819  0.1048
   83MOL   C38041544   4.132   1.655   4.561  0.6380 -0.7416 -0.4975
   83MOL   O38141545   4.024   1.676   4.620 -0.6261  0.2478  0.0038
   83MOL   O38241546   4.173   1.536   4.506  0.0837  0.2510 -0.4234
   83MOL   C38341547   4.078   1.436   4.498  0.6807 -0.1571  0.4045
   83MOL   C38441548   4.096   1.342   4.374  0.1354  0.0987  0.0277
   83MOL   C38541549   4.223   1.334   4.313 -0.0439 -0.2696 -0.8669
   83MOL   C38641550   4.233   1.263   4.193  0.1634 -0.1229  0.0591
   83MOL   C38741551   4.121   1.205   4.127 -1.1103 -0.0385 -0.1534
   83MOL   C38841552   4.000   1.204   4.196  0.0188  0.1618 -0.1691
   83MOL   C38941553   3.990   1.270   4.322 -0.3940 -0.0683 -0.4426
   83MOL   H39041554   4.314   1.708   4.732 -2.3592 -0.5236 -0.4333
   83MOL   H39141555   4.418   1.670   4.613  0.1953  0.7015  0.0723
   83MOL   H39241556   4.076   1.925   4.493  1.5688 -1.3957 -2.0333
   83MOL   H39341557   4.231   1.986   4.559  2.4873 -2.3735  0.9061
   83MOL   H39441558   4.130   1.898   4.669 -0.8431  2.7849  0.1855
   83MOL   H39541559   4.093   1.376   4.587 -4.0879 -2.2490  0.0003
   83MOL   H39641560   3.977   1.478   4.496  0.3783 -0.8982 -0.4406
   83MOL   H39741561   4.304   1.375   4.371 -0.1903 -0.1884 -0.7210
   83MOL   H39841562   4.332   1.247   4.152 -0.8121 -1.5237 -1.8304
   83MOL   H39941563   4.131   1.153   4.033  1.2395  0.4357 -0.1968
   83MOL   H40041564   3.919   1.160   4.141  1.1659  0.7715 -2.3853
   83MOL   H40141565   3.907   1.284   4.390  1.3139  1.1272  1.4398
   83MOL   C40241566   4.296   1.758   4.399  0.0668 -0.1018  0.0380
   83MOL   C40341567   4.225   1.791   4.260 -0.6573 -0.0576 -0.5000
   83MOL   C40441568   4.255   1.937   4.222  0.0641  0.1663  0.5309
   83MOL   C40541569   4.067   1.777   4.255  0.8411 -0.1577 -0.1377
   83MOL   O40641570   3.986   1.871   4.263  0.0542  0.1274  0.2458
   83MOL   O40741571   4.030   1.650   4.242 -0.2161 -0.1690 -0.0000
   83MOL   C40841572   3.894   1.620   4.228  0.2080 -0.0121 -0.3259
   83MOL   C40941573   3.866   1.593   4.079 -0.2567 -0.4531 -1.0297
   83MOL   C41041574   3.959   1.530   3.995 -0.1362  0.2426  0.2564
   83MOL   C41141575   3.924   1.498   3.865  0.2346 -0.0074 -0.2360
   83MOL   C41241576   3.792   1.516   3.819 -0.0749 -0.0978 -0.1029
   83MOL   C41341577   3.694   1.582   3.899 -0.3749  0.7743 -0.4213
   83MOL   C41441578   3.735   1.623   4.029  0.0406 -0.1778 -0.0396
   83MOL   H41541579   4.347   1.663   4.384  1.7450  0.6050  1.1271
   83MOL   H41641580   4.377   1.832   4.392  0.5893 -0.7290 -0.6732
   83MOL   H41741581   4.216   2.019   4.282  0.3974 -0.6699  1.8999
   83MOL   H41841582   4.206   1.956   4.126  0.8841  0.7527  0.2195
   83MOL   H41941583   4.363   1.952   4.214 -0.0102  0.4515  0.0314
   83MOL   H42041584   3.873   1.535   4.294 -2.2914  2.8679  2.7486
   83MOL   H42141585   3.826   1.699   4.259 -0.3688 -1.5711  2.5562
   83MOL   H42241586   4.055   1.504   4.037  0.2864  2.1143  0.5259
   83MOL   H42341587   3.992   1.444   3.801  0.6608  0.0109  0.1971
   83MOL   H42441588   3.766   1.478   3.721  0.4863  1.5192 -0.9056
   83MOL   H42541589   3.594   1.613   3.874 -0.1145  0.5100 -1.8351
   83MOL   H42641590   3.664   1.665   4.099  1.5232 -1.2520  2.2069
   83MOL   C42741591   4.281   1.696   4.150 -0.4773 -0.5698 -0.1230
   83MOL   C42841592   4.424   1.703   4.081  0.5163 -1.1908 -0.1617
   83MOL   C42941593   4.541   1.734   4.185 -0.0276  0.3073  0.6344
   83MOL   C43041594   4.419   1.815   3.969  0.2595  0.4805  0.3208
   83MOL   O43141595   4.486   1.914   3.963 -0.4453  0.1620 -0.2028
   83MOL   O43241596   4.315   1.788   3.882 -0.2156 -0.7708 -0.0499
   83MOL   C43341597   4.282   1.880   3.781  0.6035 -0.6178 -0.3396
   83MOL   C43441598   4.254   1.812   3.645 -0.0337  0.6366  0.8908
   83MOL   C43541599   4.326   1.858   3.530 -0.2069 -0.0702  0.2094
   83MOL   C43641600   4.296   1.789   3.409 -0.4645 -0.0087 -0.0175
   83MOL   C43741601   4.216   1.676   3.404  0.4950  0.1945 -1.2072
   83MOL   C43841602   4.158   1.625   3.526 -0.4944 -0.4821 -0.2946
   83MOL   C43941603   4.171   1.696   3.646 -0.4348  0.0185  0.4447
   83MOL   H44041604   4.205   1.709   4.073 -1.1509 -1.8698  0.3165
   83MOL   H44141605   4.271   1.592   4.180  1.4417 -0.6320  0.3671
   83MOL   H44241606   4.637   1.738   4.135 -0.8181 -0.7085 -1.0045
   83MOL   H44341607   4.557   1.646   4.247  2.4583 -1.2513 -2.1508
   83MOL   H44441608   4.536   1.820   4.252  0.7604  0.5706  0.3573
   83MOL   H44541609   4.187   1.931   3.797 -0.1240 -2.0896  0.0349
   83MOL   H44641610   4.350   1.966   3.775  0.5086 -0.3206  2.1316
   83MOL   H44741611   4.388   1.947   3.532  1.0017 -0.8951 -0.0953
   83MOL   H44841612   4.347   1.822   3.319 -0.8917  0.2730 -0.1587
   83MOL   H44941613   4.194   1.615   3.317 -1.9410  0.9125 -1.1294
   83MOL   H45041614   4.108   1.530   3.530 -1.0790 -0.2076 -0.9278
   83MOL   H45141615   4.108   1.656   3.724  0.5797 -1.2815  0.6156
   83MOL   C45241616   4.437   1.560   4.013  0.7064 -0.1026  0.2415
   83MOL   C45341617   4.574   1.514   3.943 -0.3901 -0.2851  0.7489
   83MOL   C45441618   4.550   1.377   3.874 -0.1689  0.3058  0.3276
   83MOL   C45541619   4.683   1.475   4.046  0.3151  0.5703  0.2763
   83MOL   O45641620   4.797   1.524   4.036  0.5743  0.6830  0.1107
   83MOL   O45741621   4.637   1.390   4.141 -0.3903 -0.2953  0.1802
   83MOL   C45841622   4.716   1.334   4.243 -0.5679 -0.0295  0.7722
   83MOL   C45941623   4.688   1.189   4.260 -0.0054 -0.2665  0.4975
   83MOL   C46041624   4.725   1.094   4.163 -0.7912  0.1679  0.4552
   83MOL   C46141625   4.689   0.960   4.184  0.5473  0.1125  0.2834
   83MOL   C46241626   4.628   0.919   4.300  0.8198 -0.4696 -0.0681
   83MOL   C46341627   4.591   1.013   4.394  0.8214 -0.2437  0.0075
   83MOL   C46441628   4.616   1.154   4.376 -0.7865  0.6678 -0.3840
   83MOL   H46541629   4.346   1.544   3.956 -0.2613 -1.0906  2.0270
   83MOL   H46641630   4.401   1.481   4.080 -0.1239 -1.2718 -1.5561
   83MOL   H46741631   4.504   1.372   3.775 -1.2989  1.1063  0.8012
   83MOL   H46841632   4.488   1.319   3.943  1.0037  1.5960  2.5245
   83MOL   H46941633   4.639   1.319   3.850 -1.4174 -1.1257 -0.9354
   83MOL   H47041634   4.821   1.357   4.229 -0.3921 -1.5866 -0.7647
   83MOL   H47141635   4.688   1.372   4.341  0.3455  1.0156  0.6337
   83MOL   H47241636   4.778   1.119   4.072  0.8461  0.4755  1.4690
   83MOL   H47341637   4.716   0.890   4.107  0.6728 -0.8567  1.1984
   83MOL   H47441638   4.602   0.815   4.313 -1.4215 -0.2382 -2.3583
   83MOL   H47541639   4.535   0.965   4.472  2.8470 -0.1444  1.5650
   83MOL   H47641640   4.586   1.227   4.449  0.5573  1.5566 -0.6901
   83MOL   C47741641   4.622   1.622   3.833 -1.2485  0.0113  0.0834
   83MOL   C47841642   4.746   1.590   3.743  0.6174  0.9396  0.7680
   83MOL   C47941643   4.830   1.721   3.731  0.1099  0.7368 -0.0905
   83MOL   C48041644   4.702   1.532   3.598  0.2207 -0.3945  0.2918
   83MOL   O48141645   4.719   1.417   3.557  0.1114 -0.3225  0.6567
   83MOL   O48241646   4.624   1.616   3.526 -0.6357  0.7005 -0.0299
   83MOL   C48341647   4.596   1.597   3.386  0.5746  0.7284 -0.4732
   83MOL   C48441648   4.715   1.620   3.298  0.2770  1.1837 -0.5779
   83MOL   C48541649   4.759   1.748   3.261 -0.1698  0.1261 -0.1069
   83MOL   C48641650   4.866   1.769   3.171  0.2130 -0.7096 -0.3347
   83MOL   C48741651   4.939   1.656   3.127  0.6977 -0.0609 -0.2859
   83MOL   C48841652   4.891   1.532   3.151 -0.1223 -0.4822  0.4437
   83MOL   C48941653   4.782   1.515   3.237  0.4416 -0.0405 -0.0475
   83MOL   H49041654   4.658   1.706   3.892  2.0831 -1.4593  0.2596
   83MOL   H49141655   4.539   1.663   3.776 -0.2906  0.5820 -0.9247
   83MOL   H49241656   4.918   1.704   3.669  0.7649 -0.3389  1.1006
   83MOL   H49341657   4.869   1.750   3.828  0.5476  0.8720 -0.3086
   83MOL   H49441658   4.780   1.805   3.682 -2.3828  0.8685  2.5273
   83MOL   H49541659   4.543   1.502   3.375  1.2551  0.2904 -0.0433
   83MOL   H49641660   4.535   1.684   3.361  1.9054  1.2860 -1.8175
   83MOL   H49741661   4.708   1.832   3.306  1.4181  1.1107 -0.1234
   83MOL   H49841662   4.902   1.864   3.136  0.4518  0.1694  2.1809
   83MOL   H49941663   5.030   1.665   3.071  0.5316  0.8118 -0.4245
   83MOL   H50041664   4.947   1.448   3.112 -0.2968 -0.1122 -0.6326
   83MOL   H50141665   4.746   1.416   3.259 -0.1618  0.4689  1.3452
   83MOL   H50241666   4.801   1.506   3.785  0.9596  0.4941 -0.5471
   84MOL     C141667   7.271   2.972   5.068 -0.0751  0.5250 -0.8254
   84MOL     C241668   7.313   3.093   4.976 -0.6850 -0.0137  0.0968
   84MOL     C341669   7.467   3.109   4.972 -0.3443  0.0683  0.0892
   84MOL     C441670   7.254   3.223   5.030  0.0998  0.1164 -0.0148
   84MOL     O541671   7.331   3.320   5.061 -0.4508  0.7016  0.2002
   84MOL     O641672   7.128   3.208   5.041  0.7451  0.0493  0.2079
   84MOL     C741673   7.049   3.316   5.084  0.5163 -0.0712 -0.7117
   84MOL     C841674   6.918   3.271   5.155 -0.0707 -0.2045  0.1170
   84MOL     C941675   6.788   3.311   5.111  0.2407  0.2705 -0.8192
   84MOL    C1041676   6.675   3.263   5.183  0.3563  0.1178  0.4779
   84MOL    C1141677   6.694   3.174   5.290  0.8543  0.4499  0.6402
   84MOL    C1241678   6.821   3.135   5.334 -0.2435 -0.0672 -0.6271
   84MOL    C1341679   6.932   3.198   5.276  0.2567  1.2989  1.1471
   84MOL    H1441680   7.298   2.980   5.173 -0.5273 -1.8568 -0.4868
   84MOL    H1541681   7.163   2.961   5.074 -0.4877  4.0363 -0.6114
   84MOL    H1641682   7.504   3.116   5.075 -0.3036  1.3988 -0.0155
   84MOL    H1741683   7.495   3.198   4.916 -0.9771 -1.1236 -2.1760
   84MOL    H1841684   7.521   3.028   4.924 -0.8833 -0.3717  0.2146
   84MOL    H1941685   7.106   3.384   5.147  0.4320  0.3429 -1.0822
   84MOL    H2041686   7.023   3.376   4.997 -2.7152 -1.4792 -0.7890
   84MOL    H2141687   6.766   3.383   5.034  1.1056  1.3410 -0.0938
   84MOL    H2241688   6.581   3.304   5.151  0.1833 -1.1920 -0.7173
   84MOL    H2341689   6.605   3.132   5.335 -1.0142  0.6637 -2.6464
   84MOL    H2441690   6.840   3.079   5.424  1.8201  0.5791 -0.6284
   84MOL    H2541691   7.030   3.161   5.305  0.5215  0.8691 -0.2468
   84MOL    H2641692   7.333   2.887   5.039 -1.5868 -1.0724  0.5213
   84MOL    C2741693   7.272   3.051   4.827 -0.3327  0.1730  0.7185
   84MOL    C2841694   7.287   3.129   4.690 -0.1758  0.5477  0.4336
   84MOL    C2941695   7.439   3.174   4.672  0.2729 -0.9358 -0.5158
   84MOL    C3041696   7.194   3.253   4.680  0.2103  0.5214 -0.6334
   84MOL    O3141697   7.085   3.260   4.739  0.1743  0.2632 -0.7342
   84MOL    O3241698   7.243   3.340   4.594  0.0089 -0.0173  0.3580
   84MOL    C3341699   7.172   3.446   4.536 -0.2540  0.7220 -0.0888
   84MOL    C3441700   7.250   3.513   4.422 -0.0702  0.1698  0.1958
   84MOL    C3541701   7.345   3.435   4.345  0.8057 -0.7776 -0.0953
   84MOL    C3641702   7.403   3.486   4.227 -0.0549 -0.5798 -0.3080
   84MOL    C3741703   7.364   3.612   4.178  0.3551  0.6149  0.2859
   84MOL    C3841704   7.261   3.690   4.244  0.6161  0.4614  0.4499
   84MOL    C3941705   7.209   3.639   4.366 -0.1498  1.2168  0.9158
   84MOL    H4041706   7.170   3.014   4.838 -1.3979  2.9535  0.5104
   84MOL    H4141707   7.333   2.961   4.818 -1.1766 -0.5632  2.0841
   84MOL    H4241708   7.475   3.265   4.720 -1.1372 -1.2307  1.1468
   84MOL    H4341709   7.454   3.193   4.565  2.0937  1.5058  0.1243
   84MOL    H4441710   7.511   3.093   4.684  1.8773  0.4548 -0.5668
   84MOL    H4541711   7.072   3.422   4.499 -0.3222  1.1642 -0.1852
   84MOL    H4641712   7.156   3.519   4.616 -1.0501 -0.1472  0.5668
   84MOL    H4741713   7.365   3.334   4.377  2.8340 -0.6512 -0.8936
   84MOL    H4841714   7.475   3.422   4.178 -0.2405 -2.0043  1.2284
   84MOL    H4941715   7.414   3.655   4.093 -1.0573  2.1871  0.2223
   84MOL    H5041716   7.227   3.781   4.197  0.4762 -0.3682 -1.0944
   84MOL    H5141717   7.137   3.701   4.417 -0.5812  0.4214  1.2789
   84MOL    C5241718   7.254   3.038   4.560 -0.0086  0.8548  0.7989
   84MOL    C5341719   7.143   2.925   4.540 -0.0127 -0.4585 -0.4688
   84MOL    C5441720   7.005   2.989   4.566 -0.8255 -0.1928  0.4258
   84MOL    C5541721   7.161   2.818   4.646 -0.3122  0.2089 -0.3456
   84MOL    O5641722   7.068   2.761   4.708 -0.0130  0.3045  0.3751
   84MOL    O5741723   7.289   2.779   4.659  0.3513  0.6988 -0.3207
   84MOL    C5841724   7.330   2.670   4.736 -0.5546  0.2871  0.1836
   84MOL    C5941725   7.469   2.622   4.718 -1.4590  0.3798  1.0494
   84MOL    C6041726   7.518   2.647   4.593  0.0013 -0.3246 -0.5818
   84MOL    C6141727   7.639   2.599   4.557  0.1401  0.0910 -0.4874
   84MOL    C6241728   7.714   2.516   4.635  0.4234  0.0696  0.0320
   84MOL    C6341729   7.668   2.476   4.766  0.0098 -0.7126 -0.3110
   84MOL    C6441730   7.544   2.540   4.803 -0.7552  0.4467 -0.4505
   84MOL    H6541731   7.337   2.969   4.544 -0.3190  0.4864  0.7588
   84MOL    H6641732   7.247   3.104   4.474 -0.8162  1.6092  1.4425
   84MOL    H6741733   7.005   3.030   4.667  0.8646 -0.0492  0.3901
   84MOL    H6841734   6.921   2.919   4.568 -0.4336 -0.6396  2.0741
   84MOL    H6941735   6.984   3.076   4.504 -1.1859 -0.1599  0.5938
   84MOL    H7041736   7.316   2.674   4.844  1.1802  0.2592  0.4270
   84MOL    H7141737   7.273   2.583   4.704  0.9567 -0.5228 -0.3442
   84MOL    H7241738   7.461   2.715   4.531 -0.7863 -0.8353 -0.4209
   84MOL    H7341739   7.676   2.624   4.458  0.9817  2.0924  0.3179
   84MOL    H7441740   7.807   2.483   4.591  0.6926  0.5167  0.2497
   84MOL    H7541741   7.730   2.421   4.835 -1.4502  1.1603  2.5837
   84MOL    H7641742   7.503   2.531   4.903 -0.5258  2.7496 -0.1173
   84MOL    C7741743   7.156   2.869   4.398  0.2978 -0.5620  0.8872
   84MOL    C7841744   7.091   2.744   4.335  0.1238 -0.3630  0.3563
   84MOL    C7941745   7.139   2.751   4.190  0.3265 -0.1586  0.2453
   84MOL    C8041746   6.935   2.771   4.336 -1.0748  0.1603  0.5735
   84MOL    O8141747   6.888   2.878   4.289 -0.3556 -0.0898 -0.1416
   84MOL    O8241748   6.869   2.680   4.407 -0.3467 -0.1360 -0.2805
   84MOL    C8341749   6.731   2.693   4.421 -0.4373 -0.0258  0.0322
   84MOL    C8441750   6.677   2.581   4.513  0.3198  0.5724  0.5378
   84MOL    C8541751   6.543   2.527   4.497  0.3976 -0.1396  0.0169
   84MOL    C8641752   6.484   2.438   4.590  0.9660  1.2498 -0.0312
   84MOL    C8741753   6.559   2.392   4.698 -0.1331  0.1666  0.2692
   84MOL    C8841754   6.690   2.442   4.716  0.3266 -1.0300 -0.3591
   84MOL    C8941755   6.752   2.540   4.625  0.3568 -0.2738  0.1623
   84MOL    H9041756   7.261   2.861   4.371 -0.0664 -1.8475 -0.2546
   84MOL    H9141757   7.132   2.953   4.334  0.7709 -2.2143 -1.5476
   84MOL    H9241758   7.095   2.675   4.126  1.2431 -1.1789  0.8204
   84MOL    H9341759   7.248   2.748   4.181  0.3696 -0.3465  0.8331
   84MOL    H9441760   7.103   2.840   4.139 -1.9029 -1.7698 -1.0576
   84MOL    H9541761   6.707   2.794   4.455 -1.8808 -0.6692  0.9554
   84MOL    H9641762   6.684   2.688   4.322  1.1075  1.6152 -0.8123
   84MOL    H9741763   6.486   2.558   4.411  0.6768  0.6288  0.1033
   84MOL    H9841764   6.379   2.416   4.577  0.8676  1.1610  0.8920
   84MOL    H9941765   6.515   2.331   4.775  1.8611 -0.9268  0.5743
   84MOL   H10041766   6.745   2.399   4.798 -1.3358  0.1196  1.3916
   84MOL   H10141767   6.846   2.585   4.652  0.8043 -1.4708  0.6506
   84MOL   C10241768   7.143   2.613   4.409 -0.8375  0.3960  0.6441
   84MOL   C10341769   7.157   2.464   4.354  0.1360  0.8784 -0.0042
   84MOL   C10441770   7.226   2.382   4.465 -0.2542 -0.6317  0.1151
   84MOL   C10541771   7.248   2.468   4.232 -0.0913 -0.5475 -0.4547
   84MOL   O10641772   7.208   2.445   4.120  0.4953 -0.3012 -0.3400
   84MOL   O10741773   7.377   2.513   4.264  0.3129 -0.0750 -0.0495
   84MOL   C10841774   7.479   2.510   4.170 -0.1582  0.0048 -0.6505
   84MOL   C10941775   7.597   2.419   4.212  0.9052  0.8731 -0.4810
   84MOL   C11041776   7.725   2.439   4.165 -0.5961  0.6456 -0.0870
   84MOL   C11141777   7.834   2.351   4.197 -0.1626  0.3092  0.5806
   84MOL   C11241778   7.808   2.240   4.278  0.4465 -0.3616 -0.7678
   84MOL   C11341779   7.673   2.223   4.332 -0.8133 -0.6080 -0.4893
   84MOL   C11441780   7.571   2.306   4.293 -0.2264  0.2171  0.2250
   84MOL   H11541781   7.091   2.600   4.504 -1.8908  0.3576  0.0612
   84MOL   H11641782   7.239   2.643   4.451  1.1185 -1.5486 -2.2306
   84MOL   H11741783   7.327   2.419   4.485 -0.5069 -1.1349  2.5047
   84MOL   H11841784   7.225   2.275   4.442 -0.5211 -0.8772  1.2291
   84MOL   H11941785   7.179   2.393   4.562  0.7634  0.2954  0.5196
   84MOL   H12041786   7.448   2.487   4.068 -0.1308  0.7801 -0.8355
   84MOL   H12141787   7.517   2.612   4.161 -0.4729 -0.0067 -2.1041
   84MOL   H12241788   7.747   2.528   4.108 -1.2226  0.0153 -1.3220
   84MOL   H12341789   7.935   2.364   4.160 -0.7672  0.4464 -1.0810
   84MOL   H12441790   7.887   2.171   4.300  0.1168 -1.8293 -3.7987
   84MOL   H12541791   7.653   2.142   4.400 -0.0201 -1.1405 -0.8733
   84MOL   H12641792   7.469   2.284   4.323 -0.0735 -1.7884 -0.6251
   84MOL   C12741793   7.007   2.408   4.334  0.5450 -0.7131 -0.3752
   84MOL   C12841794   6.959   2.258   4.346 -0.3176  0.2436  0.5026
   84MOL   C12941795   6.931   2.220   4.490  0.0350 -0.8294  0.3859
   84MOL   C13041796   7.059   2.158   4.282  0.0749  0.8773  0.8282
   84MOL   O13141797   7.100   2.056   4.339  0.0931  0.0490 -0.1899
   84MOL   O13241798   7.096   2.188   4.148 -0.5183 -0.3908 -0.4897
   84MOL   C13341799   7.194   2.101   4.096 -0.5749  0.1636 -0.4265
   84MOL   C13441800   7.252   2.153   3.959 -0.3465  0.4246 -0.8991
   84MOL   C13541801   7.392   2.183   3.949  0.4081 -0.1642  0.3653
   84MOL   C13641802   7.435   2.252   3.836 -0.2671 -0.5441  0.1646
   84MOL   C13741803   7.352   2.278   3.726 -0.8377  0.5424 -0.4874
   84MOL   C13841804   7.221   2.243   3.728 -0.4353 -0.0754 -0.2885
   84MOL   C13941805   7.173   2.176   3.849 -0.5475 -0.2344  0.0598
   84MOL   H14041806   6.970   2.448   4.240  0.8882  1.0984  0.2428
   84MOL   H14141807   6.953   2.466   4.408  1.6173 -0.9354  0.6036
   84MOL   H14241808   6.861   2.288   4.540  0.0818 -0.8625  0.4952
   84MOL   H14341809   7.016   2.203   4.556  1.1566  0.8706 -0.5738
   84MOL   H14441810   6.884   2.123   4.506 -0.2618 -0.4808  1.7470
   84MOL   H14541811   7.274   2.098   4.171 -1.3614 -0.8812  0.3719
   84MOL   H14641812   7.154   2.001   4.084 -1.7183  0.6415 -0.6080
   84MOL   H14741813   7.455   2.154   4.032  0.3305 -1.7470 -0.1190
   84MOL   H14841814   7.539   2.281   3.837 -0.1235 -1.0852  1.0942
   84MOL   H14941815   7.402   2.323   3.641 -1.2307  0.9572 -0.4959
   84MOL   H15041816   7.157   2.266   3.643  0.2756 -2.3627 -1.4858
   84MOL   H15141817   7.071   2.142   3.858 -0.8377  0.5742 -0.0881
   84MOL   C15241818   6.820   2.262   4.265 -0.6504 -0.4683 -1.1293
   84MOL   C15341819   6.704   2.150   4.257  0.3323  0.2974  0.1661
   84MOL   C15441820   6.607   2.166   4.377  0.3848  0.2746 -0.1441
   84MOL   C15541821   6.767   2.009   4.249  0.2033 -0.9089 -0.6900
   84MOL   O15641822   6.843   1.971   4.159  0.4031  0.1735  0.1294
   84MOL   O15741823   6.769   1.951   4.362  0.2427 -0.3252 -0.7338
   84MOL   C15841824   6.831   1.825   4.382  0.2994  0.1820  0.1490
   84MOL   C15941825   6.723   1.713   4.402 -0.5038  1.3450  0.1741
   84MOL   C16041826   6.589   1.739   4.435 -0.4320  0.2662 -0.4754
   84MOL   C16141827   6.496   1.628   4.439 -0.2360  0.1739  0.0964
   84MOL   C16241828   6.533   1.495   4.407 -0.6043  0.2826 -0.6169
   84MOL   C16341829   6.669   1.471   4.388 -1.2137  0.3775  0.7970
   84MOL   C16441830   6.763   1.576   4.374  0.5009 -0.1746  0.1748
   84MOL   H16541831   6.846   2.272   4.159 -0.1919  1.9490 -0.8114
   84MOL   H16641832   6.769   2.356   4.285  1.3205  0.0291  1.8562
   84MOL   H16741833   6.582   2.270   4.396  0.3224  0.3557 -0.6449
   84MOL   H16841834   6.668   2.143   4.464  1.3355  2.5790 -0.1702
   84MOL   H16941835   6.514   2.108   4.380 -0.9465  2.3495 -0.3684
   84MOL   H17041836   6.899   1.782   4.308  0.8858  1.2245  0.0801
   84MOL   H17141837   6.887   1.853   4.471  0.5946 -2.7931  0.9503
   84MOL   H17241838   6.553   1.840   4.450  0.4487  0.3971  0.8214
   84MOL   H17341839   6.392   1.643   4.466 -0.5415 -1.0999 -0.3203
   84MOL   H17441840   6.452   1.423   4.409  0.4283 -0.8692  0.3918
   84MOL   H17541841   6.701   1.368   4.373 -0.4408  0.4764  1.7104
   84MOL   H17641842   6.866   1.559   4.347  0.3710  0.3240 -0.6414
   84MOL   C17741843   6.625   2.174   4.120 -0.2950  0.2023 -0.0728
   84MOL   C17841844   6.492   2.107   4.068 -0.3568 -0.1616  1.0588
   84MOL   C17941845   6.369   2.168   4.146 -0.6512 -0.1962  0.0261
   84MOL   C18041846   6.502   1.952   4.082 -0.9901  0.6434  0.2700
   84MOL   O18141847   6.426   1.898   4.164  0.4656 -0.1334  0.3179
   84MOL   O18241848   6.592   1.896   4.000  0.1166  0.8751 -0.1985
   84MOL   C18341849   6.624   1.758   4.024 -0.0092 -0.2727  0.1541
   84MOL   C18441850   6.728   1.703   3.939 -0.3225 -0.5876 -0.2783
   84MOL   C18541851   6.738   1.564   3.933 -0.5616 -0.0935 -0.5419
   84MOL   C18641852   6.827   1.508   3.836 -0.2172 -0.1324 -0.4109
   84MOL   C18741853   6.910   1.588   3.758  0.5264  0.0282  0.5983
   84MOL   C18841854   6.893   1.730   3.773  0.2483  0.0227  0.2886
   84MOL   C18941855   6.803   1.788   3.863 -0.1964  0.0762  0.4541
   84MOL   H19041856   6.700   2.164   4.041  3.1333  0.7850  2.9942
   84MOL   H19141857   6.606   2.281   4.113  0.1500  0.5674  3.4625
   84MOL   H19241858   6.398   2.218   4.239  0.2475  0.4165 -0.5824
   84MOL   H19341859   6.297   2.091   4.173 -1.0135 -0.2899 -1.1624
   84MOL   H19441860   6.318   2.241   4.083  0.4429  0.1221 -0.5044
   84MOL   H19541861   6.647   1.747   4.129  1.8864  1.7396 -0.0073
   84MOL   H19641862   6.536   1.694   4.015 -1.2462  1.4351 -0.1195
   84MOL   H19741863   6.683   1.503   4.003  4.3668 -0.8789  2.8924
   84MOL   H19841864   6.823   1.401   3.819  0.3423 -0.1271 -0.5695
   84MOL   H19941865   6.975   1.560   3.677  1.6713 -0.5899  1.7093
   84MOL   H20041866   6.943   1.806   3.715  2.5270 -1.2055  0.5773
   84MOL   H20141867   6.787   1.894   3.874 -1.4085  0.0977 -1.3921
   84MOL   C20241868   6.467   2.136   3.913 -0.4206 -0.4056  0.3184
   84MOL   C20341869   6.338   2.084   3.830  0.5098 -0.4010 -0.2201
   84MOL   C20441870   6.397   1.971   3.743 -0.5801  0.3095  0.2057
   84MOL   C20541871   6.312   2.201   3.729  0.1271  0.1823 -0.6516
   84MOL   O20641872   6.358   2.203   3.615  0.2990  0.4907 -0.6376
   84MOL   O20741873   6.250   2.300   3.786 -0.1202  0.5443 -0.0801
   84MOL   C20841874   6.209   2.410   3.704  0.4659  0.5961 -0.2262
   84MOL   C20941875   6.281   2.538   3.723 -0.1199 -0.0711  0.5288
   84MOL   C21041876   6.236   2.632   3.814  0.8377  0.0245  0.1541
   84MOL   C21141877   6.310   2.750   3.837  0.1955 -0.1262  0.0120
   84MOL   C21241878   6.437   2.768   3.777 -0.2170 -0.8024 -0.3485
   84MOL   C21341879   6.491   2.669   3.693 -0.1587  0.0118 -0.5792
   84MOL   C21441880   6.409   2.554   3.664  0.3518 -0.6243  1.2873
   84MOL   H21541881   6.561   2.110   3.865  0.0633 -1.8361  1.9966
   84MOL   H21641882   6.477   2.244   3.904  0.7393 -0.4753  0.6932
   84MOL   H21741883   6.485   2.005   3.687 -0.9213  1.9934  0.6733
   84MOL   H21841884   6.330   1.947   3.660 -0.2885 -0.7734  0.2731
   84MOL   H21941885   6.412   1.884   3.806 -1.8305 -0.9181 -1.1677
   84MOL   H22041886   6.229   2.386   3.599 -0.2059 -1.4455  0.0871
   84MOL   H22141887   6.101   2.402   3.705  0.6071 -1.6250  0.9206
   84MOL   H22241888   6.139   2.615   3.860  0.5923 -0.2473 -0.4667
   84MOL   H22341889   6.265   2.820   3.906 -0.9066  0.7137 -1.5134
   84MOL   H22441890   6.491   2.861   3.784  1.0806 -1.2905 -2.9377
   84MOL   H22541891   6.585   2.691   3.645 -0.6096  1.1209 -0.9667
   84MOL   H22641892   6.435   2.479   3.590 -0.1746  0.2258  0.2218
   84MOL   C22741893   6.208   2.032   3.917 -0.0460  0.4185  1.5506
   84MOL   C22841894   6.081   1.968   3.854 -0.9504 -0.4437 -0.3879
   84MOL   C22941895   6.002   1.921   3.976  0.3094  0.9672 -0.2036
   84MOL   C23041896   6.113   1.845   3.765  0.3133 -0.0480  0.3305
   84MOL   O23141897   6.101   1.851   3.640  0.1396  0.0122 -0.9553
   84MOL   O23241898   6.170   1.733   3.833  0.4215 -0.8926 -0.0463
   84MOL   C23341899   6.193   1.615   3.757  0.3001  0.0945  0.2038
   84MOL   C23441900   6.065   1.539   3.715  0.1440  0.4595  0.1249
   84MOL   C23541901   5.943   1.554   3.790  0.3475  0.6459 -0.0544
   84MOL   C23641902   5.828   1.485   3.759 -0.3592  0.4535  0.0329
   84MOL   C23741903   5.838   1.384   3.670 -0.2892 -0.2801 -0.3610
   84MOL   C23841904   5.957   1.365   3.588 -0.2461 -0.4548  0.5507
   84MOL   C23941905   6.066   1.448   3.605 -0.2228 -0.1314 -0.0230
   84MOL   H24041906   6.165   2.106   3.983  0.0350  1.5199  0.3924
   84MOL   H24141907   6.246   1.951   3.979 -1.5764  0.0111  1.9717
   84MOL   H24241908   5.897   1.893   3.966  0.3151  0.7530  0.3363
   84MOL   H24341909   5.994   1.996   4.055  0.9765  2.6577 -1.7093
   84MOL   H24441910   6.055   1.842   4.028 -1.5234 -0.3776 -0.2989
   84MOL   H24541911   6.248   1.633   3.664  2.7696 -2.0597  1.1798
   84MOL   H24641912   6.254   1.550   3.820  0.7612 -0.9968 -1.3433
   84MOL   H24741913   5.943   1.633   3.864  0.4303 -0.2164  0.8778
   84MOL   H24841914   5.732   1.495   3.808 -1.5772  1.2849 -2.4693
   84MOL   H24941915   5.747   1.327   3.656  0.3618 -1.6642  0.8770
   84MOL   H25041916   5.966   1.283   3.518 -0.2365  0.4472 -0.5185
   84MOL   H25141917   6.160   1.437   3.552 -0.5509  0.7161 -0.8012
   84MOL   C25241918   6.016   2.086   3.766 -0.5578 -0.5228 -0.2878
   84MOL   C25341919   5.863   2.083   3.716 -0.0014 -0.2712 -0.5073
   84MOL   C25441920   5.867   2.166   3.580  0.4161 -0.3329 -0.1425
   84MOL   C25541921   5.791   2.163   3.830 -0.7318  0.1449  0.7497
   84MOL   O25641922   5.743   2.110   3.929 -1.1117 -0.0318 -0.3016
   84MOL   O25741923   5.794   2.293   3.813  0.2626  0.1556 -0.3009
   84MOL   C25841924   5.730   2.382   3.903 -0.1230 -0.5639 -0.7000
   84MOL   C25941925   5.733   2.521   3.859 -0.0999 -0.2247 -0.5096
   84MOL   C26041926   5.838   2.570   3.782 -0.1581 -0.1078  0.0701
   84MOL   C26141927   5.830   2.708   3.735 -0.5529 -0.0490 -0.5002
   84MOL   C26241928   5.716   2.786   3.767  0.0062  0.3605 -0.0669
   84MOL   C26341929   5.607   2.731   3.837 -0.6298 -0.1445 -0.1880
   84MOL   C26441930   5.618   2.603   3.891 -0.6628 -0.0328 -0.6468
   84MOL   H26541931   6.089   2.101   3.686 -0.6401 -2.3104 -0.7162
   84MOL   H26641932   6.038   2.174   3.827  0.7539 -0.7727 -0.3852
   84MOL   H26741933   5.778   2.228   3.571  1.2926  0.6662 -2.0066
   84MOL   H26841934   5.875   2.102   3.492  2.7601 -0.2722 -0.0051
   84MOL   H26941935   5.949   2.237   3.576  1.5418 -1.5439  0.7973
   84MOL   H27041936   5.627   2.346   3.899 -0.7426  1.2601 -2.1242
   84MOL   H27141937   5.771   2.365   4.002  1.9374 -0.0214 -1.4349
   84MOL   H27241938   5.920   2.505   3.757  0.9386  0.3929  2.1712
   84MOL   H27341939   5.916   2.746   3.682  0.3118 -1.7100 -0.3278
   84MOL   H27441940   5.713   2.885   3.723  0.6076  0.2977 -0.2497
   84MOL   H27541941   5.521   2.791   3.860  1.2587  2.5721 -0.0090
   84MOL   H27641942   5.540   2.563   3.954  2.3173 -4.4335  0.4417
   84MOL   C27741943   5.796   1.942   3.686 -0.2212  0.1785  0.5184
   84MOL   C27841944   5.636   1.918   3.666 -0.3576 -0.2759  0.1287
   84MOL   C27941945   5.566   2.046   3.606 -0.0941  0.0456  0.2435
   84MOL   C28041946   5.565   1.873   3.800  0.2963  1.0900 -0.0494
   84MOL   O28141947   5.605   1.771   3.865 -0.4324 -0.3176 -0.0118
   84MOL   O28241948   5.476   1.973   3.842  0.3698 -0.0158  0.4876
   84MOL   C28341949   5.412   1.978   3.965 -0.1454 -0.0473 -0.2160
   84MOL   C28441950   5.389   2.125   3.997  0.2064 -0.3078  0.1227
   84MOL   C28541951   5.469   2.202   4.080 -0.4303  0.2913 -0.0330
   84MOL   C28641952   5.433   2.333   4.119  0.1346  0.5190 -0.0745
   84MOL   C28741953   5.324   2.399   4.063  0.2776  0.4374  0.3175
   84MOL   C28841954   5.236   2.317   3.983 -0.4552 -0.7989 -0.5927
   84MOL   C28941955   5.270   2.188   3.948  0.0327  1.1062  0.1975
   84MOL   H29041956   5.834   1.878   3.765  1.8358 -2.1060 -2.2187
   84MOL   H29141957   5.846   1.899   3.599 -0.2837  0.5676  0.2861
   84MOL   H29241958   5.459   2.029   3.596 -0.5605  1.8809  1.8462
   84MOL   H29341959   5.601   2.075   3.507 -2.0843 -0.4184 -0.6059
   84MOL   H29441960   5.566   2.131   3.674  1.5267  0.1114  0.1868
   84MOL   H29541961   5.314   1.930   3.961  1.3538 -3.0914 -3.2135
   84MOL   H29641962   5.466   1.925   4.044 -0.9090  0.0861  0.3990
   84MOL   H29741963   5.558   2.145   4.105  0.6213  1.8322 -0.2250
   84MOL   H29841964   5.499   2.380   4.190  0.7999 -0.9725  0.3090
   84MOL   H29941965   5.297   2.503   4.076 -0.9446  0.5692 -2.7603
   84MOL   H30041966   5.146   2.365   3.946  0.3845  1.2751 -0.0363
   84MOL   H30141967   5.194   2.133   3.894 -1.1085  1.7929  1.0701
   84MOL   C30241968   5.614   1.782   3.581  0.7950 -0.1216  0.6937
   84MOL   C30341969   5.585   1.776   3.427  0.0880  0.2861  0.0171
   84MOL   C30441970   5.705   1.845   3.350  0.4598  0.3722  0.5396
   84MOL   C30541971   5.457   1.860   3.393  0.5284  0.0859  0.6016
   84MOL   O30641972   5.461   1.955   3.314 -0.0166 -0.6373  0.4609
   84MOL   O30741973   5.345   1.826   3.454 -0.0638 -0.4315  0.3770
   84MOL   C30841974   5.218   1.866   3.410  0.3851 -0.8409 -0.2306
   84MOL   C30941975   5.155   1.968   3.497  0.8088 -0.7092  0.5281
   84MOL   C31041976   5.114   1.926   3.620  0.1148 -0.2450  0.1715
   84MOL   C31141977   5.051   2.012   3.707  1.1635 -0.7376 -0.2290
   84MOL   C31241978   5.030   2.152   3.672  0.6879  0.1456 -0.2554
   84MOL   C31341979   5.072   2.193   3.541  0.0127 -0.3737  0.3292
   84MOL   C31441980   5.140   2.099   3.461  0.0540  0.5599 -0.4611
   84MOL   H31541981   5.534   1.722   3.626  0.9050 -0.3844  0.5391
   84MOL   H31641982   5.707   1.729   3.597  1.5540  1.2816  0.9916
   84MOL   H31741983   5.719   1.949   3.378  0.6910 -0.0499  2.0826
   84MOL   H31841984   5.696   1.842   3.242 -0.1445 -1.5158  0.6125
   84MOL   H31941985   5.802   1.797   3.366  0.4730  0.7069  1.5423
   84MOL   H32041986   5.212   1.882   3.302 -0.1176  1.8819  0.1747
   84MOL   H32141987   5.153   1.781   3.434 -0.7413 -0.2412 -1.0989
   84MOL   H32241988   5.128   1.822   3.644  1.2214  0.0620  0.9188
   84MOL   H32341989   5.017   1.979   3.804  1.4078 -0.3952 -0.0262
   84MOL   H32441990   4.974   2.222   3.732 -1.2863 -1.6793  0.0994
   84MOL   H32541991   5.046   2.295   3.516  1.9312  0.2194  0.6351
   84MOL   H32641992   5.173   2.125   3.361 -2.0118 -0.1499 -1.3626
   84MOL   C32741993   5.578   1.622   3.374  0.4083 -0.3527  0.4230
   84MOL   C32841994   5.507   1.570   3.242 -0.6214  0.2698  0.9016
   84MOL   C32941995   5.531   1.663   3.118 -0.5746  0.2868 -0.0460
   84MOL   C33041996   5.351   1.576   3.266  0.4914  0.4398  0.4305
   84MOL   O33141997   5.276   1.641   3.189  0.4811 -0.1052 -0.2158
   84MOL   O33241998   5.310   1.524   3.379  0.3838 -0.2991 -0.1923
   84MOL   C33341999   5.172   1.510   3.401  0.0447  0.4479  0.4316
   84MOL   C33442000   5.142   1.477   3.546  0.1242  0.1915  0.3464
   84MOL   C33542001   5.222   1.529   3.648  0.6397 -0.0074  0.6103
   84MOL   C33642002   5.195   1.487   3.778 -0.2299 -0.0113 -1.1582
   84MOL   C33742003   5.090   1.399   3.804  0.3554 -1.3465  0.2159
   84MOL   C33842004   5.002   1.359   3.704  0.2112  0.6490  0.1423
   84MOL   C33942005   5.032   1.401   3.573  0.7866  0.3067  0.3504
   84MOL   H34042006   5.543   1.558   3.455 -0.9045 -0.4017 -0.1774
   84MOL   H34142007   5.682   1.593   3.356  0.6086 -0.0680  1.0933
   84MOL   H34242008   5.475   1.622   3.035  0.4542 -2.0874  0.3978
   84MOL   H34342009   5.639   1.676   3.107 -0.2310 -0.7157  1.8592
   84MOL   H34442010   5.501   1.767   3.134  0.4954  0.3409  1.7026
   84MOL   H34542011   5.115   1.595   3.364  0.7713  0.8638  0.2404
   84MOL   H34642012   5.138   1.426   3.342  0.7207 -0.4515  1.3063
   84MOL   H34742013   5.309   1.591   3.633  0.6957  0.0374  1.1302
   84MOL   H34842014   5.263   1.522   3.854 -0.2366  0.1440 -1.2229
   84MOL   H34942015   5.079   1.372   3.908 -2.3811 -0.5761  0.1723
   84MOL   H35042016   4.917   1.295   3.722 -0.7451  0.7607 -3.4692
   84MOL   H35142017   4.976   1.370   3.486  0.7140 -0.2556  0.5952
   84MOL   C35242018   5.537   1.420   3.200  0.0043 -0.0233 -0.4020
   84MOL   C35342019   5.682   1.355   3.177  1.0301  0.2924 -0.0089
   84MOL   C35442020   5.728   1.296   3.311 -0.3056 -0.0467 -0.7104
   84MOL   C35542021   5.779   1.459   3.125 -0.3493  0.6661 -0.4218
   84MOL   O35642022   5.873   1.504   3.190 -0.3730 -0.4324  0.6069
   84MOL   O35742023   5.752   1.488   2.991  0.1429  0.6416 -0.0668
   84MOL   C35842024   5.839   1.576   2.924  1.2589  0.6061  0.3274
   84MOL   C35942025   5.807   1.597   2.778  0.1260  0.7692  0.3552
   84MOL   C36042026   5.810   1.726   2.720  0.2273  0.2349  0.3623
   84MOL   C36142027   5.776   1.740   2.585  0.2373 -0.4620  0.3178
   84MOL   C36242028   5.740   1.630   2.507  0.0200 -0.4939 -0.2735
   84MOL   C36342029   5.731   1.499   2.561  0.2716 -0.5926  1.1469
   84MOL   C36442030   5.761   1.486   2.698  0.1657 -0.0286  0.4767
   84MOL   H36542031   5.472   1.402   3.114 -0.1691  1.5081 -0.5981
   84MOL   H36642032   5.490   1.360   3.278 -1.8631  0.2122 -1.3258
   84MOL   H36742033   5.705   1.368   3.390  1.2530 -1.7005  1.3268
   84MOL   H36842034   5.835   1.282   3.324 -0.0544  1.3600 -1.1790
   84MOL   H36942035   5.671   1.208   3.342 -2.0356  1.0735 -0.6177
   84MOL   H37042036   5.853   1.671   2.976  0.3838  0.5251  0.7116
   84MOL   H37142037   5.940   1.537   2.936  0.6976 -0.8432  0.4338
   84MOL   H37242038   5.841   1.805   2.787  0.5388 -0.2100  0.7468
   84MOL   H37342039   5.771   1.841   2.546  3.6129 -0.4983 -0.3994
   84MOL   H37442040   5.709   1.626   2.403 -2.0175  0.8895  0.2546
   84MOL   H37542041   5.701   1.414   2.501  1.4386 -1.6240  2.0005
   84MOL   H37642042   5.734   1.393   2.746 -0.0108 -0.6793 -0.8604
   84MOL   C37742043   5.665   1.234   3.077 -0.3164 -0.6672 -0.1510
   84MOL   C37842044   5.786   1.140   3.020 -0.3036 -0.2450 -0.2957
   84MOL   C37942045   5.799   1.013   3.115 -0.6161 -0.3445  0.3037
   84MOL   C38042046   5.923   1.217   3.005 -0.4700 -0.4320 -0.0463
   84MOL   O38142047   5.960   1.277   2.901  0.0291 -0.5287 -0.3374
   84MOL   O38242048   5.994   1.221   3.120 -0.4118 -0.5274 -0.0713
   84MOL   C38342049   6.123   1.281   3.127  0.4521  0.4437 -0.3444
   84MOL   C38442050   6.227   1.209   3.044 -0.0646 -0.6736  0.1517
   84MOL   C38542051   6.322   1.291   2.971 -0.3342 -0.0020 -0.2416
   84MOL   C38642052   6.413   1.220   2.886  0.3496  0.6538  0.1126
   84MOL   C38742053   6.405   1.080   2.874 -0.1229 -0.0104 -0.5857
   84MOL   C38842054   6.316   1.002   2.954 -0.5243  0.2294  0.7990
   84MOL   C38942055   6.224   1.067   3.038 -0.1305  0.0461 -0.3696
   84MOL   H39042056   5.616   1.282   2.992 -1.3881  0.5022  1.1055
   84MOL   H39142057   5.586   1.175   3.124  0.2586 -0.7626  0.7080
   84MOL   H39242058   5.698   0.974   3.131 -0.6137  0.4257  2.3848
   84MOL   H39342059   5.837   1.036   3.214  2.0550 -1.0583 -0.5058
   84MOL   H39442060   5.866   0.934   3.080 -0.4431 -0.5358  1.0505
   84MOL   H39542061   6.116   1.381   3.083 -1.0402 -0.5670 -2.5059
   84MOL   H39642062   6.153   1.296   3.230 -0.9144 -0.7266  0.2382
   84MOL   H39742063   6.324   1.399   2.975 -0.1752  0.0154 -0.7211
   84MOL   H39842064   6.477   1.281   2.823  0.0573  2.2397  1.3311
   84MOL   H39942065   6.472   1.027   2.808  0.0138 -1.2000  0.4864
   84MOL   H40042066   6.312   0.895   2.953  0.9411  0.1778 -0.6785
   84MOL   H40142067   6.147   1.008   3.086  0.0208  0.0139 -0.1664
   84MOL   C40242068   5.745   1.078   2.874 -0.9754 -0.2088  0.3966
   84MOL   C40342069   5.618   0.988   2.834  0.1337 -0.0587  0.4476
   84MOL   C40442070   5.495   1.076   2.844  0.3004  0.0019 -0.5658
   84MOL   C40542071   5.605   0.868   2.928 -0.2769 -0.0179 -0.4023
   84MOL   O40642072   5.508   0.863   3.000  1.2053  0.1459  0.0681
   84MOL   O40742073   5.703   0.773   2.915  0.1016 -0.3795 -0.1884
   84MOL   C40842074   5.701   0.656   2.991 -0.0494  0.2947  0.0746
   84MOL   C40942075   5.726   0.532   2.903  1.1644  0.0973  0.6751
   84MOL   C41042076   5.864   0.506   2.892  0.5011  0.3138  0.0277
   84MOL   C41142077   5.896   0.392   2.820 -0.0681  0.0979  0.5256
   84MOL   C41242078   5.797   0.303   2.772  0.2265 -0.0968  0.4082
   84MOL   C41342079   5.656   0.336   2.782 -0.1223  0.7170  0.1277
   84MOL   C41442080   5.622   0.458   2.847 -0.7057 -0.0446  0.4231
   84MOL   H41542081   5.829   1.014   2.847 -1.6579 -0.5524 -0.9882
   84MOL   H41642082   5.756   1.152   2.795  0.6159 -3.4923 -2.6273
   84MOL   H41742083   5.408   1.021   2.809  2.7739 -3.2929 -1.8224
   84MOL   H41842084   5.500   1.171   2.791  0.3695  1.1056  1.4009
   84MOL   H41942085   5.472   1.100   2.948 -1.8498 -1.1687 -0.7472
   84MOL   H42042086   5.772   0.682   3.069 -0.7344  1.4458  0.3321
   84MOL   H42142087   5.602   0.644   3.035 -0.5480  2.4603 -0.4005
   84MOL   H42242088   5.937   0.566   2.943 -1.5917  3.3462 -0.3688
   84MOL   H42342089   6.002   0.374   2.812  0.1888  0.7631  2.2613
   84MOL   H42442090   5.828   0.206   2.736 -0.1697 -0.3698  0.8089
   84MOL   H42542091   5.592   0.258   2.743  2.2982 -0.7130 -1.1328
   84MOL   H42642092   5.519   0.490   2.860 -1.1171 -1.0375 -0.3023
   84MOL   C42742093   5.641   0.941   2.684 -0.1951  0.1541  0.0283
   84MOL   C42842094   5.530   0.882   2.587  0.1059 -1.0768  0.2303
   84MOL   C42942095   5.615   0.822   2.470  0.0542  0.1913  0.1508
   84MOL   C43042096   5.457   1.007   2.535 -0.4227 -0.3037  0.6260
   84MOL   O43142097   5.337   1.025   2.569 -0.1842 -0.5075  0.7848
   84MOL   O43242098   5.527   1.092   2.457 -0.8633  0.1993  0.0404
   84MOL   C43342099   5.466   1.197   2.384 -0.3784  0.6366  0.2066
   84MOL   C43442100   5.423   1.169   2.240 -0.7580  0.6160  0.0188
   84MOL   C43542101   5.477   1.253   2.139  0.4373  0.5419 -0.1092
   84MOL   C43642102   5.443   1.225   2.005 -0.2902  0.1844  1.0323
   84MOL   C43742103   5.366   1.115   1.969 -0.1263  0.3444 -0.6191
   84MOL   C43842104   5.314   1.030   2.067 -0.3159 -0.5155  0.4872
   84MOL   C43942105   5.344   1.058   2.201  0.7515  0.4052 -0.0199
   84MOL   H44042106   5.711   0.857   2.683 -2.6008 -1.9119 -1.5897
   84MOL   H44142107   5.691   1.025   2.635  1.0596 -0.2084  0.6690
   84MOL   H44242108   5.665   0.731   2.502 -0.7373 -0.4942 -0.5230
   84MOL   H44342109   5.693   0.888   2.430  0.2566  0.3418  0.7837
   84MOL   H44442110   5.557   0.792   2.382  0.8373 -0.0755 -0.2856
   84MOL   H44542111   5.376   1.240   2.429 -1.0706  0.8348 -1.3217
   84MOL   H44642112   5.539   1.278   2.379  0.2594 -0.0323 -1.7519
   84MOL   H44742113   5.535   1.341   2.162 -1.8069  2.4462 -1.5578
   84MOL   H44842114   5.474   1.292   1.926  1.1582  1.1731  2.4139
   84MOL   H44942115   5.332   1.099   1.867  2.6049 -0.3259 -1.4762
   84MOL   H45042116   5.265   0.941   2.030 -0.1000 -0.0974 -0.8129
   84MOL   H45142117   5.308   1.000   2.285 -1.7982  0.4745 -1.0276
   84MOL   C45242118   5.435   0.769   2.651  0.1336 -0.3127 -0.1575
   84MOL   C45342119   5.335   0.679   2.560 -0.7411 -0.8386 -0.4270
   84MOL   C45442120   5.263   0.762   2.456 -0.2542 -0.3226 -0.1206
   84MOL   C45542121   5.227   0.615   2.656 -0.0379 -0.5339  0.6815
   84MOL   O45642122   5.105   0.637   2.645  0.2925 -0.2133  0.1613
   84MOL   O45742123   5.290   0.535   2.748 -0.5534  0.0585 -0.2056
   84MOL   C45842124   5.213   0.469   2.848 -0.2301 -0.0312 -0.1672
   84MOL   C45942125   5.196   0.552   2.978  0.5415 -0.0434 -0.0034
   84MOL   C46042126   5.069   0.580   3.028  0.2457  0.1488  0.2064
   84MOL   C46142127   5.054   0.667   3.144  0.3167 -0.2010  0.4594
   84MOL   C46242128   5.169   0.720   3.205 -0.6270 -0.0619  0.2411
   84MOL   C46342129   5.296   0.696   3.146 -0.2632  0.0141  0.3117
   84MOL   C46442130   5.309   0.617   3.034 -0.1288  0.5221  0.2742
   84MOL   H46542131   5.381   0.804   2.739 -0.3070 -0.3948 -0.3907
   84MOL   H46642132   5.515   0.713   2.698 -0.9104 -0.4408  1.5101
   84MOL   H46742133   5.216   0.704   2.376  1.4128  1.5233 -2.4759
   84MOL   H46842134   5.338   0.811   2.395 -0.1630  1.6786  1.5733
   84MOL   H46942135   5.190   0.835   2.491 -0.7605 -0.0608 -1.6914
   84MOL   H47042136   5.114   0.438   2.814  0.0261 -0.1345 -0.8277
   84MOL   H47142137   5.257   0.376   2.884 -1.5630 -0.2012  1.0871
   84MOL   H47242138   4.979   0.541   2.984 -0.1332  1.4201 -0.1806
   84MOL   H47342139   4.962   0.673   3.201  0.7997 -3.6209  1.7241
   84MOL   H47442140   5.174   0.776   3.297 -0.7159 -0.4563  0.4865
   84MOL   H47542141   5.382   0.736   3.197  0.1893  0.5335 -0.8560
   84MOL   H47642142   5.407   0.605   2.990 -0.5237 -0.8947 -0.2365
   84MOL   C47742143   5.408   0.553   2.502  0.0943 -0.9497  0.0229
   84MOL   C47842144   5.324   0.461   2.413 -0.4176 -0.5676  0.9794
   84MOL   C47942145   5.361   0.315   2.453 -0.3982  0.1965 -0.7321
   84MOL   C48042146   5.340   0.490   2.256  0.2337 -0.0463  0.2464
   84MOL   O48142147   5.424   0.567   2.210  0.0624 -0.5735  0.0380
   84MOL   O48242148   5.248   0.423   2.186 -0.3674 -0.6655  0.3285
   84MOL   C48342149   5.235   0.448   2.044  0.0455 -0.4407  0.2687
   84MOL   C48442150   5.112   0.387   1.978  0.2125  0.0400  0.2360
   84MOL   C48542151   4.987   0.407   2.029  0.0949 -0.5009 -0.1131
   84MOL   C48642152   4.876   0.328   1.995 -0.0936 -0.2736 -0.1068
   84MOL   C48742153   4.895   0.222   1.898 -0.2246  0.1743 -0.3573
   84MOL   C48842154   5.023   0.202   1.842 -0.2877 -0.1208 -0.3264
   84MOL   C48942155   5.128   0.285   1.881  0.4261 -0.0518 -0.2271
   84MOL   H49042156   5.456   0.498   2.583 -0.6540 -0.1188  1.0306
   84MOL   H49142157   5.503   0.585   2.458  1.6793 -1.7915  2.7091
   84MOL   H49242158   5.462   0.294   2.486 -0.4481  0.6048 -0.3152
   84MOL   H49342159   5.341   0.256   2.363  0.0196 -0.0916 -0.6381
   84MOL   H49442160   5.292   0.288   2.533 -0.0616  0.2447 -0.4281
   84MOL   H49542161   5.227   0.556   2.029  0.2639 -0.4015  0.4406
   84MOL   H49642162   5.331   0.425   1.999  1.8825 -1.9979  4.7133
   84MOL   H49742163   4.975   0.496   2.090  1.5262 -0.9429  0.8459
   84MOL   H49842164   4.781   0.358   2.038  0.1493  0.7353 -0.2686
   84MOL   H49942165   4.815   0.157   1.868 -1.2987  0.6851  1.3362
   84MOL   H50042166   5.047   0.122   1.773  0.1158 -1.2473  1.0965
   84MOL   H50142167   5.227   0.259   1.847 -0.4934 -1.0815 -2.2292
   84MOL   H50242168   5.219   0.472   2.438 -0.4865  2.1592 -0.3267
   85MOL     C142169   0.676   3.491   6.600  0.1500 -0.0343  0.2790
   85MOL     C242170   0.552   3.399   6.599 -0.3244  0.3153 -0.5486
   85MOL     C342171   0.595   3.250   6.591  0.1695 -0.0605 -0.3948
   85MOL     C442172   0.470   3.417   6.464  0.0150 -0.5923  0.1197
   85MOL     O542173   0.501   3.500   6.381  0.5327 -0.2023 -0.5551
   85MOL     O642174   0.378   3.326   6.436 -0.2429 -0.1657  0.1049
   85MOL     C742175   0.305   3.340   6.315 -0.0538  0.0011 -0.1106
   85MOL     C842176   0.318   3.219   6.231  0.1116 -0.1275 -0.1085
   85MOL     C942177   0.446   3.157   6.223 -0.5415  0.5761 -0.0112
   85MOL    C1042178   0.456   3.046   6.135 -0.1015 -0.3452  0.1384
   85MOL    C1142179   0.350   2.995   6.066  0.1561  0.7574  0.2331
   85MOL    C1242180   0.223   3.050   6.083 -0.0352  0.4099 -0.3793
   85MOL    C1342181   0.209   3.161   6.169  0.2708 -0.1793 -0.3037
   85MOL    H1442182   0.654   3.598   6.600 -1.1917 -0.3091  0.6435
   85MOL    H1542183   0.746   3.476   6.682  1.0447 -1.0288 -0.6507
   85MOL    H1642184   0.643   3.225   6.497 -1.2851 -2.9433 -0.4084
   85MOL    H1742185   0.518   3.176   6.612 -1.1760  1.2098 -0.8271
   85MOL    H1842186   0.680   3.233   6.658  2.3301 -0.8032 -3.2417
   85MOL    H1942187   0.208   3.345   6.366  0.3464  0.1127  0.6470
   85MOL    H2042188   0.327   3.434   6.266  0.1273  0.3381  0.6100
   85MOL    H2142189   0.532   3.199   6.274 -0.2828  0.1309 -0.0781
   85MOL    H2242190   0.547   2.992   6.114 -0.6575 -1.5107  0.6672
   85MOL    H2342191   0.368   2.914   5.997 -0.6085 -0.1199  1.0541
   85MOL    H2442192   0.138   3.010   6.030 -0.4883  2.6764 -1.4136
   85MOL    H2542193   0.117   3.218   6.168 -0.5952 -1.5572 -1.0075
   85MOL    H2642194   0.732   3.476   6.507 -2.2500  1.5277 -1.4882
   85MOL    C2742195   0.455   3.418   6.721 -0.4907  1.0404  0.4347
   85MOL    C2842196   0.399   3.561   6.766  0.1097  0.1364  0.3539
   85MOL    C2942197   0.347   3.636   6.645  1.0972 -0.1203  0.0660
   85MOL    C3042198   0.505   3.651   6.832 -0.5506  0.2449  0.4608
   85MOL    O3142199   0.623   3.604   6.852 -0.2760 -0.0268 -0.7171
   85MOL    O3242200   0.454   3.767   6.869 -0.3359  0.3765  0.1795
   85MOL    C3342201   0.531   3.854   6.945 -0.4781 -0.4397  0.2585
   85MOL    C3442202   0.534   3.988   6.880  0.4025 -1.1166 -0.2885
   85MOL    C3542203   0.431   4.083   6.895 -0.2223 -0.2088  0.3366
   85MOL    C3642204   0.442   4.208   6.831 -0.4784  0.7562 -0.4566
   85MOL    C3742205   0.552   4.239   6.745 -0.0684 -0.1445  0.5392
   85MOL    C3842206   0.656   4.147   6.736 -0.9298 -0.3693 -0.4096
   85MOL    C3942207   0.651   4.024   6.808 -0.0076 -0.7867  0.9067
   85MOL    H4042208   0.515   3.391   6.808 -1.6375 -0.1634  0.8590
   85MOL    H4142209   0.373   3.349   6.703  0.1162  0.1267  1.1355
   85MOL    H4242210   0.428   3.667   6.579  0.2838 -1.9045 -1.8666
   85MOL    H4342211   0.299   3.732   6.663  2.3830  0.3666  0.9446
   85MOL    H4442212   0.272   3.576   6.593  0.3782 -1.9030  3.0079
   85MOL    H4542213   0.489   3.857   7.046 -0.8232  0.9915  0.0784
   85MOL    H4642214   0.626   3.807   6.971  0.9846  2.6451  0.7907
   85MOL    H4742215   0.346   4.056   6.956 -0.5603 -2.7014 -1.1459
   85MOL    H4842216   0.365   4.284   6.831 -0.7523  0.4825 -0.1965
   85MOL    H4942217   0.549   4.333   6.692  1.0678  0.5252  1.6546
   85MOL    H5042218   0.747   4.161   6.680 -0.7230 -1.1876 -0.2824
   85MOL    H5142219   0.740   3.964   6.800  0.8821  0.3960  1.8828
   85MOL    C5242220   0.273   3.556   6.864 -0.2159 -0.1693  0.3840
   85MOL    C5342221   0.271   3.489   7.007 -0.1211  0.5210  0.7601
   85MOL    C5442222   0.370   3.559   7.102 -0.0539 -0.3887  0.3894
   85MOL    C5542223   0.293   3.337   6.997 -0.1350  0.1573  0.6436
   85MOL    O5642224   0.215   3.264   6.930  0.0941  0.1746 -0.6971
   85MOL    O5742225   0.411   3.291   7.053 -0.2812  0.0199 -0.1553
   85MOL    C5842226   0.438   3.152   7.050  0.2754 -0.1628  0.6101
   85MOL    C5942227   0.385   3.074   7.170  0.3205 -0.3329 -0.6533
   85MOL    C6042228   0.378   3.136   7.294  0.8415  0.1552 -0.1269
   85MOL    C6142229   0.336   3.066   7.405 -1.0781 -0.3287 -0.3469
   85MOL    C6242230   0.300   2.929   7.401 -0.5714  0.6080  0.2649
   85MOL    C6342231   0.309   2.864   7.275  0.3643 -0.4479 -0.5453
   85MOL    C6442232   0.346   2.941   7.163  0.1697  0.4222  0.4844
   85MOL    H6542233   0.197   3.501   6.808 -1.1497 -0.2279  1.6915
   85MOL    H6642234   0.229   3.656   6.873  0.1901  0.1754 -1.2555
   85MOL    H6742235   0.475   3.557   7.074  0.1439  0.8103  1.0263
   85MOL    H6842236   0.386   3.498   7.191 -1.0708 -0.0512  0.8061
   85MOL    H6942237   0.347   3.665   7.115 -0.1274 -0.3000 -0.4100
   85MOL    H7042238   0.415   3.107   6.953  0.6636 -1.9140  1.3165
   85MOL    H7142239   0.546   3.146   7.058  0.2071 -2.3185  0.2357
   85MOL    H7242240   0.424   3.232   7.313  0.3775  0.1608  0.9873
   85MOL    H7342241   0.340   3.118   7.500  2.5874 -3.2974  1.2404
   85MOL    H7442242   0.264   2.888   7.494  0.5180 -2.6403 -0.6738
   85MOL    H7542243   0.288   2.760   7.255 -0.4643 -0.0594 -1.7251
   85MOL    H7642244   0.348   2.901   7.063  0.1901  1.3423  0.1139
   85MOL    C7742245   0.126   3.521   7.057 -0.0381 -0.5126  0.1693
   85MOL    C7842246   0.076   3.515   7.204 -1.2739 -0.3344  0.3364
   85MOL    C7942247   0.135   3.385   7.270  0.1400 -0.4189 -0.1266
   85MOL    C8042248   7.936   3.498   7.202 -0.3947  0.3388 -0.1152
   85MOL    O8142249   7.887   3.405   7.267  0.0660 -0.1609 -0.4282
   85MOL    O8242250   7.867   3.594   7.140  0.8570 -0.3130 -0.2289
   85MOL    C8342251   7.728   3.590   7.154 -0.5035 -0.1600 -0.1918
   85MOL    C8442252   7.657   3.718   7.119  0.4675  0.1712  0.3620
   85MOL    C8542253   7.613   3.804   7.222  0.3596  0.3018 -0.6224
   85MOL    C8642254   7.562   3.934   7.193 -0.7142  0.5165 -0.7052
   85MOL    C8742255   7.540   3.968   7.057  0.6877 -0.6415 -0.0786
   85MOL    C8842256   7.576   3.881   6.960 -0.7857  0.2760  0.1897
   85MOL    C8942257   7.634   3.751   6.982  0.5687 -0.0489  0.1117
   85MOL    H9042258   0.069   3.446   7.002  2.2330 -2.1028 -0.0898
   85MOL    H9142259   0.106   3.621   7.020 -0.2454 -0.5178  0.2687
   85MOL    H9242260   0.112   3.381   7.376  2.1502 -3.0383  0.2656
   85MOL    H9342261   0.243   3.373   7.256  0.0981 -2.3920  1.1519
   85MOL    H9442262   0.091   3.291   7.237 -0.5902  0.1273 -0.7237
   85MOL    H9542263   7.691   3.514   7.085 -1.9624 -0.6040  1.0425
   85MOL    H9642264   7.703   3.568   7.258 -0.1708  1.9435  0.3534
   85MOL    H9742265   7.625   3.767   7.322  3.1348  0.6829 -0.7803
   85MOL    H9842266   7.534   3.997   7.277  1.1957 -1.6342  1.6093
   85MOL    H9942267   7.483   4.057   7.036  0.2102 -0.6462  1.1727
   85MOL   H10042268   7.581   3.903   6.854 -0.2396 -1.3344 -0.1317
   85MOL   H10142269   7.664   3.690   6.898  0.6463 -0.3714  0.3727
   85MOL   C10242270   0.133   3.636   7.290 -0.8020 -0.1365  0.4523
   85MOL   C10342271   0.063   3.738   7.386 -0.1086 -0.7690  0.5816
   85MOL   C10442272   7.991   3.657   7.497  0.0293  0.2648  0.6154
   85MOL   C10542273   7.965   3.831   7.312 -0.2573  1.0263 -0.4800
   85MOL   O10642274   7.867   3.866   7.368 -0.2172  0.1363 -0.1506
   85MOL   O10742275   8.000   3.867   7.183 -0.2363  0.6068 -0.1322
   85MOL   C10842276   7.914   3.957   7.110 -0.0605  0.6420  0.5774
   85MOL   C10942277   7.980   4.011   6.981 -0.1625  0.3077 -0.6027
   85MOL   C11042278   0.050   3.924   6.901 -0.0520  0.0207 -0.0363
   85MOL   C11142279   0.119   3.979   6.788 -0.0492 -0.3608 -0.1190
   85MOL   C11242280   0.087   4.106   6.733  0.1524  0.1688 -0.0524
   85MOL   C11342281   0.007   4.188   6.812 -0.8169  1.0254 -0.2759
   85MOL   C11442282   7.961   4.146   6.939  0.3515  0.0081  0.1978
   85MOL   H11542283   0.196   3.694   7.222  0.9167 -1.7158  0.6562
   85MOL   H11642284   0.209   3.592   7.355  0.3513  2.9437  1.2548
   85MOL   H11742285   7.958   3.718   7.581 -1.5655  0.5381 -0.1903
   85MOL   H11842286   0.046   3.587   7.554 -0.6441 -0.3295  0.6161
   85MOL   H11942287   7.901   3.613   7.454 -0.4531  2.6094 -0.8787
   85MOL   H12042288   7.825   3.900   7.085  1.4033 -1.3999 -0.0905
   85MOL   H12142289   7.881   4.043   7.168  0.6458  1.0861  0.3309
   85MOL   H12242290   0.072   3.824   6.935 -1.9026 -1.1006 -1.9589
   85MOL   H12342291   0.179   3.923   6.718 -0.5982 -1.7155  0.4693
   85MOL   H12442292   0.131   4.149   6.644 -1.4478 -0.9723 -1.4299
   85MOL   H12542293   7.989   4.287   6.777 -0.2101  1.5226  0.6746
   85MOL   H12642294   7.891   4.206   6.994 -0.6830 -1.5983  0.6854
   85MOL   C12742295   0.161   3.838   7.460 -0.3982 -0.0881  0.3689
   85MOL   C12842296   0.296   3.901   7.392 -0.2913  0.4251 -0.8218
   85MOL   C12942297   0.268   3.960   7.252 -0.1660 -0.1089 -0.1892
   85MOL   C13042298   0.412   3.805   7.373 -1.0904 -0.7529 -0.1019
   85MOL   O13142299   0.489   3.811   7.274  0.2192 -0.3046  0.1322
   85MOL   O13242300   0.426   3.709   7.472  0.0014 -0.2503 -0.3974
   85MOL   C13342301   0.529   3.623   7.459  0.1920  0.3818  0.0931
   85MOL   C13442302   0.510   3.517   7.559  0.8882  1.0747  0.2982
   85MOL   C13542303   0.609   3.487   7.651  0.0275  0.1326 -0.1274
   85MOL   C13642304   0.587   3.390   7.757 -0.1069 -0.0912 -0.1225
   85MOL   C13742305   0.466   3.324   7.759 -0.8032  0.2603  0.8439
   85MOL   C13842306   0.363   3.354   7.663  0.1098 -0.7282  0.4803
   85MOL   C13942307   0.391   3.449   7.566  0.5348 -0.4409 -0.8377
   85MOL   H14042308   0.198   3.790   7.550  0.9498 -1.8043 -1.0669
   85MOL   H14142309   0.099   3.921   7.495 -0.9267  0.3906 -1.6437
   85MOL   H14242310   0.239   3.886   7.178  0.4267  0.6075 -1.1596
   85MOL   H14342311   0.358   4.002   7.207  0.9775 -0.3812  1.8310
   85MOL   H14442312   0.198   4.043   7.262  1.3980  1.1000  0.9651
   85MOL   H14542313   0.559   3.583   7.362  3.8867  2.4558  0.2993
   85MOL   H14642314   0.617   3.686   7.468 -0.0383  0.9065 -1.1424
   85MOL   H14742315   0.707   3.534   7.643 -0.2402  0.5072 -1.3270
   85MOL   H14842316   0.669   3.374   7.825 -1.2311 -3.8389  0.4651
   85MOL   H14942317   0.449   3.245   7.831  1.3266  0.2642  1.4022
   85MOL   H15042318   0.272   3.298   7.653  1.1522 -2.3769 -0.0149
   85MOL   H15142319   0.324   3.465   7.483  0.4200 -2.7478 -1.2210
   85MOL   C15242320   0.346   4.031   7.476 -0.6730  0.3810  0.3521
   85MOL   C15342321   0.359   4.044   7.639  0.4146  0.5234  0.7251
   85MOL   C15442322   0.466   3.942   7.678  0.0567 -0.0097 -0.2146
   85MOL   C15542323   0.229   4.022   7.713 -0.4607 -0.8316  0.0278
   85MOL   O15642324   0.221   3.938   7.804 -0.2607 -0.0862 -0.4531
   85MOL   O15742325   0.130   4.102   7.666  0.0724  0.4598  0.7674
   85MOL   C15842326   8.005   4.082   7.716  0.2993  0.5108  0.4022
   85MOL   C15942327   7.916   4.188   7.656  0.3145  0.3018 -0.0237
   85MOL   C16042328   7.894   4.311   7.721 -0.6261  0.0611 -0.3753
   85MOL   C16142329   7.792   4.398   7.675  0.3749  0.2648 -0.3542
   85MOL   C16242330   7.725   4.370   7.557  0.7295  0.0064  0.6535
   85MOL   C16342331   7.746   4.250   7.488 -0.2419 -0.2880  0.2069
   85MOL   C16442332   7.840   4.161   7.543  0.0448  0.4359  1.2985
   85MOL   H16542333   0.306   4.125   7.438 -1.9979 -0.2910  0.0501
   85MOL   H16642334   0.446   4.045   7.433 -0.6554  2.6224  1.0786
   85MOL   H16742335   0.553   3.955   7.614 -0.4308  1.7260 -0.5544
   85MOL   H16842336   0.437   3.838   7.665  0.9157 -0.5290  1.8870
   85MOL   H16942337   0.483   3.946   7.785  0.5140  0.0576 -0.2880
   85MOL   H17042338   7.975   3.980   7.694 -2.8757  1.5097 -0.2590
   85MOL   H17142339   8.005   4.113   7.820  0.8844  0.0309  0.5493
   85MOL   H17242340   7.951   4.336   7.809 -1.0781 -0.1994 -0.0087
   85MOL   H17342341   7.762   4.486   7.729 -2.1901 -0.6608 -0.1783
   85MOL   H17442342   7.640   4.435   7.542 -0.2939 -1.1125  1.4455
   85MOL   H17542343   7.687   4.209   7.408 -0.2117  0.3359 -0.1381
   85MOL   H17642344   7.853   4.068   7.489 -2.6763  0.8505 -0.1512
   85MOL   C17742345   0.402   4.198   7.658 -0.2781 -0.2184 -0.4753
   85MOL   C17842346   0.432   4.264   7.801  0.9586  0.3320  0.6429
   85MOL   C17942347   0.471   4.412   7.781  0.6487 -0.8181  0.1413
   85MOL   C18042348   0.557   4.193   7.858  0.8292  0.4409 -0.5308
   85MOL   O18142349   0.660   4.197   7.798 -0.3396 -0.8511 -0.0808
   85MOL   O18242350   0.540   4.118   7.973 -0.5687  0.1032  0.4276
   85MOL   C18342351   0.640   4.022   0.001 -0.1202  0.2652 -0.2023
   85MOL   C18442352   0.597   3.880   0.006 -0.2996  0.3181  0.4998
   85MOL   C18542353   0.467   3.850   0.056 -0.0587  0.6813 -0.0214
   85MOL   C18642354   0.431   3.712   0.045 -0.2147  0.3714 -0.8555
   85MOL   C18742355   0.528   3.613   0.006  0.1088  0.4205  0.4636
   85MOL   C18842356   0.657   3.647   7.976  0.2885 -0.9268 -0.0413
   85MOL   C18942357   0.692   3.783   7.973 -0.4598 -0.0039  0.1720
   85MOL   H19042358   0.329   4.262   7.608 -1.9614 -1.0808  0.8655
   85MOL   H19142359   0.486   4.206   7.589 -0.6600 -0.5642 -0.9854
   85MOL   H19242360   0.510   4.459   7.872  1.4741 -1.2285  0.0049
   85MOL   H19342361   0.384   4.471   7.752  1.1378 -0.0034  0.3141
   85MOL   H19442362   0.540   4.420   7.697 -1.8108 -2.4015 -2.1032
   85MOL   H19542363   0.724   4.035   7.940  2.3383 -3.2903  1.9693
   85MOL   H19642364   0.671   4.044   0.103 -1.5336  0.5832  0.1670
   85MOL   H19742365   0.402   3.931   0.087 -0.5992  0.7913 -1.3785
   85MOL   H19842366   0.333   3.675   0.073  0.5104 -0.7102  0.2766
   85MOL   H19942367   0.504   3.510   0.025  0.0156  0.3787  0.1109
   85MOL   H20042368   0.736   3.577   7.956  0.4799 -0.9515  0.7710
   85MOL   H20142369   0.793   3.801   7.940  0.3720 -4.3668  0.0038
   85MOL   C20242370   0.303   4.260   7.895 -0.1210 -0.4567 -0.0498
   85MOL   C20342371   0.283   4.354   0.016 -0.5125 -0.5497 -0.3523
   85MOL   C20442372   0.151   4.295   0.076 -0.3364  0.4695  0.1784
   85MOL   C20542373   0.247   4.501   7.974  0.8647 -0.1532  0.3378
   85MOL   O20642374   0.327   4.593   7.989 -0.0715  0.2561  0.0106
   85MOL   O20742375   0.126   4.511   7.914  0.5692 -0.5329 -0.4660
   85MOL   C20842376   0.089   4.632   7.853  0.1442  0.0142 -1.1257
   85MOL   C20942377   0.144   4.645   7.716  0.0518 -0.2758  0.0542
   85MOL   C21042378   0.237   4.753   7.683  0.3966  0.4309 -0.0350
   85MOL   C21142379   0.299   4.756   7.558 -0.0045  0.2858 -0.7251
   85MOL   C21242380   0.273   4.653   7.468 -0.1579  0.6391  0.0670
   85MOL   C21342381   0.189   4.547   7.494  0.1673  0.2858  0.1105
   85MOL   C21442382   0.121   4.545   7.619 -0.0962  0.0886  0.1623
   85MOL   H21542383   0.284   4.163   7.943 -2.0820 -0.1869 -0.2729
   85MOL   H21642384   0.220   4.284   7.829  0.6097  0.1898 -0.7348
   85MOL   H21742385   0.177   4.204   0.130 -0.4397  1.1607  1.4186
   85MOL   H21842386   0.079   4.272   8.004  1.5009 -2.3234 -0.7234
   85MOL   H21942387   0.106   4.363   0.149  2.7858  1.5803  1.1484
   85MOL   H22042388   7.987   4.640   7.842 -0.6519 -1.7790  4.1379
   85MOL   H22142389   0.120   4.717   7.913 -1.4715  0.2072 -0.5477
   85MOL   H22242390   0.268   4.824   7.758  1.8579  0.3088 -0.5090
   85MOL   H22342391   0.371   4.831   7.529 -0.0220 -0.0970 -1.7743
   85MOL   H22442392   0.313   4.663   7.368  1.0485  0.2318  0.4943
   85MOL   H22542393   0.170   4.470   7.420  1.9845 -0.6978  0.6376
   85MOL   H22642394   0.054   4.464   7.643  2.0038 -1.5704  0.6434
   85MOL   C22742395   0.401   4.346   0.122  0.1371  0.3729  0.5768
   85MOL   C22842396   0.408   4.427   0.255 -0.2698 -0.4880 -0.3725
   85MOL   C22942397   0.269   4.445   0.321 -0.2766 -0.2091  0.9481
   85MOL   C23042398   0.471   4.570   0.229 -0.8595  0.1083  0.2430
   85MOL   O23142399   0.422   4.674   0.280 -0.2767  0.5918 -0.5586
   85MOL   O23242400   0.589   4.568   0.160 -0.2686  0.4955 -0.1795
   85MOL   C23342401   0.644   4.694   0.115 -0.4202  0.1487  0.6456
   85MOL   C23442402   0.718   4.688   7.988  0.7560  0.1042 -0.6409
   85MOL   C23542403   0.642   4.696   7.866  0.2007 -0.3057  0.2387
   85MOL   C23642404   0.708   4.684   7.743 -0.5212 -0.1350 -0.2323
   85MOL   C23742405   0.848   4.660   7.735  0.6817  0.5283 -0.4802
   85MOL   C23842406   0.924   4.659   7.856  0.7720  0.4514  0.1752
   85MOL   C23942407   0.857   4.667   7.983 -0.1961  0.6645 -0.3882
   85MOL   H24042408   0.495   4.364   0.071 -1.0665 -0.9660 -2.1861
   85MOL   H24142409   0.427   4.242   0.144  0.8441  0.3685 -0.2543
   85MOL   H24242410   0.213   4.503   0.248 -1.1171 -2.1970 -0.0302
   85MOL   H24342411   0.274   4.511   0.407 -0.5267 -0.0914  0.8742
   85MOL   H24442412   0.218   4.351   0.345  1.0987 -0.3865  3.3203
   85MOL   H24542413   0.573   4.776   0.106  0.4397  0.8858  0.5460
   85MOL   H24642414   0.710   4.724   0.196  0.7302 -1.6408  0.3960
   85MOL   H24742415   0.538   4.719   7.883  0.4853  2.6716 -1.7406
   85MOL   H24842416   0.645   4.691   7.655  1.3178  1.8467 -1.4461
   85MOL   H24942417   0.903   4.649   7.643  1.8938  2.7666 -0.0631
   85MOL   H25042418   1.032   4.657   7.859  0.7630 -1.9210 -0.0166
   85MOL   H25142419   0.909   4.661   0.071 -1.0383 -0.9099 -0.0241
   85MOL   C25242420   0.512   4.359   0.351 -0.2220  0.3282 -0.1735
   85MOL   C25342421   0.476   4.254   0.456 -0.1655 -0.4150 -0.3746
   85MOL   C25442422   0.409   4.133   0.388  0.4963  0.1625  0.5802
   85MOL   C25542423   0.385   4.318   0.561 -0.6978  0.3145  0.9895
   85MOL   O25642424   0.275   4.262   0.588  0.1062 -0.0711  0.0731
   85MOL   O25742425   0.438   4.426   0.621 -0.2165  0.6374  0.2769
   85MOL   C25842426   0.379   4.477   0.736 -0.7175 -0.1390  0.2749
   85MOL   C25942427   0.301   4.602   0.709 -0.0612 -0.7508 -0.4091
   85MOL   C26042428   0.359   4.708   0.634 -0.3879 -0.0667  0.6860
   85MOL   C26142429   0.291   4.829   0.606 -0.0746 -0.2905 -0.0816
   85MOL   C26242430   0.163   4.844   0.662 -0.0087  0.5177  0.4914
   85MOL   C26342431   0.103   4.742   0.741 -0.5632  0.6927 -0.3938
   85MOL   C26442432   0.179   4.624   0.773 -0.5667  0.0563  0.2916
   85MOL   H26542433   0.564   4.438   0.405  0.5123 -1.0248  1.1207
   85MOL   H26642434   0.583   4.314   0.282 -1.3512 -2.4069  0.3526
   85MOL   H26742435   0.383   4.063   0.467  2.2533  1.9792  2.8522
   85MOL   H26842436   0.481   4.085   0.321  1.0143  0.9431  0.5670
   85MOL   H26942437   0.330   4.163   0.319  0.9672 -1.3264 -0.6313
   85MOL   H27042438   0.323   4.398   0.787 -0.3000 -0.3335  0.4371
   85MOL   H27142439   0.457   4.497   0.809 -0.9691 -0.5007  0.6450
   85MOL   H27242440   0.459   4.687   0.598 -0.8511 -2.0653  0.5064
   85MOL   H27342441   0.339   4.902   0.542  1.7426 -1.8846 -0.5580
   85MOL   H27442442   0.097   4.925   0.635  0.7956  1.4999  1.4261
   85MOL   H27542443   0.002   4.738   0.780  0.3406  1.7401  2.1974
   85MOL   H27642444   0.136   4.555   0.845 -3.6249  0.8209 -0.7268
   85MOL   C27742445   0.608   4.204   0.518 -0.1960 -0.2875  0.1944
   85MOL   C27842446   0.620   4.088   0.621  0.0757  0.2672 -0.4056
   85MOL   C27942447   0.536   4.122   0.750 -0.1866 -0.3660 -0.3292
   85MOL   C28042448   0.771   4.092   0.657  0.2581  0.3087  0.2231
   85MOL   O28142449   0.859   4.103   0.573  0.0033  0.2606  0.7105
   85MOL   O28242450   0.790   4.077   0.795 -0.1704  0.7333 -0.2960
   85MOL   C28342451   0.915   4.086   0.858 -0.3674  0.6403 -0.1596
   85MOL   C28442452   0.896   4.136   0.997 -0.3257 -0.0234 -0.6973
   85MOL   C28542453   0.806   4.241   1.022  0.3582 -0.5253 -0.2625
   85MOL   C28642454   0.801   4.291   1.154  0.3058 -0.5712  0.1295
   85MOL   C28742455   0.872   4.233   1.258  0.2939 -0.4266 -0.1748
   85MOL   C28842456   0.955   4.128   1.231 -0.2003  0.0935 -0.5196
   85MOL   C28942457   0.967   4.076   1.100  0.1586  0.4703  0.0027
   85MOL   H29042458   0.658   4.293   0.555  3.3638 -1.8679 -0.6715
   85MOL   H29142459   0.658   4.170   0.428  0.3587 -1.1194  0.8119
   85MOL   H29242460   0.556   4.049   0.829  1.4487  0.1336 -0.2697
   85MOL   H29342461   0.428   4.108   0.735 -0.5976  1.3927  0.8549
   85MOL   H29442462   0.561   4.224   0.778  1.1384 -1.2709  1.8814
   85MOL   H29542463   0.963   3.988   0.863 -0.0538  0.8502  1.4667
   85MOL   H29642464   0.976   4.156   0.801 -1.5540  1.2605 -0.6609
   85MOL   H29742465   0.756   4.296   0.944 -2.7626  0.2010  2.1408
   85MOL   H29842466   0.729   4.369   1.172  0.9439  0.3340 -1.1470
   85MOL   H29942467   0.852   4.270   1.358 -1.7899 -0.7759 -0.4411
   85MOL   H30042468   1.008   4.080   1.312 -2.1615 -1.0874  0.0872
   85MOL   H30142469   1.030   3.990   1.082 -0.7843 -0.0341 -1.0072
   85MOL   C30242470   0.583   3.946   0.571  0.1410 -0.5284 -0.2337
   85MOL   C30342471   0.644   3.804   0.617  0.9600  0.3281  0.5804
   85MOL   C30442472   0.560   3.694   0.542 -0.4160 -0.2368  0.0435
   85MOL   C30542473   0.630   3.783   0.775  0.2643  0.1798 -0.4074
   85MOL   O30642474   0.722   3.751   0.856 -0.0916  0.4635  0.3403
   85MOL   O30742475   0.502   3.800   0.810 -0.5168  0.1551 -0.0877
   85MOL   C30842476   0.467   3.769   0.942  0.0351  0.0105  0.9968
   85MOL   C30942477   0.455   3.626   0.979 -0.0877  0.1845  0.0765
   85MOL   C31042478   0.537   3.576   1.081  0.1219  0.9913  0.9519
   85MOL   C31142479   0.512   3.450   1.140  0.6657  0.6312 -0.4708
   85MOL   C31242480   0.397   3.378   1.093  0.9831  0.1162  0.4993
   85MOL   C31342481   0.320   3.426   0.982  0.5874 -0.1372  0.1579
   85MOL   C31442482   0.354   3.552   0.927  0.8394 -0.3038 -0.7275
   85MOL   H31542483   0.590   3.957   0.463  0.5560 -0.1330 -0.1653
   85MOL   H31642484   0.477   3.921   0.582 -0.0562 -0.3082 -1.6096
   85MOL   H31742485   0.555   3.692   0.433  1.0240 -1.2195 -0.0177
   85MOL   H31842486   0.456   3.697   0.577 -0.0090 -1.3298  1.3996
   85MOL   H31942487   0.602   3.596   0.568  1.7960  0.9390  0.9700
   85MOL   H32042488   0.543   3.806   1.010  2.4611 -0.8179 -1.1611
   85MOL   H32142489   0.374   3.825   0.959  0.6281  1.4468 -0.2940
   85MOL   H32242490   0.622   3.633   1.116  1.8342 -2.0694  1.8999
   85MOL   H32342491   0.579   3.414   1.216 -2.3868  1.9699  2.9867
   85MOL   H32442492   0.365   3.284   1.137  0.7873 -0.3937 -0.6992
   85MOL   H32542493   0.240   3.372   0.935 -0.3846  0.8436  0.6491
   85MOL   H32642494   0.292   3.593   0.849  0.5915  0.3953 -0.1739
   85MOL   C32742495   0.797   3.781   0.573 -0.1175  0.0452 -0.1633
   85MOL   C32842496   0.852   3.757   0.420  0.4723 -0.7250  0.7852
   85MOL   C32942497   0.765   3.840   0.322 -0.0693  0.1794 -0.1734
   85MOL   C33042498   0.827   3.608   0.372 -0.2544 -0.3645  0.1504
   85MOL   O33142499   0.768   3.577   0.275 -0.1038  0.0101  0.3710
   85MOL   O33242500   0.887   3.524   0.457 -0.3599  0.2184  0.3977
   85MOL   C33342501   0.869   3.384   0.441 -0.0449  0.3345 -0.6119
   85MOL   C33442502   0.742   3.344   0.512 -1.1031  0.4944  0.4920
   85MOL   C33542503   0.708   3.386   0.641 -0.0443 -0.2578  0.1426
   85MOL   C33642504   0.586   3.351   0.704  0.5155 -0.4371  0.3147
   85MOL   C33742505   0.501   3.267   0.634  0.7032  0.4531  0.2432
   85MOL   C33842506   0.541   3.202   0.513  0.0546  0.1046 -0.0999
   85MOL   C33942507   0.666   3.239   0.456 -0.3734  0.2513 -0.0601
   85MOL   H34042508   0.831   3.691   0.625 -0.6668  1.4833  2.7999
   85MOL   H34142509   0.867   3.846   0.625  1.6814 -1.8517 -0.1389
   85MOL   H34242510   0.775   3.948   0.331 -1.3677  0.4746 -1.8019
   85MOL   H34342511   0.664   3.806   0.299 -0.9421  2.3008  0.4197
   85MOL   H34442512   0.811   3.828   0.224 -1.2527  4.2857 -1.3416
   85MOL   H34542513   0.857   3.364   0.334 -1.0021 -1.2382 -0.2183
   85MOL   H34642514   0.952   3.325   0.478 -1.0049  0.1055  1.2488
   85MOL   H34742515   0.774   3.455   0.691  1.1481  0.2491 -2.0537
   85MOL   H34842516   0.562   3.398   0.798  0.6305  0.5073 -0.1126
   85MOL   H34942517   0.410   3.242   0.687 -0.0242  2.3375 -0.0519
   85MOL   H35042518   0.488   3.118   0.471 -0.3395  0.3986 -0.1849
   85MOL   H35142519   0.700   3.174   0.377 -0.1906  0.3506 -0.0631
   85MOL   C35242520   0.999   3.807   0.416  0.1945 -0.1005  0.6976
   85MOL   C35342521   1.117   3.759   0.317 -0.4928 -0.4701  0.6107
   85MOL   C35442522   1.065   3.742   0.175  0.3288  0.3260 -0.5553
   85MOL   C35542523   1.171   3.619   0.366  0.0118 -0.4121 -0.9202
   85MOL   O35642524   1.155   3.581   0.481  0.1860  0.2898 -0.0216
   85MOL   O35742525   1.231   3.557   0.267 -0.0954  0.0155  0.3092
   85MOL   C35842526   1.298   3.430   0.278 -0.3473  0.2982 -0.5743
   85MOL   C35942527   1.409   3.396   0.172 -0.3233 -0.1102  1.0356
   85MOL   C36042528   1.467   3.499   0.103 -0.0416  0.0092 -0.1911
   85MOL   C36142529   1.579   3.478   0.018  0.4299 -0.3116  0.2205
   85MOL   C36242530   1.613   3.346   7.996 -0.0253  0.1220  0.3460
   85MOL   C36342531   1.547   3.236   0.057 -0.1321  0.0342 -0.6669
   85MOL   C36442532   1.442   3.261   0.150  0.2689  0.1042  0.1019
   85MOL   H36542533   1.037   3.776   0.513 -0.2598 -2.7294  0.0569
   85MOL   H36642534   0.993   3.916   0.418 -1.1354 -0.1741  0.8399
   85MOL   H36742535   1.145   3.707   0.110 -0.1642  3.0992 -2.7285
   85MOL   H36842536   1.045   3.838   0.128  1.0382  0.7165 -0.0666
   85MOL   H36942537   0.981   3.675   0.161 -1.1950  1.7418  1.4834
   85MOL   H37042538   1.335   3.395   0.374 -0.3154 -0.9774 -1.0322
   85MOL   H37142539   1.226   3.353   0.251 -0.0756 -0.5647  1.0938
   85MOL   H37242540   1.449   3.602   0.131  1.1850 -0.2848  1.8338
   85MOL   H37342541   1.625   3.560   7.972  0.2259 -1.3054 -1.5435
   85MOL   H37442542   1.690   3.320   7.925  0.1997  0.5823  0.4204
   85MOL   H37542543   1.583   3.134   0.055  0.6516  0.0734  4.4899
   85MOL   H37642544   1.393   3.174   0.192 -1.2516 -0.1820 -2.1649
   85MOL   C37742545   1.235   3.865   0.316 -0.7061  0.1556 -0.7560
   85MOL   C37842546   1.322   3.926   0.447  0.4051  0.4126  0.3595
   85MOL   C37942547   1.221   4.007   0.529  0.9522 -0.1829  0.0528
   85MOL   C38042548   1.418   4.022   0.384 -0.2468 -0.2644  0.0723
   85MOL   O38142549   1.442   4.032   0.260  0.4506  0.8318 -0.3829
   85MOL   O38242550   1.466   4.118   0.468 -0.1958  0.7243  0.1167
   85MOL   C38342551   1.546   4.224   0.421  0.8182 -0.4002 -0.4288
   85MOL   C38442552   1.676   4.247   0.498 -0.0821  0.4442  0.0785
   85MOL   C38542553   1.686   4.231   0.638  0.1629  0.9891 -0.0319
   85MOL   C38642554   1.801   4.263   0.710  0.5236  1.1276  0.0247
   85MOL   C38742555   1.909   4.325   0.639 -0.4914 -0.5362  0.1727
   85MOL   C38842556   1.899   4.344   0.500 -0.1034 -0.8313  1.3228
   85MOL   C38942557   1.787   4.301   0.429 -0.0392  0.6331  0.2527
   85MOL   H39042558   1.191   3.953   0.269  0.3571 -0.0698 -2.2201
   85MOL   H39142559   1.302   3.829   0.239 -0.7684 -0.0340 -0.7226
   85MOL   H39242560   1.138   3.949   0.569  1.4947 -0.6792  0.4616
   85MOL   H39342561   1.176   4.087   0.470  0.1068  0.2879  1.3019
   85MOL   H39442562   1.271   4.055   0.613  0.0962  1.7236 -0.4873
   85MOL   H39542563   1.568   4.212   0.315  0.1804 -1.2808 -0.4679
   85MOL   H39642564   1.484   4.313   0.417 -0.2110 -1.0718  0.2770
   85MOL   H39742565   1.603   4.186   0.690 -0.1872  0.8475 -0.7056
   85MOL   H39842566   1.802   4.237   0.815 -1.8258 -0.3584 -0.2920
   85MOL   H39942567   2.004   4.348   0.687  1.2253 -3.1579 -1.8126
   85MOL   H40042568   1.974   4.398   0.444 -2.8991  0.3776 -1.3863
   85MOL   H40142569   1.781   4.313   0.322  0.0306  1.6017  0.3501
   85MOL   C40242570   1.390   3.823   0.544  0.7434  0.1114  0.0747
   85MOL   C40342571   1.523   3.743   0.510  0.3634 -0.1336  0.4029
   85MOL   C40442572   1.537   3.698   0.362  0.1441 -0.6175  0.5528
   85MOL   C40542573   1.514   3.615   0.598  0.4915  0.7843 -0.3106
   85MOL   O40642574   1.486   3.633   0.718  0.6023  0.5686 -0.5905
   85MOL   O40742575   1.550   3.507   0.534  0.5828 -0.2042  0.3050
   85MOL   C40842576   1.553   3.390   0.603 -0.3974  0.3981  0.1273
   85MOL   C40942577   1.594   3.274   0.522  0.2083 -0.2148 -0.5787
   85MOL   C41042578   1.528   3.149   0.535 -0.8289 -0.6160 -0.3788
   85MOL   C41142579   1.574   3.038   0.458  0.5894 -0.3013 -0.1984
   85MOL   C41242580   1.681   3.056   0.364  0.3569 -1.0241  0.5185
   85MOL   C41342581   1.743   3.181   0.353 -0.1853  0.6761  0.2412
   85MOL   C41442582   1.699   3.291   0.430 -0.5626 -0.1667 -0.0595
   85MOL   H41542583   1.309   3.756   0.573  1.1960 -0.1968  0.6468
   85MOL   H41642584   1.411   3.873   0.639 -3.3659 -1.4422  1.9274
   85MOL   H41742585   1.540   3.784   0.294 -1.8823 -1.9248 -1.2571
   85MOL   H41842586   1.439   3.653   0.346  0.5682 -1.1550 -0.5461
   85MOL   H41942587   1.614   3.623   0.343 -1.0149 -1.6561 -0.0993
   85MOL   H42042588   1.616   3.389   0.692 -3.1763 -0.6694  2.1818
   85MOL   H42142589   1.454   3.369   0.644 -1.1494  2.9330 -0.2854
   85MOL   H42242590   1.450   3.137   0.610 -0.0492  2.5333  1.0022
   85MOL   H42342591   1.518   2.945   0.455  0.2646 -0.0636 -2.2941
   85MOL   H42442592   1.705   2.970   0.304  0.3836 -0.4175 -0.3444
   85MOL   H42542593   1.821   3.198   0.280  1.5774  1.4360  2.2646
   85MOL   H42642594   1.746   3.385   0.407  1.6928 -0.6878  2.1846
   85MOL   C42742595   1.646   3.831   0.553  0.1737  0.2711  0.5011
   85MOL   C42842596   1.795   3.804   0.527 -0.3153  0.5593 -0.3058
   85MOL   C42942597   1.874   3.914   0.602  0.3419  0.3875  0.1327
   85MOL   C43042598   1.835   3.823   0.378 -0.4857 -0.6304  0.0145
   85MOL   O43142599   1.877   3.731   0.302 -0.0944  0.3933 -0.3986
   85MOL   O43242600   1.816   3.949   0.338  0.2074  0.5133 -0.0232
   85MOL   C43342601   1.872   3.999   0.218 -0.1508 -0.1221  0.1452
   85MOL   C43442602   1.769   3.996   0.097  0.2559 -0.4656 -0.5989
   85MOL   C43542603   1.701   3.877   0.066  0.4133  0.1460 -0.3682
   85MOL   C43642604   1.604   3.870   7.971 -0.5568 -0.3659  0.2451
   85MOL   C43742605   1.573   3.988   7.900  0.1489  0.6330  0.0966
   85MOL   C43842606   1.652   4.100   7.931 -0.0978 -0.8950 -0.3064
   85MOL   C43942607   1.757   4.103   0.017 -0.6287 -0.0951 -0.3206
   85MOL   H44042608   1.631   3.834   0.661 -0.1897 -0.6341  0.4779
   85MOL   H44142609   1.630   3.936   0.526  2.3928 -0.4934 -4.3142
   85MOL   H44242610   1.842   4.014   0.575 -1.6221 -0.3905 -0.4751
   85MOL   H44342611   1.981   3.904   0.581  0.0882 -1.6268 -0.3075
   85MOL   H44442612   1.853   3.896   0.707 -1.2602 -0.2588 -0.2812
   85MOL   H44542613   1.906   4.102   0.225 -0.2743  0.1445 -2.6148
   85MOL   H44642614   1.956   3.948   0.171 -0.3660 -1.0283  0.7274
   85MOL   H44742615   1.721   3.782   0.114 -2.9425 -0.9104 -0.9601
   85MOL   H44842616   1.553   3.776   7.960  0.9660 -1.2058  0.2220
   85MOL   H44942617   1.492   3.989   7.828  1.1174  0.8803 -1.0058
   85MOL   H45042618   1.639   4.189   7.872  1.6883 -0.6187 -0.3047
   85MOL   H45142619   1.812   4.195   0.028 -0.6324  0.1011 -1.8962
   85MOL   C45242620   1.831   3.654   0.574 -0.3927 -0.1960 -0.1775
   85MOL   C45342621   1.972   3.613   0.629  0.6593 -0.4089 -0.2577
   85MOL   C45442622   1.950   3.454   0.645 -0.0220  0.0526 -0.5970
   85MOL   C45542623   1.999   3.678   0.769 -0.5991 -0.5119  0.6052
   85MOL   O45642624   2.087   3.757   0.794  0.1447 -0.4824 -0.1428
   85MOL   O45742625   1.911   3.638   0.855  0.1253 -0.0154  0.0378
   85MOL   C45842626   1.910   3.695   0.990  0.2874 -1.8243  0.2537
   85MOL   C45942627   1.781   3.647   1.067  0.5755 -0.3682  0.3015
   85MOL   C46042628   1.673   3.592   1.000 -0.5104 -0.7702  0.0547
   85MOL   C46142629   1.568   3.531   1.075 -0.2234 -0.0573  0.3148
   85MOL   C46242630   1.559   3.554   1.217 -0.7849  0.7516 -0.2560
   85MOL   C46342631   1.666   3.615   1.279  0.0276 -0.0116  0.0822
   85MOL   C46442632   1.781   3.657   1.207  0.7706 -0.4075  0.2117
   85MOL   H46542633   1.808   3.578   0.500  3.6239 -1.3868 -0.3238
   85MOL   H46642634   1.770   3.635   0.662  2.0298 -1.9102  1.1889
   85MOL   H46742635   1.929   3.403   0.551 -1.5013  1.3415 -0.9899
   85MOL   H46842636   1.869   3.422   0.710 -0.4364  1.4184 -0.4215
   85MOL   H46942637   2.026   3.397   0.699 -0.4309 -0.3214 -0.4097
   85MOL   H47042638   2.001   3.649   1.030 -0.1190 -1.6516  1.3854
   85MOL   H47142639   1.907   3.804   0.982 -2.1350 -1.8025  1.1674
   85MOL   H47242640   1.669   3.572   0.894  2.2805  0.3804 -0.3071
   85MOL   H47342641   1.490   3.480   1.021  0.2614 -0.8228  0.3284
   85MOL   H47442642   1.486   3.495   1.269  0.6512 -1.0567 -0.2313
   85MOL   H47542643   1.683   3.614   1.386 -0.7451 -0.1943  0.2060
   85MOL   H47642644   1.873   3.683   1.258 -0.1253  0.0472  1.6104
   85MOL   C47742645   2.088   3.643   0.525 -0.2770 -0.8283 -0.1191
   85MOL   C47842646   2.236   3.596   0.546 -0.2722  0.0227  0.1521
   85MOL   C47942647   2.336   3.706   0.496 -0.2046 -0.0428  0.0984
   85MOL   C48042648   2.276   3.464   0.481 -0.1439 -0.1063  0.5012
   85MOL   O48142649   2.314   3.367   0.552  0.1275  0.3151  0.1598
   85MOL   O48242650   2.273   3.469   0.350 -0.3764  0.0847 -0.5807
   85MOL   C48342651   2.301   3.356   0.269 -0.1512 -0.6966 -0.2047
   85MOL   C48442652   2.201   3.340   0.157  0.0762 -0.7843  0.8127
   85MOL   C48542653   2.246   3.267   0.045  0.4744 -0.5747 -0.0946
   85MOL   C48642654   2.161   3.246   7.941  0.5781 -0.5508 -0.1150
   85MOL   C48742655   2.027   3.288   7.945 -0.8717 -0.3408 -0.1934
   85MOL   C48842656   1.977   3.357   0.051 -0.4305 -0.8081  0.8456
   85MOL   C48942657   2.065   3.382   0.161 -0.3504 -0.0465  0.2389
   85MOL   H49042658   2.107   3.749   0.513 -0.0628 -0.6326  1.8417
   85MOL   H49142659   2.052   3.612   0.426  1.9230  1.6423 -1.7578
   85MOL   H49242660   2.441   3.677   0.509 -0.7495 -2.3382 -0.3287
   85MOL   H49342661   2.313   3.799   0.548 -1.1490 -1.0269  1.4816
   85MOL   H49442662   2.320   3.720   0.389 -1.1038 -2.4472 -0.1208
   85MOL   H49542663   2.396   3.383   0.222  0.4136  0.7708  1.7087
   85MOL   H49642664   2.308   3.267   0.332 -3.0034 -1.3585 -0.7754
   85MOL   H49742665   2.346   3.227   0.038  1.1405  0.9895  0.3397
   85MOL   H49842666   2.200   3.189   7.858  0.0945 -1.4221  0.2538
   85MOL   H49942667   1.965   3.282   7.857  0.6623  2.3529 -1.5194
   85MOL   H50042668   1.878   3.399   0.053 -0.9221 -1.9493  1.0288
   85MOL   H50142669   2.025   3.439   0.244 -0.0813 -1.3969  1.3096
   85MOL   H50242670   2.261   3.583   0.651  1.2292 -1.3123 -0.3493
   86MOL     C142671   3.879   4.480   7.625  0.0156  0.4780  0.1429
   86MOL     C242672   4.014   4.429   7.556 -0.0903 -0.3442  0.1756
   86MOL     C342673   4.020   4.274   7.535 -0.2375  0.6502 -0.0892
   86MOL     C442674   4.126   4.463   7.663  0.1650 -0.2528 -0.3684
   86MOL     O542675   4.114   4.533   7.764  0.0111 -0.0798 -0.1668
   86MOL     O642676   4.248   4.418   7.621  1.1233  0.1836  0.0199
   86MOL     C742677   4.366   4.441   7.696 -0.0498  0.5251 -0.3622
   86MOL     C842678   4.484   4.478   7.598  0.5458  0.0107  0.1143
   86MOL     C942679   4.617   4.451   7.629 -0.3161  0.1345 -0.3436
   86MOL    C1042680   4.718   4.504   7.547  0.3022 -0.0173  0.0618
   86MOL    C1142681   4.689   4.586   7.438  0.1950 -0.2794 -0.2940
   86MOL    C1242682   4.555   4.611   7.400  0.4984 -0.3270 -0.2451
   86MOL    C1342683   4.455   4.562   7.487  0.4399  0.1922  0.0744
   86MOL    H1442684   3.857   4.429   7.719 -0.5739 -0.3804 -0.4472
   86MOL    H1542685   3.885   4.583   7.658  2.5113 -0.2908  2.2681
   86MOL    H1642686   4.103   4.231   7.479 -1.0714 -1.5268  0.3020
   86MOL    H1742687   3.927   4.238   7.490 -0.8033  2.4164 -0.3710
   86MOL    H1842688   4.012   4.231   7.635 -1.8816 -2.3404 -1.4329
   86MOL    H1942689   4.359   4.527   7.763 -0.2750 -0.6787  1.1853
   86MOL    H2042690   4.386   4.342   7.737 -1.5491  0.6223  0.6325
   86MOL    H2142691   4.635   4.392   7.717  0.7347  1.4823  0.3527
   86MOL    H2242692   4.820   4.492   7.580  0.3688 -1.0866 -0.5216
   86MOL    H2342693   4.768   4.625   7.376  1.5693 -0.3398  1.4086
   86MOL    H2442694   4.530   4.667   7.311  0.3308  0.1979  0.1323
   86MOL    H2542695   4.350   4.565   7.460  0.3506  0.0934  0.4018
   86MOL    H2642696   3.789   4.471   7.564  1.6411  0.4830 -2.3289
   86MOL    C2742697   4.037   4.518   7.431  0.1518  0.0686 -0.7083
   86MOL    C2842698   3.969   4.500   7.286 -0.1240 -0.2374  0.5321
   86MOL    C2942699   3.814   4.507   7.307 -0.7951 -0.1072  0.4946
   86MOL    C3042700   4.019   4.365   7.226  0.0746  0.5003 -0.3530
   86MOL    O3142701   3.940   4.281   7.172 -0.2438  0.7821  0.7956
   86MOL    O3242702   4.149   4.347   7.232 -0.1044  0.4799  0.0447
   86MOL    C3342703   4.210   4.231   7.165 -0.2427  0.2599  0.4996
   86MOL    C3442704   4.251   4.268   7.021 -0.1561  0.0096  0.2899
   86MOL    C3542705   4.390   4.295   6.999  0.2550  0.1821 -0.0244
   86MOL    C3642706   4.423   4.362   6.883 -0.6343 -1.1768 -0.6874
   86MOL    C3742707   4.327   4.390   6.786  0.0419  0.0470 -0.0633
   86MOL    C3842708   4.191   4.358   6.804 -0.1709  0.5823  0.4090
   86MOL    C3942709   4.156   4.302   6.924 -0.1136  0.2007  0.1396
   86MOL    H4042710   4.143   4.539   7.417  0.9516 -2.8669  0.5764
   86MOL    H4142711   4.007   4.617   7.464 -0.0104 -0.4203  0.6458
   86MOL    H4242712   3.791   4.601   7.357  0.4978  1.2472 -1.3962
   86MOL    H4342713   3.772   4.418   7.353 -0.9157 -0.1028  0.3932
   86MOL    H4442714   3.756   4.512   7.215  0.0184  0.2580 -0.0020
   86MOL    H4542715   4.296   4.188   7.218 -1.0794  0.7483  2.2767
   86MOL    H4642716   4.133   4.154   7.170 -1.3398  1.2184 -1.3343
   86MOL    H4742717   4.472   4.269   7.063 -0.2490 -0.1486  0.4905
   86MOL    H4842718   4.522   4.400   6.863 -0.3489 -0.2629  2.2189
   86MOL    H4942719   4.363   4.438   6.696  0.4675 -0.9058 -0.4041
   86MOL    H5042720   4.109   4.389   6.741 -0.7614 -0.5441  0.6175
   86MOL    H5142721   4.050   4.290   6.937 -0.0854  1.1030  1.2551
   86MOL    C5242722   3.998   4.613   7.178 -0.2508 -0.4034  0.6896
   86MOL    C5342723   4.127   4.696   7.160  0.6261  0.3859  0.1489
   86MOL    C5442724   4.241   4.601   7.121  0.3919 -0.1737  0.4578
   86MOL    C5542725   4.170   4.781   7.288  0.3007 -0.0346 -1.2781
   86MOL    O5642726   4.285   4.801   7.330  0.1592  0.0846  0.3777
   86MOL    O5742727   4.071   4.837   7.351  0.0678 -0.4472  0.0395
   86MOL    C5842728   4.094   4.909   7.467 -0.1136  0.0492  0.1960
   86MOL    C5942729   3.965   4.940   7.539 -0.7479 -0.0673 -0.6466
   86MOL    C6042730   3.935   4.865   7.652 -0.3374 -0.3741 -0.8413
   86MOL    C6142731   3.821   4.906   7.728  0.4009  0.1657 -0.4596
   86MOL    C6242732   3.735   5.008   7.680 -0.3247 -0.1671 -0.4082
   86MOL    C6342733   3.767   5.076   7.563  0.9180 -0.1801 -0.2942
   86MOL    C6442734   3.886   5.042   7.492  0.0806  0.6797 -0.1076
   86MOL    H6542735   3.921   4.689   7.189  0.7955  0.6918  0.6121
   86MOL    H6642736   3.968   4.564   7.086 -1.0927  1.3357  0.0076
   86MOL    H6742737   4.300   4.558   7.203  1.1461 -2.0538 -1.0236
   86MOL    H6842738   4.325   4.655   7.077  0.7368 -1.7364 -0.8902
   86MOL    H6942739   4.207   4.533   7.043  0.4921  0.3311 -0.0286
   86MOL    H7042740   4.157   4.840   7.524 -0.6630 -0.8128 -0.2257
   86MOL    H7142741   4.153   4.996   7.439 -0.7274  1.4809  3.1257
   86MOL    H7242742   3.999   4.788   7.692  0.2989  1.8559  2.7012
   86MOL    H7342743   3.796   4.858   7.822 -1.4246 -0.8410 -1.4501
   86MOL    H7442744   3.646   5.029   7.737 -0.1548  2.7115 -1.0991
   86MOL    H7542745   3.699   5.147   7.518  1.9277 -0.3984 -2.2414
   86MOL    H7642746   3.906   5.097   7.401  0.5251  1.0493  0.2113
   86MOL    C7742747   4.082   4.811   7.058  0.3552 -0.8132 -0.1535
   86MOL    C7842748   4.169   4.882   6.951 -0.5840 -0.1838 -0.0441
   86MOL    C7942749   4.197   4.780   6.832 -0.4210 -0.1927  0.4634
   86MOL    C8042750   4.299   4.931   7.013 -0.7815  0.0253  0.5530
   86MOL    O8142751   4.410   4.898   6.979 -0.2609  0.0157 -0.0404
   86MOL    O8242752   4.274   5.021   7.114  0.3062 -0.1603  0.0766
   86MOL    C8342753   4.376   5.104   7.172 -0.3595 -0.0581  0.5819
   86MOL    C8442754   4.334   5.208   7.278  0.0682  0.3458 -0.4734
   86MOL    C8542755   4.438   5.287   7.332  0.4434 -0.7630 -0.4336
   86MOL    C8642756   4.408   5.380   7.438 -0.2017 -0.2832 -0.1362
   86MOL    C8742757   4.279   5.383   7.494  0.2626  0.0272 -0.6676
   86MOL    C8842758   4.172   5.308   7.439 -0.0554 -0.0433  0.7160
   86MOL    C8942759   4.199   5.220   7.330 -0.0566  0.4511  0.3227
   86MOL    H9042760   4.033   4.891   7.113 -0.4792 -1.9166  0.7500
   86MOL    H9142761   4.003   4.767   6.998 -0.2030 -1.3674  0.9779
   86MOL    H9242762   4.135   4.800   6.745 -2.8862 -1.1667  1.9357
   86MOL    H9342763   4.191   4.675   6.861  3.2217 -0.6205 -0.0542
   86MOL    H9442764   4.300   4.792   6.797 -1.0192  0.8198 -0.9815
   86MOL    H9542765   4.450   5.050   7.231  0.8498  1.0260  0.0816
   86MOL    H9642766   4.438   5.152   7.096  0.0682 -2.3730 -0.5800
   86MOL    H9742767   4.537   5.275   7.289  0.0901  0.9965 -1.7414
   86MOL    H9842768   4.488   5.437   7.484  0.6762 -1.4938 -0.1542
   86MOL    H9942769   4.257   5.450   7.575  1.7174 -1.4778  1.0363
   86MOL   H10042770   4.077   5.320   7.489 -0.8870 -1.0863 -0.6076
   86MOL   H10142771   4.126   5.156   7.284 -1.0367  0.8651  1.2935
   86MOL   C10242772   4.073   4.999   6.894  0.1000 -0.0617 -0.2208
   86MOL   C10342773   4.111   5.116   6.798 -0.1939 -0.1011  0.7861
   86MOL   C10442774   3.975   5.187   6.780  0.2136 -0.9836 -0.2626
   86MOL   C10542775   4.163   5.065   6.663 -0.1369 -0.5694  0.7684
   86MOL   O10642776   4.091   5.067   6.563 -0.0150  0.6570  0.8707
   86MOL   O10742777   4.283   5.010   6.669 -0.6162  0.1602  0.1663
   86MOL   C10842778   4.358   4.968   6.551  0.1079  0.2127 -0.3168
   86MOL   C10942779   4.476   4.881   6.576  0.1055 -0.4887 -0.6350
   86MOL   C11042780   4.487   4.759   6.515  0.1155 -0.0755 -0.6317
   86MOL   C11142781   4.596   4.677   6.547 -0.9622  0.8003 -0.1130
   86MOL   C11242782   4.696   4.715   6.637 -0.5656 -0.6786  0.0669
   86MOL   C11342783   4.688   4.842   6.697  0.1701  0.0815 -0.1178
   86MOL   C11442784   4.577   4.925   6.665  0.2454  0.0325  0.1489
   86MOL   H11542785   4.041   5.057   6.981 -0.5059  0.6391 -0.9076
   86MOL   H11642786   3.977   4.953   6.873  0.5771 -1.6003  0.9135
   86MOL   H11742787   3.933   5.222   6.874  0.7601 -1.3966  0.1342
   86MOL   H11842788   3.901   5.126   6.728  1.0827 -0.5355 -2.0757
   86MOL   H11942789   3.986   5.272   6.713 -1.0796  0.0967  0.8862
   86MOL   H12042790   4.279   4.932   6.485 -0.0832  0.0801 -0.0180
   86MOL   H12142791   4.412   5.052   6.508  0.1757  1.4589  2.1050
   86MOL   H12242792   4.418   4.731   6.437  0.0965 -0.0081 -0.6384
   86MOL   H12342793   4.588   4.586   6.490 -1.0893  1.3270 -0.9470
   86MOL   H12442794   4.780   4.648   6.653 -0.8889 -1.3894 -1.1643
   86MOL   H12542795   4.775   4.877   6.751 -1.1997  3.0188  0.2688
   86MOL   H12642796   4.579   5.018   6.721  0.3462  0.1776 -0.0942
   86MOL   C12742797   4.217   5.211   6.880 -0.2068 -0.3746  0.1331
   86MOL   C12842798   4.261   5.353   6.831 -0.3712  0.0202  0.8882
   86MOL   C12942799   4.369   5.396   6.932  0.3900  0.4578  0.6355
   86MOL   C13042800   4.139   5.450   6.831  0.5984 -0.1387 -0.2854
   86MOL   O13142801   4.119   5.539   6.741  0.0968 -0.1294  0.3991
   86MOL   O13242802   4.061   5.443   6.945 -0.2879 -0.5016  0.9743
   86MOL   C13342803   3.937   5.515   6.957  0.6314  0.4005 -0.3051
   86MOL   C13442804   3.855   5.446   7.064 -0.3010  0.1407 -0.1418
   86MOL   C13542805   3.723   5.404   7.041  0.0913 -0.2057 -0.0193
   86MOL   C13642806   3.656   5.349   7.154 -0.1466  0.2554  0.3015
   86MOL   C13742807   3.717   5.341   7.280 -0.3250 -0.0203 -0.9102
   86MOL   C13842808   3.850   5.388   7.299 -0.4228  0.3004  0.7055
   86MOL   C13942809   3.923   5.432   7.190 -0.0206  0.8333  0.1650
   86MOL   H14042810   4.311   5.157   6.882 -0.4790 -1.0311 -2.7071
   86MOL   H14142811   4.175   5.215   6.981 -0.8522 -0.7682 -0.1182
   86MOL   H14242812   4.466   5.352   6.908 -0.6893 -1.2829 -0.7200
   86MOL   H14342813   4.348   5.366   7.035  0.8944  0.7597  0.8258
   86MOL   H14442814   4.394   5.501   6.929 -0.5705  0.6874  0.4594
   86MOL   H14542815   3.963   5.618   6.980 -1.0426  1.1934 -1.8611
   86MOL   H14642816   3.884   5.517   6.862  0.6271  0.6983 -0.2967
   86MOL   H14742817   3.674   5.420   6.947 -0.2045  0.5144  0.2561
   86MOL   H14842818   3.562   5.303   7.125  0.0087 -0.4551  0.9118
   86MOL   H14942819   3.665   5.290   7.360  0.1550 -0.6142 -0.9762
   86MOL   H15042820   3.898   5.385   7.396 -0.3081  0.8955  0.6691
   86MOL   H15142821   4.018   5.483   7.195  0.5887 -0.1413 -1.4774
   86MOL   C15242822   4.327   5.346   6.680  0.5801 -0.0925 -0.2826
   86MOL   C15342823   4.421   5.450   6.615 -0.2358  0.8163 -0.6666
   86MOL   C15442824   4.379   5.597   6.647  0.4381 -0.2859  0.1202
   86MOL   C15542825   4.408   5.433   6.459 -0.1473 -0.2036  0.1563
   86MOL   O15642826   4.374   5.327   6.403 -0.0655 -0.2090  0.0919
   86MOL   O15742827   4.439   5.548   6.393  0.3105  0.3792  0.3118
   86MOL   C15842828   4.439   5.551   6.258  0.0746  0.0855 -0.0442
   86MOL   C15942829   4.316   5.603   6.194 -0.1962 -0.1771 -0.5169
   86MOL   C16042830   4.229   5.508   6.144  0.1098 -0.1142 -0.1859
   86MOL   C16142831   4.107   5.546   6.077 -0.2173  0.3210 -0.3320
   86MOL   C16242832   4.080   5.680   6.075 -0.0953 -0.4102 -0.1546
   86MOL   C16342833   4.166   5.775   6.129  0.3625  0.2251 -0.5162
   86MOL   C16442834   4.290   5.737   6.188  0.5841  0.2458 -0.4328
   86MOL   H16542835   4.236   5.328   6.622  0.4805 -0.0139 -0.1534
   86MOL   H16642836   4.376   5.249   6.687  4.1716  1.6298 -0.6196
   86MOL   H16742837   4.286   5.640   6.609 -0.1744  0.0520  1.9916
   86MOL   H16842838   4.458   5.666   6.618  0.7582 -1.1076 -1.0187
   86MOL   H16942839   4.368   5.617   6.753 -1.0615 -1.7774  0.2795
   86MOL   H17042840   4.519   5.621   6.233 -0.4174  0.7311  0.1590
   86MOL   H17142841   4.465   5.454   6.217 -2.8470 -0.6855 -0.1563
   86MOL   H17242842   4.258   5.404   6.149 -0.8396 -0.3277  1.0360
   86MOL   H17342843   4.042   5.471   6.034  0.6402 -1.3542  1.2501
   86MOL   H17442844   3.992   5.721   6.028  0.0867  0.6705  0.4325
   86MOL   H17542845   4.141   5.878   6.112 -0.3777 -0.3276 -2.9165
   86MOL   H17642846   4.362   5.806   6.228  0.6375 -0.5663  0.9129
   86MOL   C17742847   4.580   5.433   6.662 -0.1223 -0.8648  0.6136
   86MOL   C17842848   4.707   5.447   6.570  0.1573 -0.1087 -0.1342
   86MOL   C17942849   4.703   5.584   6.494 -0.3550  0.6299 -0.2022
   86MOL   C18042850   4.712   5.329   6.472 -0.0149 -0.3198  0.1291
   86MOL   O18142851   4.657   5.219   6.494  0.2404 -0.1988  0.5106
   86MOL   O18242852   4.773   5.356   6.360  0.2579  0.0821 -0.1481
   86MOL   C18342853   4.827   5.261   6.270 -0.6323  0.5341  0.2347
   86MOL   C18442854   4.748   5.233   6.136 -0.4445  0.0312  0.6542
   86MOL   C18542855   4.673   5.333   6.072  0.8001 -0.4078 -0.4427
   86MOL   C18642856   4.621   5.314   5.938  0.5865 -0.1559 -0.4336
   86MOL   C18742857   4.633   5.183   5.880 -0.3046  0.0790  0.4710
   86MOL   C18842858   4.693   5.075   5.950  0.1835 -0.1062 -0.0248
   86MOL   C18942859   4.755   5.103   6.078  0.7917 -1.0481 -0.1398
   86MOL   H19042860   4.577   5.329   6.695 -0.1830 -1.4002 -1.0566
   86MOL   H19142861   4.585   5.493   6.754  0.4286 -1.6077  1.0732
   86MOL   H19242862   4.671   5.585   6.390 -2.0313 -1.2714  0.2726
   86MOL   H19342863   4.808   5.613   6.482 -0.5969  0.9629 -1.6261
   86MOL   H19442864   4.666   5.666   6.556 -3.5386 -2.1578  1.7763
   86MOL   H19542865   4.928   5.294   6.248 -0.5032  0.6809  1.0656
   86MOL   H19642866   4.838   5.169   6.327 -1.3760  0.0740 -0.3596
   86MOL   H19742867   4.666   5.436   6.101 -1.9590 -0.2685 -1.3905
   86MOL   H19842868   4.569   5.393   5.886 -0.0906  0.0855  0.5753
   86MOL   H19942869   4.594   5.151   5.784 -2.2256 -0.8830  1.5357
   86MOL   H20042870   4.689   4.975   5.911 -0.4470  0.2902 -0.9916
   86MOL   H20142871   4.818   5.029   6.125  1.0279 -0.9343 -0.2721
   86MOL   C20242872   4.839   5.447   6.652  0.0590 -0.0729 -0.1099
   86MOL   C20342873   4.878   5.342   6.769 -0.2994 -0.4528 -0.3412
   86MOL   C20442874   4.841   5.193   6.743  0.3591  0.4281  0.3350
   86MOL   C20542875   4.797   5.385   6.887 -0.4424  0.3118  0.0638
   86MOL   O20642876   4.715   5.312   6.942 -0.1812 -0.9563 -0.2916
   86MOL   O20742877   4.845   5.494   6.942  0.0435 -0.5211  0.1235
   86MOL   C20842878   4.812   5.534   7.073 -0.0994  0.2164  0.2892
   86MOL   C20942879   4.682   5.613   7.081 -0.5893  0.3855  0.1171
   86MOL   C21042880   4.603   5.590   7.198 -0.0173  0.2677  0.0823
   86MOL   C21142881   4.477   5.647   7.198  0.3008 -0.0751 -0.5198
   86MOL   C21242882   4.437   5.747   7.107  0.8670 -0.0867  0.0672
   86MOL   C21342883   4.515   5.768   6.991 -0.7979 -0.4802  0.2683
   86MOL   C21442884   4.644   5.705   6.980 -0.1783  0.3469 -0.3075
   86MOL   H21542885   4.859   5.546   6.693  1.4346 -0.4612  0.1854
   86MOL   H21642886   4.909   5.434   6.569  0.5709 -1.5299  0.5499
   86MOL   H21742887   4.735   5.171   6.750  0.1631  1.3789  0.4980
   86MOL   H21842888   4.884   5.119   6.810  0.8067 -1.0687 -1.5568
   86MOL   H21942889   4.864   5.168   6.639 -1.5799 -1.9548  0.4440
   86MOL   H22042890   4.805   5.450   7.141  0.4554  0.9144  1.2225
   86MOL   H22142891   4.888   5.603   7.109 -1.2665  1.4669  0.3992
   86MOL   H22242892   4.630   5.512   7.267  0.5444  2.2139  2.0840
   86MOL   H22342893   4.430   5.644   7.296 -0.1212 -1.4807 -0.7503
   86MOL   H22442894   4.351   5.812   7.116  2.2211  1.7019  0.3125
   86MOL   H22542895   4.476   5.840   6.921 -0.1868 -0.6584 -0.2529
   86MOL   H22642896   4.711   5.729   6.899 -1.5454  1.1141 -1.2377
   86MOL   C22742897   5.031   5.351   6.803  0.8542 -0.2076  0.1827
   86MOL   C22842898   5.147   5.289   6.717 -0.5306  0.1554  0.2956
   86MOL   C22942899   5.130   5.325   6.566  0.6627 -0.6110 -0.0116
   86MOL   C23042900   5.153   5.142   6.750  0.1335 -0.7647 -0.6349
   86MOL   O23142901   5.160   5.058   6.666 -0.1307  0.3146 -0.1470
   86MOL   O23242902   5.165   5.118   6.880 -0.5097 -0.2388 -0.3616
   86MOL   C23342903   5.150   4.987   6.930  0.7280  0.1213 -0.6801
   86MOL   C23442904   5.278   4.924   6.980  0.0574 -0.1215  0.4687
   86MOL   C23542905   5.390   5.004   7.009 -0.2911  0.4356  0.1470
   86MOL   C23642906   5.500   4.946   7.067 -0.2281 -0.1464 -0.6944
   86MOL   C23742907   5.499   4.805   7.094 -0.5069 -0.8378  0.1517
   86MOL   C23842908   5.380   4.731   7.086 -0.2466  0.2983  0.5764
   86MOL   C23942909   5.269   4.792   7.029 -0.4431 -0.2843  0.0698
   86MOL   H24042910   5.041   5.307   6.903  0.1369  0.2216  0.4511
   86MOL   H24142911   5.049   5.455   6.831 -1.9120  0.0869  1.0168
   86MOL   H24242912   5.208   5.267   6.518  1.9304  2.1353 -1.3853
   86MOL   H24342913   5.152   5.430   6.549 -0.5729 -0.4147 -0.4978
   86MOL   H24442914   5.040   5.291   6.515 -0.3382 -1.3181  2.1650
   86MOL   H24542915   5.098   5.005   7.024  0.5787  2.1982 -1.1338
   86MOL   H24642916   5.098   4.922   6.859 -1.2280 -0.6195  1.3514
   86MOL   H24742917   5.395   5.109   6.983  3.2143 -0.2201 -2.1188
   86MOL   H24842918   5.588   5.003   7.091 -0.4569  0.8592 -2.2023
   86MOL   H24942919   5.591   4.759   7.127  0.0344  0.8200  1.0126
   86MOL   H25042920   5.385   4.628   7.115  2.1413  1.0208  2.9933
   86MOL   H25142921   5.183   4.731   7.004 -1.7115  1.3530  0.3376
   86MOL   C25242922   5.288   5.354   6.763  0.7751  0.7724 -0.8786
   86MOL   C25342923   5.431   5.346   6.697  0.7477 -0.1592  0.1203
   86MOL   C25442924   5.432   5.452   6.583 -0.6427  0.4257 -0.1402
   86MOL   C25542925   5.455   5.206   6.632  0.0944  0.3125  0.1266
   86MOL   O25642926   5.462   5.194   6.509 -0.2035  1.0684  0.8547
   86MOL   O25742927   5.460   5.100   6.720 -0.2919  0.5412 -0.0220
   86MOL   C25842928   5.492   4.969   6.664 -0.3118  0.5930 -0.2820
   86MOL   C25942929   5.629   4.919   6.693 -0.2682  0.9463 -0.1802
   86MOL   C26042930   5.654   4.789   6.747 -0.2865  0.1649 -0.3341
   86MOL   C26142931   5.789   4.748   6.778  0.2059  0.3034 -0.3647
   86MOL   C26242932   5.890   4.846   6.763  0.4638 -0.2762 -0.3664
   86MOL   C26342933   5.858   4.968   6.709 -0.0584 -0.0608 -0.4256
   86MOL   C26442934   5.736   5.002   6.659 -0.3546 -0.6582  0.1074
   86MOL   H26542935   5.304   5.312   6.862 -0.2638  1.4539 -0.4119
   86MOL   H26642936   5.269   5.461   6.773 -2.2931  0.1660  0.3534
   86MOL   H26742937   5.392   5.544   6.624 -1.4283 -0.3022  0.7297
   86MOL   H26842938   5.372   5.421   6.497 -0.0742 -0.5365 -0.1987
   86MOL   H26942939   5.530   5.485   6.547  0.7931 -1.9338  1.4426
   86MOL   H27042940   5.425   4.903   6.720  0.0476  0.5373  0.0864
   86MOL   H27142941   5.463   4.955   6.560 -0.1276 -3.0083  0.0829
   86MOL   H27242942   5.572   4.720   6.757 -0.1846  0.0961  0.0757
   86MOL   H27342943   5.809   4.655   6.830 -0.6841  0.5126  0.3546
   86MOL   H27442944   5.989   4.821   6.799  0.5456 -0.4713 -0.7339
   86MOL   H27542945   5.944   5.033   6.712 -0.2241  0.1333  0.3230
   86MOL   H27642946   5.725   5.095   6.606  1.1565 -0.5315 -0.0317
   86MOL   C27742947   5.552   5.370   6.798  0.2357  0.3675 -0.3659
   86MOL   C27842948   5.563   5.494   6.909  0.3843 -0.0330  0.2054
   86MOL   C27942949   5.452   5.473   7.015 -0.2980 -0.3906  0.4088
   86MOL   C28042950   5.559   5.636   6.852  0.0789  0.2197 -0.0438
   86MOL   O28142951   5.577   5.655   6.730 -0.1214  0.6731  0.3386
   86MOL   O28242952   5.544   5.732   6.950 -0.2371 -0.1890  0.0566
   86MOL   C28342953   5.552   5.868   6.924 -0.2233 -0.0416 -0.5713
   86MOL   C28442954   5.537   5.955   7.051  0.2546  0.0679  0.2969
   86MOL   C28542955   5.555   5.892   7.173 -0.3110  0.1613 -0.6748
   86MOL   C28642956   5.540   5.958   7.298  0.4856 -0.4077 -0.0279
   86MOL   C28742957   5.505   6.094   7.290  0.5260 -0.0062  0.3101
   86MOL   C28842958   5.485   6.156   7.169  0.1805 -0.4530 -0.3076
   86MOL   C28942959   5.504   6.090   7.043  0.1469 -0.1459  0.5604
   86MOL   H29042960   5.644   5.370   6.740  0.6849  3.4772  0.2790
   86MOL   H29142961   5.558   5.291   6.874 -0.2791 -0.5902 -1.3103
   86MOL   H29242962   5.439   5.368   7.038  1.6100 -1.1392 -1.7819
   86MOL   H29342963   5.353   5.515   6.992 -0.9063 -1.0485  1.7530
   86MOL   H29442964   5.476   5.524   7.108 -2.4890  1.9774 -0.2352
   86MOL   H29542965   5.655   5.888   6.891 -0.9993  1.5959 -2.0767
   86MOL   H29642966   5.474   5.895   6.854 -0.3745  1.4519  0.1528
   86MOL   H29742967   5.599   5.794   7.188 -0.1941  0.3410  0.2339
   86MOL   H29842968   5.559   5.907   7.392 -0.2046 -2.9550 -1.2173
   86MOL   H29942969   5.494   6.138   7.388  0.1863  0.9166 -0.1418
   86MOL   H30042970   5.447   6.256   7.179  0.6730 -0.2125 -0.8233
   86MOL   H30142971   5.506   6.146   6.951  0.3733  1.2567  1.3915
   86MOL   C30242972   5.697   5.475   6.987  0.6633  0.3809  0.3620
   86MOL   C30342973   5.839   5.461   6.914 -0.4854  0.0526  0.4095
   86MOL   C30442974   5.871   5.307   6.901  0.2440 -0.7376  0.1376
   86MOL   C30542975   5.948   5.514   7.017 -0.1402 -0.5434  0.0732
   86MOL   O30642976   6.044   5.448   7.058  0.2015  0.5700  0.2872
   86MOL   O30742977   5.922   5.641   7.050 -0.1659 -0.6113 -0.5305
   86MOL   C30842978   6.018   5.720   7.126 -0.2502 -0.3928  0.7326
   86MOL   C30942979   6.106   5.815   7.049 -0.1074  0.2340 -0.3584
   86MOL   C31042980   6.105   5.820   6.905  0.3375  0.3461  0.1039
   86MOL   C31142981   6.191   5.910   6.835 -0.6977  0.1207  0.1551
   86MOL   C31242982   6.276   5.990   6.904 -0.4695 -0.5048  0.5241
   86MOL   C31342983   6.285   5.986   7.043  0.2198  0.6900  0.2852
   86MOL   C31442984   6.200   5.898   7.115  0.1835 -0.1417 -0.2833
   86MOL   H31542985   5.681   5.378   7.036 -0.0610  0.1041 -0.4241
   86MOL   H31642986   5.697   5.545   7.071  0.5758  0.0180  0.6677
   86MOL   H31742987   5.796   5.252   6.845  0.2955  0.0299 -0.6960
   86MOL   H31842988   5.873   5.265   7.001 -2.7212 -0.7361  0.2521
   86MOL   H31942989   5.972   5.291   6.862  0.4552 -1.1195  0.8448
   86MOL   H32042990   5.957   5.765   7.205  0.1931 -0.0531  0.8889
   86MOL   H32142991   6.087   5.652   7.175 -1.1450 -1.8389  0.0143
   86MOL   H32242992   6.028   5.767   6.851  2.2560 -5.4114  2.6563
   86MOL   H32342993   6.194   5.914   6.727  3.6274 -2.7646  0.0279
   86MOL   H32442994   6.348   6.044   6.845  1.5562 -2.1754  1.3777
   86MOL   H32542995   6.366   6.036   7.094 -0.6866  0.0734  2.3758
   86MOL   H32642996   6.203   5.902   7.223 -1.7148 -1.6898 -0.1410
   86MOL   C32742997   5.852   5.549   6.780 -0.3670  0.5256  0.4594
   86MOL   C32842998   5.956   5.530   6.657  0.1749  0.3016 -0.0132
   86MOL   C32942999   6.100   5.509   6.713  0.4469 -0.8517 -0.0287
   86MOL   C33043000   5.944   5.666   6.580 -0.4422 -0.8290 -0.4541
   86MOL   O33143001   6.043   5.735   6.565  0.3227 -0.0688 -0.4697
   86MOL   O33243002   5.820   5.699   6.548 -0.3008 -0.7191 -0.7366
   86MOL   C33343003   5.798   5.818   6.475  0.5048 -0.4625  0.2271
   86MOL   C33443004   5.756   5.933   6.562  0.1192 -0.4269  0.5582
   86MOL   C33543005   5.854   6.004   6.633 -0.3236 -0.1564 -0.2783
   86MOL   C33643006   5.813   6.115   6.710  0.5680  0.3595 -0.1452
   86MOL   C33743007   5.678   6.158   6.708 -0.7814 -0.0408 -0.2761
   86MOL   C33843008   5.579   6.088   6.641  0.0696 -0.0016  0.2211
   86MOL   C33943009   5.621   5.973   6.570 -0.6911 -0.2829 -0.1721
   86MOL   H34043010   5.841   5.653   6.809  1.3569  0.1705  2.5128
   86MOL   H34143011   5.765   5.517   6.723 -0.0936 -1.1131  0.9369
   86MOL   H34243012   6.138   5.580   6.786 -1.1028 -0.6407  0.5856
   86MOL   H34343013   6.169   5.521   6.629  2.0920  2.5497  1.7185
   86MOL   H34443014   6.114   5.408   6.753  0.0158 -0.8494  0.1255
   86MOL   H34543015   5.883   5.844   6.412 -0.7383  1.3315 -0.7235
   86MOL   H34643016   5.709   5.811   6.412 -1.3389  0.5573  2.6285
   86MOL   H34743017   5.956   5.970   6.619  0.3457  1.3433  0.7983
   86MOL   H34843018   5.872   6.169   6.782  0.8226  0.2357 -0.2601
   86MOL   H34943019   5.661   6.242   6.773 -1.1994  0.5363 -1.1213
   86MOL   H35043020   5.476   6.117   6.626  0.3145  0.4661 -0.5708
   86MOL   H35143021   5.548   5.908   6.523  0.2060 -1.3797 -0.0428
   86MOL   C35243022   5.917   5.408   6.570 -0.4067  0.2699  0.2101
   86MOL   C35343023   5.965   5.372   6.426 -0.0402  0.4244  0.1939
   86MOL   C35443024   5.904   5.230   6.389 -0.3576 -0.0028 -0.1615
   86MOL   C35543025   6.120   5.366   6.412 -0.3303  0.5843  0.0537
   86MOL   O35643026   6.184   5.270   6.444  0.3083 -0.4611 -0.7276
   86MOL   O35743027   6.183   5.484   6.388  0.8382  0.2877 -0.3884
   86MOL   C35843028   6.317   5.489   6.343  0.4845 -1.2183  0.3153
   86MOL   C35943029   6.373   5.621   6.367 -0.5209 -1.1303 -0.4419
   86MOL   C36043030   6.441   5.684   6.257  0.3019  0.7007 -0.1678
   86MOL   C36143031   6.514   5.806   6.281 -0.1467  0.8323 -0.3401
   86MOL   C36243032   6.508   5.867   6.411  0.0888 -0.1422  0.9593
   86MOL   C36343033   6.427   5.811   6.509 -0.2021  0.1177 -0.1571
   86MOL   C36443034   6.356   5.688   6.487 -0.0955 -0.4561  0.0638
   86MOL   H36543035   5.809   5.404   6.554 -0.2667  1.4271 -1.1101
   86MOL   H36643036   5.927   5.327   6.642  0.4120  0.7007  0.5825
   86MOL   H36743037   5.796   5.218   6.393 -0.2600 -1.1168 -0.7409
   86MOL   H36843038   5.949   5.169   6.468  1.6213  0.3153 -1.0274
   86MOL   H36943039   5.956   5.182   6.306 -0.0210 -2.0870  1.2080
   86MOL   H37043040   6.373   5.426   6.412 -0.1316  0.9873  2.9125
   86MOL   H37143041   6.332   5.462   6.238 -0.8477  0.7448 -0.4106
   86MOL   H37243042   6.439   5.635   6.161 -1.6303  0.3455  0.0323
   86MOL   H37343043   6.563   5.855   6.199  0.6173  0.6445  0.0015
   86MOL   H37443044   6.569   5.953   6.433  0.4102 -0.1921  0.2746
   86MOL   H37543045   6.413   5.850   6.609 -3.2162  0.7656 -0.7619
   86MOL   H37643046   6.309   5.654   6.578 -1.4431  1.1581 -0.0204
   86MOL   C37743047   5.908   5.484   6.333 -0.2353  0.2997 -0.0970
   86MOL   C37843048   5.900   5.477   6.176  0.0627 -0.1437 -0.4401
   86MOL   C37943049   6.025   5.409   6.113  0.1663 -0.6048 -0.2033
   86MOL   C38043050   5.895   5.625   6.129 -0.5690 -0.2927 -0.8201
   86MOL   O38143051   5.975   5.675   6.050  0.0473  0.0159  0.7784
   86MOL   O38243052   5.786   5.696   6.184 -0.0946  0.5999  0.2195
   86MOL   C38343053   5.739   5.826   6.133 -0.3607  0.2291 -0.4010
   86MOL   C38443054   5.592   5.841   6.134  0.1584 -0.7181 -0.5521
   86MOL   C38543055   5.539   5.936   6.224 -0.6516  0.1033  0.3102
   86MOL   C38643056   5.399   5.947   6.238 -0.1956  0.2463  0.3810
   86MOL   C38743057   5.316   5.866   6.161  0.5239  0.5945 -0.0682
   86MOL   C38843058   5.370   5.768   6.073 -1.2053  0.4632 -0.4640
   86MOL   C38943059   5.507   5.747   6.064 -0.7218 -0.3664  0.1831
   86MOL   H39043060   5.967   5.574   6.351 -0.4516  0.4387 -0.0779
   86MOL   H39143061   5.808   5.510   6.367  0.0575  1.0695  0.1699
   86MOL   H39243062   6.031   5.389   6.006  0.8540  2.5122 -0.7868
   86MOL   H39343063   6.052   5.316   6.164  0.2761 -1.0774 -1.1180
   86MOL   H39443064   6.105   5.479   6.137  0.4391 -1.5479  1.7309
   86MOL   H39543065   5.801   5.903   6.178 -0.7993 -0.7765  2.0426
   86MOL   H39643066   5.773   5.830   6.030  1.8515 -0.0776  0.3066
   86MOL   H39743067   5.587   6.014   6.281  0.3977  0.1298 -0.5996
   86MOL   H39843068   5.355   6.024   6.299  1.7202  1.1335  0.6874
   86MOL   H39943069   5.216   5.907   6.157  1.0622  1.8703 -0.8501
   86MOL   H40043070   5.307   5.697   6.021 -1.4825  0.1637  0.2715
   86MOL   H40143071   5.546   5.670   5.999  0.7764  1.1274 -0.7204
   86MOL   C40243072   5.763   5.408   6.137 -0.3744  0.2401  0.1246
   86MOL   C40343073   5.728   5.344   5.998 -0.3836  0.5547 -0.1826
   86MOL   C40443074   5.790   5.209   5.991 -0.4653 -0.4639  0.7650
   86MOL   C40543075   5.794   5.434   5.886 -0.1725 -0.4812  0.7469
   86MOL   O40643076   5.872   5.386   5.803 -0.0258  0.3199 -0.0207
   86MOL   O40743077   5.741   5.562   5.878  0.5694 -0.1537 -0.2772
   86MOL   C40843078   5.782   5.648   5.769  0.5223  0.1820 -0.3646
   86MOL   C40943079   5.673   5.681   5.672 -0.0536 -0.2414  0.1978
   86MOL   C41043080   5.601   5.798   5.676  0.1696 -0.2673 -0.3452
   86MOL   C41143081   5.507   5.830   5.580  0.3835  0.9116 -0.4453
   86MOL   C41243082   5.477   5.744   5.479  0.8086 -0.3630  0.0601
   86MOL   C41343083   5.538   5.618   5.479 -0.3707 -0.0901 -0.0873
   86MOL   C41443084   5.641   5.587   5.572  0.4784 -0.7701  0.4325
   86MOL   H41543085   5.687   5.485   6.150 -1.6231 -1.2719  2.1663
   86MOL   H41643086   5.741   5.333   6.213  2.3731  1.2007  1.9603
   86MOL   H41743087   5.755   5.137   6.064  0.9895 -2.1114 -0.1169
   86MOL   H41843088   5.897   5.219   6.010 -0.0873  0.0914 -1.4465
   86MOL   H41943089   5.776   5.159   5.895 -3.3363 -0.2033  1.0247
   86MOL   H42043090   5.835   5.736   5.806 -0.0491  0.0965  0.6639
   86MOL   H42143091   5.863   5.596   5.717 -0.0844  0.5746 -1.7441
   86MOL   H42243092   5.609   5.870   5.757 -0.5817  0.1098 -0.5971
   86MOL   H42343093   5.456   5.925   5.581 -0.3032  0.5555 -0.6622
   86MOL   H42443094   5.405   5.764   5.401 -0.8971 -3.3545  0.7843
   86MOL   H42543095   5.510   5.543   5.406 -2.0895  1.3427 -0.9488
   86MOL   H42643096   5.699   5.496   5.576  1.7899  0.0214 -0.3073
   86MOL   C42743097   5.571   5.346   5.973 -0.1115  0.4587  0.5530
   86MOL   C42843098   5.454   5.263   6.038  0.4896 -0.3160  0.2734
   86MOL   C42943099   5.456   5.283   6.187  0.1478 -0.5421 -0.1967
   86MOL   C43043100   5.474   5.114   5.999 -0.7491 -0.5171 -0.1075
   86MOL   O43143101   5.506   5.096   5.885 -0.7351  0.1798  0.2291
   86MOL   O43243102   5.450   5.016   6.092 -0.9388 -0.4256  0.6210
   86MOL   C43343103   5.488   4.883   6.050 -0.5513  0.4572 -0.2028
   86MOL   C43443104   5.502   4.782   6.165 -0.0776  0.1386  0.7631
   86MOL   C43543105   5.453   4.803   6.293 -0.1865  0.3471 -0.7170
   86MOL   C43643106   5.470   4.704   6.392  0.1991  0.2823  0.8339
   86MOL   C43743107   5.538   4.589   6.358 -0.1443 -0.0334  0.1867
   86MOL   C43843108   5.602   4.561   6.236  0.1118  0.1320 -0.0142
   86MOL   C43943109   5.583   4.661   6.143  0.4783  0.2981  0.6625
   86MOL   H44043110   5.553   5.348   5.865 -2.7469  0.5775  0.9715
   86MOL   H44143111   5.544   5.450   5.989 -2.0692  0.2455 -1.1287
   86MOL   H44243112   5.548   5.264   6.243  1.1442  1.0555 -1.2530
   86MOL   H44343113   5.382   5.239   6.253 -2.3707 -2.4278 -4.1440
   86MOL   H44443114   5.445   5.391   6.201  0.3658 -0.1015 -3.2093
   86MOL   H44543115   5.443   4.834   5.964  0.1063 -0.0236 -0.2751
   86MOL   H44643116   5.586   4.885   6.002 -0.2967 -0.6092  0.2534
   86MOL   H44743117   5.398   4.894   6.314 -0.8657 -0.1121 -0.4868
   86MOL   H44843118   5.416   4.717   6.485 -2.8850 -0.8310 -0.6975
   86MOL   H44943119   5.542   4.513   6.435 -0.8265  0.0001  0.2539
   86MOL   H45043120   5.660   4.474   6.208  0.4158  0.7528 -1.3711
   86MOL   H45143121   5.641   4.650   6.053 -1.5494 -3.5661 -0.3204
   86MOL   C45243122   5.322   5.319   5.961  0.2821 -0.2317  0.6129
   86MOL   C45343123   5.173   5.301   6.019 -0.5726 -0.8229  0.0457
   86MOL   C45443124   5.147   5.397   6.133 -0.2658  0.4933 -0.8064
   86MOL   C45543125   5.147   5.150   6.059 -0.2801  0.5450  0.1154
   86MOL   O45643126   5.131   5.111   6.178  0.7231 -0.0409 -0.2708
   86MOL   O45743127   5.141   5.069   5.948 -0.1395 -0.0714  0.2170
   86MOL   C45843128   5.117   4.933   5.961  0.0537  0.2866  0.0853
   86MOL   C45943129   5.010   4.888   5.868 -0.0793  0.5421  0.7588
   86MOL   C46043130   4.927   4.779   5.906 -0.1434  0.0056  0.1785
   86MOL   C46143131   4.844   4.718   5.805 -0.5443 -0.2702 -0.1039
   86MOL   C46243132   4.838   4.770   5.679  0.9362  0.4811  0.7309
   86MOL   C46343133   4.917   4.884   5.640 -0.2377 -0.6857  0.0450
   86MOL   C46443134   5.005   4.942   5.739 -0.5324 -0.0633 -0.0745
   86MOL   H46543135   5.329   5.281   5.860 -1.0489 -2.8494  1.4600
   86MOL   H46643136   5.342   5.425   5.945 -0.0281  0.1195  2.4160
   86MOL   H46743137   5.184   5.365   6.230 -1.7020  1.5976  0.1203
   86MOL   H46843138   5.042   5.425   6.131 -0.2199  0.7870  0.6780
   86MOL   H46943139   5.201   5.490   6.114  1.6803 -0.3754  0.3596
   86MOL   H47043140   5.205   4.871   5.973  0.5754  1.2845  1.5030
   86MOL   H47143141   5.057   4.928   6.052  0.2207 -0.5739  0.1475
   86MOL   H47243142   4.922   4.742   6.008 -0.1219  1.2416  0.6318
   86MOL   H47343143   4.780   4.637   5.836 -0.3537 -0.5035 -0.3157
   86MOL   H47443144   4.776   4.715   5.610  3.1348  0.6982 -1.4792
   86MOL   H47543145   4.931   4.912   5.536  1.5462  2.8531  1.1379
   86MOL   H47643146   5.077   5.017   5.712  1.7030 -1.7479  1.1126
   86MOL   C47743147   5.075   5.329   5.897  0.0013  0.1708 -0.2286
   86MOL   C47843148   5.058   5.474   5.850 -0.0926 -0.2109 -0.2193
   86MOL   C47943149   4.907   5.506   5.823 -0.4588  0.3150 -0.8997
   86MOL   C48043150   5.144   5.509   5.731 -0.6353  0.4199 -0.7431
   86MOL   O48143151   5.243   5.571   5.747 -0.3275  0.0430 -0.4664
   86MOL   O48243152   5.096   5.461   5.613  0.2513  0.1983 -0.8366
   86MOL   C48343153   5.146   5.511   5.482 -0.3030  0.5507  0.2162
   86MOL   C48443154   5.048   5.612   5.420 -0.4310  0.5243  0.3816
   86MOL   C48543155   5.092   5.718   5.334 -0.0747 -0.2294 -0.1525
   86MOL   C48643156   5.007   5.824   5.294  0.2854 -0.4120 -0.4789
   86MOL   C48743157   4.866   5.805   5.309  0.6923  0.3004  0.0070
   86MOL   C48843158   4.814   5.699   5.389 -0.2566  0.1700  0.5043
   86MOL   C48943159   4.907   5.601   5.443 -0.1944 -0.3430 -0.4858
   86MOL   H49043160   4.971   5.299   5.909 -0.0982  0.8797  0.7910
   86MOL   H49143161   5.108   5.272   5.810  1.5887 -1.1763  1.2286
   86MOL   H49243162   4.848   5.429   5.774 -1.7165  0.9972 -0.4702
   86MOL   H49343163   4.894   5.599   5.768 -0.0925  1.0181  0.1630
   86MOL   H49443164   4.854   5.530   5.915  1.2971 -1.5606  0.6568
   86MOL   H49543165   5.241   5.564   5.493  0.5140 -1.0087  0.9599
   86MOL   H49643166   5.153   5.426   5.413  1.5945 -0.7995  1.9879
   86MOL   H49743167   5.198   5.721   5.311 -0.0640  1.6854  0.0256
   86MOL   H49843168   5.035   5.909   5.233 -2.5543  1.3925  0.6276
   86MOL   H49943169   4.799   5.884   5.277  1.3995  0.4980 -1.0372
   86MOL   H50043170   4.708   5.681   5.401 -0.5604  0.1468 -1.9885
   86MOL   H50143171   4.874   5.512   5.494 -1.5801  1.2951  1.5351
   86MOL   H50243172   5.098   5.543   5.924  0.1729  0.2449 -0.7835
   87MOL     C143173   3.614   7.152   6.053  0.2568 -0.0963  0.8417
   87MOL     C243174   3.740   7.131   5.964 -0.1973 -0.0868  0.5286
   87MOL     C343175   3.773   7.268   5.906 -0.1522 -0.0430 -0.1668
   87MOL     C443176   3.682   7.042   5.847 -1.1029  0.7162  0.3937
   87MOL     O543177   3.678   7.069   5.725 -0.6990 -0.2353 -0.8175
   87MOL     O643178   3.631   6.926   5.892 -0.2580  0.3455 -0.1058
   87MOL     C743179   3.574   6.840   5.801 -0.3363  0.4401 -0.0128
   87MOL     C843180   3.422   6.861   5.790 -0.6265  0.4072  0.4281
   87MOL     C943181   3.336   6.812   5.888  0.4286 -1.0500 -0.8642
   87MOL    C1043182   3.200   6.850   5.888  0.2217 -0.1223 -0.2524
   87MOL    C1143183   3.158   6.948   5.795 -0.2636  0.2986  0.1737
   87MOL    C1243184   3.245   6.999   5.696 -0.0504  0.3403  0.0461
   87MOL    C1343185   3.373   6.947   5.697 -0.2240  1.0253  0.5286
   87MOL    H1443186   3.589   7.060   6.106  0.2785 -0.7816 -0.3168
   87MOL    H1543187   3.627   7.223   6.135  0.6534  0.8714 -0.0511
   87MOL    H1643188   3.694   7.317   5.849 -0.3155 -0.8743 -0.6778
   87MOL    H1743189   3.845   7.247   5.827 -0.1317  1.1576 -0.4662
   87MOL    H1843190   3.819   7.335   5.977  0.9623 -0.3781 -0.5682
   87MOL    H1943191   3.614   6.847   5.700  0.9603 -3.0169  0.1997
   87MOL    H2043192   3.596   6.738   5.833 -1.0824  0.2913  0.0327
   87MOL    H2143193   3.366   6.748   5.969  0.5532  0.9805  0.7282
   87MOL    H2243194   3.135   6.813   5.966  3.9197 -2.1339  1.9868
   87MOL    H2343195   3.057   6.986   5.806  0.2660  1.6771  0.3973
   87MOL    H2443196   3.213   7.059   5.612 -0.7809 -0.4314 -0.2390
   87MOL    H2543197   3.443   6.985   5.623 -1.5089  0.0663 -1.1973
   87MOL    H2643198   3.531   7.185   5.990  0.9263  1.1206  0.5786
   87MOL    C2743199   3.856   7.068   6.052 -0.5591 -0.3518 -0.2131
   87MOL    C2843200   4.003   7.048   5.999 -0.4021 -0.7029 -0.0604
   87MOL    C2943201   4.070   7.188   5.993 -1.1789  0.1787  0.0138
   87MOL    C3043202   4.007   6.993   5.857 -0.2578 -0.2645  0.4003
   87MOL    O3143203   4.060   7.056   5.764 -0.5008 -0.7076  0.4160
   87MOL    O3243204   3.950   6.875   5.842  0.6778  0.6531  0.0475
   87MOL    C3343205   3.954   6.804   5.717  0.0798 -0.0466  0.3302
   87MOL    C3443206   3.873   6.672   5.725  0.0993  0.0939  0.0703
   87MOL    C3543207   3.789   6.635   5.620  0.0328 -0.2923  0.2465
   87MOL    C3643208   3.702   6.523   5.632  0.1213  0.3753 -0.0818
   87MOL    C3743209   3.704   6.449   5.746 -0.6957  1.1293 -0.3734
   87MOL    C3843210   3.801   6.472   5.846 -0.7271 -0.0821 -0.1893
   87MOL    C3943211   3.885   6.585   5.837  0.5428 -0.3918 -0.0207
   87MOL    H4043212   3.821   6.971   6.088  3.5419 -0.6205  3.5660
   87MOL    H4143213   3.867   7.125   6.144 -1.8597  0.0488 -0.2962
   87MOL    H4243214   4.020   7.254   5.922  1.0617 -0.4528 -2.2249
   87MOL    H4343215   4.172   7.176   5.958 -1.5158  1.0122 -1.2675
   87MOL    H4443216   4.066   7.239   6.089  1.9799 -0.2518  0.4267
   87MOL    H4543217   3.906   6.862   5.637 -0.0445 -2.7070 -1.5737
   87MOL    H4643218   4.057   6.785   5.690 -0.3716 -1.6486 -0.3211
   87MOL    H4743219   3.781   6.692   5.529 -0.8161  1.6232  1.5003
   87MOL    H4843220   3.635   6.489   5.554  0.6505 -1.1789  0.1250
   87MOL    H4943221   3.649   6.358   5.763 -0.0150  0.4337 -1.8597
   87MOL    H5043222   3.798   6.404   5.930 -2.1847 -0.4209 -0.4943
   87MOL    H5143223   3.952   6.615   5.916  0.2720 -0.2304  0.1524
   87MOL    C5243224   4.078   6.939   6.078  0.1483 -0.0512  0.6311
   87MOL    C5343225   4.137   6.960   6.220 -0.8463 -0.1377 -0.3933
   87MOL    C5443226   4.029   7.022   6.319 -0.5674 -0.1422  0.4009
   87MOL    C5543227   4.259   7.051   6.195  0.8399  0.4683  0.2108
   87MOL    O5643228   4.275   7.138   6.276  0.4353  0.7797 -0.4609
   87MOL    O5743229   4.344   7.028   6.089 -0.8379  0.9633  0.2824
   87MOL    C5843230   4.474   7.098   6.081 -0.1574  0.2096  0.2625
   87MOL    C5943231   4.459   7.219   5.992  0.2921 -0.5150 -0.3911
   87MOL    C6043232   4.457   7.207   5.853  0.9498 -0.0294  0.7116
   87MOL    C6143233   4.444   7.327   5.775 -0.3867 -0.0820  0.4105
   87MOL    C6243234   4.452   7.453   5.831  0.2551 -0.0532  0.0966
   87MOL    C6343235   4.461   7.457   5.974 -0.2861  0.3634 -0.3228
   87MOL    C6443236   4.466   7.341   6.052 -0.8584  0.2848  0.2689
   87MOL    H6543237   4.154   6.905   6.008 -1.0091 -0.5848 -0.3664
   87MOL    H6643238   4.008   6.855   6.079  0.8288 -0.6231  1.2012
   87MOL    H6743239   4.061   7.023   6.424 -1.5607  2.0402  0.7127
   87MOL    H6843240   3.943   6.957   6.303 -2.2993  2.5309 -1.3056
   87MOL    H6943241   3.991   7.123   6.308 -1.2667 -0.3126  1.1378
   87MOL    H7043242   4.507   7.123   6.182  1.4047  2.0940 -0.6833
   87MOL    H7143243   4.563   7.043   6.049  0.6841  1.6117  0.1617
   87MOL    H7243244   4.476   7.109   5.812  0.3826  0.6213 -1.1838
   87MOL    H7343245   4.453   7.320   5.668 -3.0756  0.9446  0.0777
   87MOL    H7443246   4.458   7.546   5.777  0.1617  0.3088  0.7070
   87MOL    H7543247   4.457   7.553   6.024  1.3801  0.4377 -0.3036
   87MOL    H7643248   4.483   7.352   6.158 -0.4602  0.9485  0.1416
   87MOL    C7743249   4.187   6.819   6.268  0.2330  0.1516 -0.3048
   87MOL    C7843250   4.222   6.790   6.427  0.3815  0.2604  0.3163
   87MOL    C7943251   4.083   6.747   6.488  0.2557 -0.9003  0.0552
   87MOL    C8043252   4.284   6.915   6.499 -0.3972 -0.1742 -0.3748
   87MOL    O8143253   4.223   6.979   6.582 -0.2989  0.1600  0.2365
   87MOL    O8243254   4.408   6.939   6.461 -0.5323 -0.0329 -0.1001
   87MOL    C8343255   4.464   7.069   6.496  0.1017 -0.0674 -1.1517
   87MOL    C8443256   4.552   7.060   6.623 -0.3579 -0.8288  0.0247
   87MOL    C8543257   4.499   7.100   6.747  0.1935  0.0773  0.0194
   87MOL    C8643258   4.593   7.114   6.849  0.2405  0.0914  0.1443
   87MOL    C8743259   4.726   7.078   6.839  0.5020 -0.3354 -0.1862
   87MOL    C8843260   4.774   7.029   6.712  0.0960  0.8566 -0.4652
   87MOL    C8943261   4.685   7.019   6.601  0.3201 -0.9018 -0.0561
   87MOL    H9043262   4.271   6.789   6.206  0.0401 -4.2825  1.4674
   87MOL    H9143263   4.110   6.750   6.234  0.0233  0.6961 -0.9663
   87MOL    H9243264   4.005   6.812   6.450 -0.8860 -1.5366  1.2439
   87MOL    H9343265   4.069   6.759   6.596  1.4585  4.5787 -0.2726
   87MOL    H9443266   4.046   6.648   6.461  1.6221 -1.8470  1.5483
   87MOL    H9543267   4.516   7.114   6.412  0.5686  0.5469 -0.5453
   87MOL    H9643268   4.377   7.133   6.511 -0.3016 -0.2412 -2.6642
   87MOL    H9743269   4.399   7.139   6.762  0.4890  0.8523  0.0253
   87MOL    H9843270   4.561   7.142   6.949  0.9468 -4.1495  1.6752
   87MOL    H9943271   4.800   7.089   6.917 -0.1118 -2.0126  0.6532
   87MOL   H10043272   4.878   7.008   6.694  0.5800  1.5781  1.3750
   87MOL   H10143273   4.713   6.988   6.501  0.1130  2.2385 -1.1465
   87MOL   C10243274   4.325   6.676   6.433  0.8295 -0.0647  0.3414
   87MOL   C10343275   4.372   6.589   6.555 -0.0199  0.0819 -0.7159
   87MOL   C10443276   4.262   6.481   6.584  0.1345 -0.2989  0.4411
   87MOL   C10543277   4.392   6.670   6.692 -0.1544 -0.1171 -0.7629
   87MOL   O10643278   4.499   6.700   6.734  0.3738  0.1941 -0.4409
   87MOL   O10743279   4.278   6.711   6.750 -0.4053 -0.4746  0.5019
   87MOL   C10843280   4.282   6.810   6.856 -0.3395  0.1527  0.0461
   87MOL   C10943281   4.143   6.837   6.916  0.0053  0.0293 -0.6529
   87MOL   C11043282   4.113   6.771   7.036  0.2202 -0.5611  0.0379
   87MOL   C11143283   3.991   6.800   7.105 -0.3762  0.8101 -0.4150
   87MOL   C11243284   3.906   6.894   7.058  0.4849  0.2259  0.2557
   87MOL   C11343285   3.930   6.958   6.936  0.4691  0.1886  0.3006
   87MOL   C11443286   4.046   6.932   6.861 -0.2942 -0.4379  1.0693
   87MOL   H11543287   4.411   6.713   6.377  0.7675 -0.5112 -0.0619
   87MOL   H11643288   4.282   6.600   6.367  0.1311  0.2947  0.3866
   87MOL   H11743289   4.170   6.526   6.620  0.3634 -0.2238  0.9356
   87MOL   H11843290   4.293   6.402   6.653  0.2307 -2.6302 -2.1963
   87MOL   H11943291   4.240   6.426   6.492 -2.3367  0.5605  0.4835
   87MOL   H12043292   4.350   6.772   6.932  0.2703 -1.6445 -1.3696
   87MOL   H12143293   4.316   6.907   6.820 -0.6480 -0.2889 -1.4835
   87MOL   H12243294   4.187   6.699   7.069 -0.8035 -2.0691 -0.9013
   87MOL   H12343295   3.969   6.751   7.198  2.4880 -0.6394 -0.4204
   87MOL   H12443296   3.816   6.912   7.115 -0.1152  3.4869 -1.6184
   87MOL   H12543297   3.859   7.026   6.890 -0.4452 -0.5181  0.6476
   87MOL   H12643298   4.068   6.962   6.760 -0.7340 -0.5542  0.9367
   87MOL   C12743299   4.497   6.497   6.525  0.4072 -0.2654 -0.0770
   87MOL   C12843300   4.633   6.542   6.452  0.2858 -0.1993  0.0545
   87MOL   C12943301   4.675   6.686   6.497  0.2378 -0.3543  0.9132
   87MOL   C13043302   4.605   6.551   6.297  0.6375 -0.1220  0.5320
   87MOL   O13143303   4.597   6.656   6.235  0.1634  0.6854 -0.2472
   87MOL   O13243304   4.575   6.429   6.245  0.3843  0.0463 -0.0711
   87MOL   C13343305   4.505   6.417   6.121  0.0610 -0.4071 -0.0355
   87MOL   C13443306   4.498   6.271   6.079  0.0898  0.4976 -0.2349
   87MOL   C13543307   4.405   6.188   6.138 -0.1358 -0.0954  0.1084
   87MOL   C13643308   4.395   6.056   6.091  0.0024 -0.2730  0.0860
   87MOL   C13743309   4.472   6.017   5.982 -0.4154  0.3374  0.5719
   87MOL   C13843310   4.572   6.096   5.924 -0.1774 -0.2987  0.6549
   87MOL   C13943311   4.588   6.223   5.981  0.0861  0.4985 -0.7504
   87MOL   H14043312   4.465   6.402   6.481  0.7095  0.0815 -1.0604
   87MOL   H14143313   4.540   6.485   6.624  1.9201  2.4045 -0.3870
   87MOL   H14243314   4.738   6.724   6.416  0.3729  0.2521  1.2957
   87MOL   H14343315   4.744   6.688   6.582  0.9748  1.0990  0.3052
   87MOL   H14443316   4.595   6.757   6.518  0.9544  0.4162  1.1212
   87MOL   H14543317   4.402   6.453   6.118  0.2017  0.1662  1.6022
   87MOL   H14643318   4.567   6.465   6.046  0.7084 -0.9074  0.1638
   87MOL   H14743319   4.326   6.230   6.198 -0.5994 -0.6480 -0.1133
   87MOL   H14843320   4.321   5.991   6.134 -0.4182 -0.2610 -0.6103
   87MOL   H14943321   4.462   5.920   5.935  2.7540  0.9943 -1.5910
   87MOL   H15043322   4.626   6.074   5.834 -2.1507  2.3627 -1.2360
   87MOL   H15143323   4.663   6.284   5.934  1.4140 -0.3379  0.2341
   87MOL   C15243324   4.748   6.437   6.489 -0.5195  0.5698 -0.4787
   87MOL   C15343325   4.892   6.424   6.406  0.3051  0.0030 -0.2629
   87MOL   C15443326   4.950   6.561   6.356  1.1954  0.0975 -0.1574
   87MOL   C15543327   4.867   6.337   6.282 -0.7397  0.5663 -0.6733
   87MOL   O15643328   4.906   6.372   6.171  0.1047  0.1459 -0.1258
   87MOL   O15743329   4.818   6.211   6.315  0.0352  0.1132 -0.4500
   87MOL   C15843330   4.791   6.114   6.208 -0.0046  0.2075  0.8619
   87MOL   C15943331   4.854   5.981   6.228 -0.3620  0.0832  0.0663
   87MOL   C16043332   4.794   5.871   6.167 -0.3921 -0.3066  0.1203
   87MOL   C16143333   4.851   5.746   6.185 -0.3998 -0.2610  0.1084
   87MOL   C16243334   4.969   5.733   6.263 -0.1570  0.0683  0.1474
   87MOL   C16343335   5.026   5.839   6.332 -0.1395  0.2404  0.3237
   87MOL   C16443336   4.964   5.966   6.314 -0.3491 -1.9055  0.7401
   87MOL   H16543337   4.704   6.337   6.497 -0.7326  0.6764 -0.3055
   87MOL   H16643338   4.759   6.459   6.595 -1.2007  0.3049 -0.3462
   87MOL   H16743339   5.043   6.547   6.300  0.2440  0.9808 -2.0000
   87MOL   H16843340   4.955   6.633   6.437  1.9477 -1.1274  0.9104
   87MOL   H16943341   4.885   6.601   6.279  1.2861  0.7831  0.1239
   87MOL   H17043342   4.682   6.117   6.202  0.1393  0.4034 -3.0386
   87MOL   H17143343   4.832   6.158   6.117  0.6503 -1.2677  0.4336
   87MOL   H17243344   4.708   5.874   6.102  0.1419 -0.9437 -0.6243
   87MOL   H17343345   4.814   5.661   6.130 -0.2457  0.2677 -0.8094
   87MOL   H17443346   5.007   5.632   6.272  0.8797  0.5737  1.4284
   87MOL   H17543347   5.105   5.818   6.402 -0.2235 -1.6311 -0.1058
   87MOL   H17643348   5.004   6.055   6.361  0.6427 -1.0142 -1.6908
   87MOL   C17743349   4.996   6.352   6.491  0.1570  0.1174 -0.1776
   87MOL   C17843350   5.086   6.422   6.615  0.3793  0.3462  0.1845
   87MOL   C17943351   5.191   6.508   6.542  0.0205 -0.0536 -0.3826
   87MOL   C18043352   5.165   6.307   6.678 -0.8500  0.4565 -0.2293
   87MOL   O18143353   5.287   6.291   6.662 -0.0631  0.2195 -0.3173
   87MOL   O18243354   5.086   6.240   6.765  0.2891  0.4386  0.2804
   87MOL   C18343355   5.140   6.162   6.867  0.4678 -0.0243 -0.0458
   87MOL   C18443356   5.139   6.022   6.830 -0.5529 -0.0130 -0.1120
   87MOL   C18543357   5.056   5.928   6.891  0.3634  0.0511 -0.6391
   87MOL   C18643358   5.055   5.791   6.852 -0.1427  0.0833  0.5452
   87MOL   C18743359   5.138   5.752   6.748  0.4933 -0.2011  0.1971
   87MOL   C18843360   5.215   5.844   6.676  0.0557  0.4591  0.0510
   87MOL   C18943361   5.225   5.977   6.723  0.9590 -1.0837  0.0873
   87MOL   H19043362   5.070   6.298   6.431 -2.7574 -1.4496 -2.4669
   87MOL   H19143363   4.950   6.263   6.533  0.5103  0.2762  0.5521
   87MOL   H19243364   5.141   6.603   6.522  1.9213  1.1145  0.2559
   87MOL   H19343365   5.221   6.466   6.446  1.1127 -0.3101  0.0623
   87MOL   H19443366   5.278   6.540   6.599 -1.1018  0.5056  1.0453
   87MOL   H19543367   5.235   6.196   6.906  0.1760  0.6470  0.0879
   87MOL   H19643368   5.064   6.183   6.942  0.0742 -1.5891  0.0128
   87MOL   H19743369   4.992   5.964   6.970  0.6249 -1.2458  0.1760
   87MOL   H19843370   5.001   5.709   6.897 -1.1994 -1.1189 -2.7622
   87MOL   H19943371   5.134   5.646   6.728  0.6225 -0.3419  0.8761
   87MOL   H20043372   5.271   5.805   6.593 -1.4655 -3.5368  0.7659
   87MOL   H20143373   5.293   6.046   6.674 -0.7351 -0.4948 -1.5219
   87MOL   C20243374   4.999   6.496   6.722 -0.1690 -0.1149  1.3727
   87MOL   C20343375   5.057   6.610   6.822 -0.5792  0.6679 -0.8406
   87MOL   C20443376   5.106   6.742   6.751  0.0642 -0.5084  0.1891
   87MOL   C20543377   5.171   6.541   6.905  0.3632  0.0842 -0.5917
   87MOL   O20643378   5.135   6.473   6.996 -0.2066  0.3817  0.3667
   87MOL   O20743379   5.298   6.546   6.859  0.4804 -0.2716 -0.2820
   87MOL   C20843380   5.399   6.462   6.916 -0.4032 -0.3116 -0.1636
   87MOL   C20943381   5.539   6.505   6.874 -0.4312 -0.4316 -0.0371
   87MOL   C21043382   5.573   6.522   6.738 -0.5239 -0.2218  0.2291
   87MOL   C21143383   5.706   6.577   6.712  0.5416  0.5550 -0.3371
   87MOL   C21243384   5.802   6.588   6.813  0.9848  0.1340 -0.0350
   87MOL   C21343385   5.765   6.568   6.945  0.0514 -0.1633 -0.8707
   87MOL   C21443386   5.631   6.526   6.974 -0.8420 -0.4895 -0.2533
   87MOL   H21543387   4.937   6.425   6.777 -0.8074  0.9460  2.0389
   87MOL   H21643388   4.914   6.543   6.672 -0.7855 -2.0717  0.5146
   87MOL   H21743389   5.205   6.709   6.718 -0.5432 -0.2274 -1.9852
   87MOL   H21843390   5.129   6.823   6.820 -0.6260  1.1248 -1.4810
   87MOL   H21943391   5.034   6.772   6.675  0.0609  2.1070  1.1722
   87MOL   H22043392   5.380   6.474   7.022  2.8089 -0.3163  0.4348
   87MOL   H22143393   5.376   6.357   6.895  2.3091 -0.7466 -1.0900
   87MOL   H22243394   5.498   6.515   6.661 -0.4634 -1.7640  0.3068
   87MOL   H22343395   5.734   6.607   6.612  0.8004 -0.3969 -0.5550
   87MOL   H22443396   5.908   6.604   6.799  1.3586 -1.5656  0.7682
   87MOL   H22543397   5.838   6.566   7.025  0.1671 -0.6990 -0.9868
   87MOL   H22643398   5.596   6.509   7.075 -1.6261  1.1411 -0.2337
   87MOL   C22743399   4.926   6.641   6.910 -0.2276  0.2836 -0.5211
   87MOL   C22843400   4.911   6.703   7.059 -0.5841 -0.1343  0.2555
   87MOL   C22943401   4.995   6.837   7.062  0.7930 -0.2080  0.2383
   87MOL   C23043402   4.961   6.612   7.171  0.1500  0.5560 -0.7530
   87MOL   O23143403   5.051   6.637   7.247  0.0683  0.0532 -0.5910
   87MOL   O23243404   4.904   6.491   7.164  0.1442  0.1720  0.2113
   87MOL   C23343405   4.948   6.383   7.246 -0.5617  0.3152 -0.0482
   87MOL   C23443406   4.855   6.264   7.252  0.5012 -0.6679  0.4743
   87MOL   C23543407   4.819   6.198   7.130  1.2574  0.4431  0.3212
   87MOL   C23643408   4.741   6.079   7.127 -0.3177 -0.5952 -0.0714
   87MOL   C23743409   4.689   6.025   7.247  0.0863  0.0768 -0.0491
   87MOL   C23843410   4.718   6.097   7.366  0.1179  0.2739 -0.2636
   87MOL   C23943411   4.798   6.217   7.369 -0.0368 -1.1324 -0.2626
   87MOL   H24043412   4.866   6.552   6.925 -0.7970  1.3373  3.9313
   87MOL   H24143413   4.868   6.704   6.843 -1.3022  0.5648  0.6636
   87MOL   H24243414   4.955   6.925   7.010  0.9206  0.0414  0.5601
   87MOL   H24343415   5.096   6.821   7.025  1.2663 -1.3543  1.9782
   87MOL   H24443416   5.014   6.864   7.166 -0.4326 -0.2605  0.4882
   87MOL   H24543417   5.039   6.344   7.200 -1.9886 -0.8952 -1.9708
   87MOL   H24643418   4.972   6.421   7.345 -0.9096  0.8605 -0.1731
   87MOL   H24743419   4.843   6.248   7.038  1.5596  0.0822  0.2025
   87MOL   H24843420   4.712   6.049   7.027 -2.1682 -1.5335  0.7185
   87MOL   H24943421   4.631   5.935   7.244  0.0996  0.0912 -0.8716
   87MOL   H25043422   4.678   6.061   7.460  1.9214 -0.6819  0.1599
   87MOL   H25143423   4.821   6.264   7.464  1.7739  0.4663 -1.4383
   87MOL   C25243424   4.756   6.729   7.074 -0.0060 -0.4146  0.5289
   87MOL   C25343425   4.687   6.786   7.208  0.1459 -0.3747  0.3818
   87MOL   C25443426   4.561   6.869   7.161  0.4185  0.4013 -0.0750
   87MOL   C25543427   4.781   6.893   7.276  0.9877  0.3850  0.7926
   87MOL   O25643428   4.856   6.866   7.372  0.2232 -0.5156  0.4084
   87MOL   O25743429   4.775   7.011   7.220 -0.4293  0.1677 -0.2682
   87MOL   C25843430   4.822   7.136   7.278 -0.6466 -0.0879 -0.3129
   87MOL   C25943431   4.922   7.216   7.193 -0.1937 -0.1396 -0.3984
   87MOL   C26043432   5.053   7.170   7.167 -0.0608  0.4305  0.4690
   87MOL   C26143433   5.146   7.252   7.093 -0.6376  0.0821  0.1192
   87MOL   C26243434   5.103   7.374   7.042  0.3358 -0.8970 -0.6418
   87MOL   C26343435   4.974   7.414   7.066  0.5122 -0.3922 -0.2563
   87MOL   C26443436   4.884   7.334   7.136 -0.5116 -0.4163  0.0051
   87MOL   H26543437   4.705   6.635   7.053 -1.6854  0.4596  0.5383
   87MOL   H26643438   4.739   6.795   6.989 -0.3363 -1.4589 -0.2320
   87MOL   H26743439   4.483   6.799   7.130  1.5994 -1.5628  1.2928
   87MOL   H26843440   4.586   6.943   7.084  2.5319  1.2585  1.3999
   87MOL   H26943441   4.532   6.925   7.250  0.2134  1.1707 -0.6192
   87MOL   H27043442   4.734   7.195   7.303 -0.2133  0.6626 -0.5502
   87MOL   H27143443   4.878   7.120   7.371 -1.4916 -0.4775  0.1379
   87MOL   H27243444   5.081   7.074   7.209  1.1145  0.6304  0.1627
   87MOL   H27343445   5.245   7.226   7.059 -0.4514  1.2203 -0.2208
   87MOL   H27443446   5.172   7.432   6.983 -0.7488 -0.1170 -1.1551
   87MOL   H27543447   4.930   7.508   7.036  1.1275 -0.0889 -0.2306
   87MOL   H27643448   4.786   7.373   7.161 -1.0120 -1.9696  0.5708
   87MOL   C27743449   4.648   6.682   7.312 -0.2044 -1.4432 -0.4901
   87MOL   C27843450   4.524   6.586   7.311 -0.2623  0.0459  0.3480
   87MOL   C27943451   4.517   6.507   7.177 -0.3548 -0.3259  0.4855
   87MOL   C28043452   4.390   6.661   7.337 -0.1705 -0.2829  0.2286
   87MOL   O28143453   4.380   6.784   7.347 -0.6002 -0.0066  0.3819
   87MOL   O28243454   4.300   6.576   7.361 -0.4323  0.5850 -0.3891
   87MOL   C28343455   4.173   6.613   7.406 -0.3026 -0.1855 -0.9142
   87MOL   C28443456   4.082   6.497   7.431 -0.1706 -0.3172 -0.4530
   87MOL   C28543457   4.058   6.403   7.331  0.0084  0.4914 -0.0303
   87MOL   C28643458   3.978   6.289   7.359 -0.8157  0.6561 -0.2219
   87MOL   C28743459   3.913   6.278   7.484 -0.2114  0.1841 -0.4131
   87MOL   C28843460   3.941   6.366   7.582  0.7981 -0.2479 -0.7950
   87MOL   C28943461   4.022   6.478   7.553  0.0399 -0.2610  0.2194
   87MOL   H29043462   4.634   6.731   7.409  0.6809  0.2937 -1.2151
   87MOL   H29143463   4.739   6.624   7.324  0.5426  0.0096  1.1806
   87MOL   H29243464   4.466   6.412   7.186 -0.0065 -0.4794  0.8207
   87MOL   H29343465   4.615   6.467   7.152 -0.3734  0.2025 -0.5029
   87MOL   H29443466   4.490   6.574   7.094 -0.3046 -0.6817  0.1811
   87MOL   H29543467   4.174   6.679   7.493 -3.4243  1.9911 -2.4207
   87MOL   H29643468   4.120   6.679   7.338  0.2744 -0.1310 -1.3201
   87MOL   H29743469   4.105   6.419   7.235  0.9802  0.3924  0.4152
   87MOL   H29843470   3.963   6.217   7.279 -0.5546  0.4636 -0.0986
   87MOL   H29943471   3.837   6.202   7.500 -0.4998  0.7204  0.8497
   87MOL   H30043472   3.885   6.359   7.674  0.5348 -0.4295 -0.9667
   87MOL   H30143473   4.040   6.539   7.641 -0.7028  0.2689  0.0073
   87MOL   C30243474   4.554   6.483   7.429 -0.4891 -0.2222  0.8798
   87MOL   C30343475   4.581   6.513   7.581 -0.0611 -0.3426  0.5065
   87MOL   C30443476   4.482   6.614   7.638  0.4007  0.1051 -0.1460
   87MOL   C30543477   4.729   6.559   7.592  0.3946  0.9712 -0.5343
   87MOL   O30643478   4.818   6.483   7.545  0.0553 -0.4013 -0.8575
   87MOL   O30743479   4.747   6.664   7.672  0.0730  0.2076  0.2578
   87MOL   C30843480   4.880   6.698   7.701 -0.1304  0.4224  0.1326
   87MOL   C30943481   4.888   6.840   7.732  0.1966  0.0922 -0.6162
   87MOL   C31043482   4.969   6.928   7.658 -0.2239  0.4381 -0.3092
   87MOL   C31143483   4.975   7.067   7.692 -0.1265  0.1033 -0.2392
   87MOL   C31243484   4.904   7.111   7.809  0.2515 -0.3333 -0.3768
   87MOL   C31343485   4.846   7.010   7.897  0.1031 -0.0700 -0.2135
   87MOL   C31443486   4.818   6.884   7.845 -0.5909 -0.1313  0.4329
   87MOL   H31543487   4.631   6.421   7.384 -0.5505  0.3094  0.0177
   87MOL   H31643488   4.465   6.421   7.420 -0.8149  0.4814 -0.9941
   87MOL   H31743489   4.377   6.592   7.621  0.3900  0.1754 -0.1676
   87MOL   H31843490   4.500   6.715   7.603 -0.2385  0.2079 -0.1844
   87MOL   H31943491   4.505   6.629   7.744  1.7473 -1.9677 -0.1163
   87MOL   H32043492   4.923   6.633   7.776 -1.8150 -1.3371 -0.3876
   87MOL   H32143493   4.941   6.687   7.611 -0.7787  3.1680 -0.7112
   87MOL   H32243494   5.004   6.891   7.563  0.0284  2.1978 -0.9238
   87MOL   H32343495   5.045   7.123   7.632  0.1827  0.7910  0.7488
   87MOL   H32443496   4.906   7.217   7.831 -1.4011 -0.5548  0.9386
   87MOL   H32543497   4.794   7.036   7.988  0.0087 -1.1443  0.0508
   87MOL   H32643498   4.757   6.812   7.897  1.0339 -2.5610 -0.9401
   87MOL   C32743499   4.590   6.377   7.665 -0.2760  0.1006  0.0185
   87MOL   C32843500   4.466   6.300   7.726  0.3221  0.2213  0.2020
   87MOL   C32943501   4.356   6.282   7.616 -0.4145 -0.4853 -0.3814
   87MOL   C33043502   4.397   6.383   7.839  1.2660 -0.3258  0.2150
   87MOL   O33143503   4.274   6.408   7.839  0.1932  0.0640 -0.2555
   87MOL   O33243504   4.483   6.417   7.937 -0.6617 -0.3916 -0.0153
   87MOL   C33343505   4.442   6.462   0.055  0.2819 -0.2690 -0.3371
   87MOL   C33443506   4.549   6.552   0.118 -0.1486  0.4822  0.1793
   87MOL   C33543507   4.675   6.579   0.056  0.4040  1.1034 -0.2422
   87MOL   C33643508   4.764   6.667   0.120  0.3495  0.1904 -0.8160
   87MOL   C33743509   4.735   6.714   0.253 -0.0261  0.1541 -0.4217
   87MOL   C33843510   4.619   6.673   0.317  0.0542 -0.0392 -0.0553
   87MOL   C33943511   4.526   6.596   0.250 -0.5409 -0.6629 -0.1656
   87MOL   H34043512   4.657   6.386   7.751  0.0082 -0.6926 -0.1160
   87MOL   H34143513   4.647   6.308   7.603  2.0801  0.0960  2.0779
   87MOL   H34243514   4.410   6.232   7.535  0.9668  0.3501  0.0090
   87MOL   H34343515   4.313   6.379   7.591  0.2093 -0.5466 -1.7789
   87MOL   H34443516   4.266   6.233   7.651 -0.2051 -0.3508  0.3383
   87MOL   H34543517   4.350   6.521   0.054  0.6208  0.2560 -0.7157
   87MOL   H34643518   4.415   6.378   0.119  0.6495  0.0011  0.1721
   87MOL   H34743519   4.707   6.547   7.965  2.4546  0.1387  0.7280
   87MOL   H34843520   4.848   6.701   0.061  1.0350  0.5121  0.3234
   87MOL   H34943521   4.807   6.773   0.308 -0.2276  0.8380 -0.8850
   87MOL   H35043522   4.600   6.704   0.419 -1.7286 -0.1720 -0.3252
   87MOL   H35143523   4.437   6.567   0.305 -0.2078 -0.5907  0.4155
   87MOL   C35243524   4.506   6.150   7.758 -0.2486 -0.3643  0.3892
   87MOL   C35343525   4.559   6.091   7.893 -0.4170 -0.2394 -0.0903
   87MOL   C35443526   4.452   6.099   0.002  0.2956  0.0676 -0.1918
   87MOL   C35543527   4.689   6.166   7.939  0.7128 -0.2840  0.0620
   87MOL   O35643528   4.691   6.227   0.038  0.3844  0.3869 -0.6225
   87MOL   O35743529   4.787   6.162   7.856 -0.2853 -0.0722  0.0844
   87MOL   C35843530   4.903   6.238   7.878  0.6995  0.3905 -0.5775
   87MOL   C35943531   4.996   6.255   7.757  0.2957  0.0438 -0.6291
   87MOL   C36043532   5.024   6.137   7.676  0.0908  0.5664  0.7054
   87MOL   C36143533   5.120   6.152   7.573  0.2209  0.1430 -0.3677
   87MOL   C36243534   5.178   6.275   7.543 -0.2900  0.2361  0.6679
   87MOL   C36343535   5.143   6.390   7.614  1.9240 -0.4590 -0.6069
   87MOL   C36443536   5.066   6.377   7.735 -0.0258 -0.0527 -0.3850
   87MOL   H36543537   4.575   6.118   7.680  0.1714 -0.1326  0.6642
   87MOL   H36643538   4.423   6.085   7.729 -1.0971  1.1927 -0.7844
   87MOL   H36743539   4.495   6.097   0.102  0.0926 -0.4333 -0.1164
   87MOL   H36843540   4.376   6.021   8.006 -0.3278  0.4739  3.6200
   87MOL   H36943541   4.404   6.196   0.017 -0.1216 -0.1646 -0.0261
   87MOL   H37043542   4.878   6.336   7.920 -0.0545  0.2973 -0.7974
   87MOL   H37143543   4.966   6.188   7.952  0.6955  0.6611 -0.3891
   87MOL   H37243544   4.964   6.048   7.687 -1.4213  1.6376  1.2629
   87MOL   H37343545   5.139   6.060   7.518 -0.6989  0.9044 -2.0064
   87MOL   H37443546   5.242   6.291   7.457  0.1696  0.3568  1.0295
   87MOL   H37543547   5.198   6.478   7.588  0.1229  1.0639  0.5600
   87MOL   H37643548   5.055   6.452   7.811 -2.4016 -0.4040 -0.3349
   87MOL   C37743549   4.593   5.936   7.866 -0.5479 -0.1381  0.1589
   87MOL   C37843550   4.665   5.840   7.969  0.4664  0.3510 -0.2614
   87MOL   C37943551   4.620   5.868   0.109  0.4947 -0.4014  0.3901
   87MOL   C38043552   4.819   5.856   7.965 -0.0408 -0.0916 -0.1130
   87MOL   O38143553   4.879   5.908   7.873  0.4301 -0.4295  0.0690
   87MOL   O38243554   4.889   5.820   0.075 -0.5168  0.3787 -0.5421
   87MOL   C38343555   5.033   5.828   0.072  0.2249 -0.4614 -0.4606
   87MOL   C38443556   5.100   5.692   0.070 -0.1382 -0.7987  0.5505
   87MOL   C38543557   5.026   5.575   0.112  0.8846  0.4359 -0.1091
   87MOL   C38643558   5.076   5.445   0.096 -0.7823  0.2483 -0.3655
   87MOL   C38743559   5.212   5.434   0.056  0.0250  0.1688 -0.0187
   87MOL   C38843560   5.294   5.542   0.015 -0.6790  0.1384  0.7014
   87MOL   C38943561   5.229   5.672   0.019 -0.0200  0.7114 -0.2614
   87MOL   H39043562   4.649   5.938   7.772 -1.0237  0.8477 -0.1137
   87MOL   H39143563   4.498   5.889   7.840  0.0957 -0.3541 -1.9683
   87MOL   H39243564   4.513   5.885   0.113  0.5206  0.1025 -0.8126
   87MOL   H39343565   4.674   5.956   0.143  0.0263 -0.7725  2.1305
   87MOL   H39443566   4.659   5.795   0.180 -0.8349 -0.7858  0.7305
   87MOL   H39543567   5.064   5.898   8.002 -1.3578 -1.5019 -2.0945
   87MOL   H39643568   5.073   5.857   0.169 -1.5570 -1.7777  0.6966
   87MOL   H39743569   4.927   5.588   0.152  1.2323 -0.2021  0.9581
   87MOL   H39843570   5.009   5.364   0.120  2.0256 -2.5419 -1.6779
   87MOL   H39943571   5.245   5.332   0.051 -2.5597 -0.6776 -1.1329
   87MOL   H40043572   5.392   5.530   7.980 -1.4792  1.2968 -1.5716
   87MOL   H40143573   5.287   5.757   7.993  2.5309 -0.9375 -0.2347
   87MOL   C40243574   4.636   5.687   7.943 -0.6548 -0.5299 -0.2027
   87MOL   C40343575   4.660   5.596   7.819  0.9032  0.1260  0.3685
   87MOL   C40443576   4.596   5.665   7.692  0.8612 -0.2836  0.0105
   87MOL   C40543577   4.592   5.462   7.851 -0.2318  0.0333 -0.1432
   87MOL   O40643578   4.498   5.427   7.781  0.6774 -0.5070  0.2911
   87MOL   O40743579   4.642   5.402   7.960 -0.2226  0.1179  0.1321
   87MOL   C40843580   4.573   5.291   0.002  0.1274 -0.9913  0.2563
   87MOL   C40943581   4.654   5.169   0.039 -0.4611 -0.0578 -0.1818
   87MOL   C41043582   4.586   5.041   0.051  0.2534 -0.1964  0.3670
   87MOL   C41143583   4.655   4.931   0.091 -0.1132  0.0518  0.6024
   87MOL   C41243584   4.790   4.935   0.126 -0.9532 -0.1180  0.4313
   87MOL   C41343585   4.856   5.063   0.115 -0.3467 -0.1967  0.0810
   87MOL   C41443586   4.791   5.179   0.066  0.5502 -0.0085  0.1557
   87MOL   H41543587   4.538   5.672   7.988 -0.8449  0.8933 -0.1162
   87MOL   H41643588   4.693   5.635   0.012  0.8631  2.4056  0.7321
   87MOL   H41743589   4.589   5.600   7.604 -0.1789 -2.5252  1.6796
   87MOL   H41843590   4.653   5.750   7.655  0.3281 -0.0289 -0.2293
   87MOL   H41943591   4.492   5.688   7.712  0.2691 -2.4279 -0.4579
   87MOL   H42043592   4.491   5.324   0.067 -0.0543 -1.2125  0.1384
   87MOL   H42143593   4.525   5.242   7.925 -1.1927 -1.2506  1.1358
   87MOL   H42243594   4.481   5.033   0.025  0.7749  1.5104 -2.4832
   87MOL   H42343595   4.604   4.836   0.102 -0.2324 -0.2222 -2.0996
   87MOL   H42443596   4.848   4.851   0.160  1.6765  0.8431 -1.5480
   87MOL   H42543597   4.962   5.072   0.138  0.0179 -2.1081 -0.7777
   87MOL   H42643598   4.835   5.275   0.047  1.2475 -0.8975 -2.9273
   87MOL   C42743599   4.810   5.564   7.795 -0.1009  0.1641 -0.1248
   87MOL   C42843600   4.867   5.495   7.662  0.0583  0.4504  0.0911
   87MOL   C42943601   5.019   5.487   7.687 -0.0106  0.0454 -0.3617
   87MOL   C43043602   4.849   5.591   7.537  0.0678  0.2100  0.0533
   87MOL   O43143603   4.769   5.567   7.446  0.6065  0.2798  0.3595
   87MOL   O43243604   4.913   5.712   7.553  0.0617 -0.2215 -0.3341
   87MOL   C43343605   4.893   5.815   7.454  0.5823 -0.4580  0.6261
   87MOL   C43443606   5.012   5.810   7.353 -0.2635 -0.1633 -0.3019
   87MOL   C43543607   5.062   5.930   7.298 -0.2299  0.0781 -0.2586
   87MOL   C43643608   5.177   5.928   7.207  0.5115 -0.0767  0.1852
   87MOL   C43743609   5.226   5.796   7.175 -0.5652 -0.0504  0.4295
   87MOL   C43843610   5.165   5.678   7.220 -0.1604 -0.2148 -0.4006
   87MOL   C43943611   5.064   5.685   7.317  0.4967  0.1137 -0.0241
   87MOL   H44043612   4.847   5.502   7.877 -0.9529  0.1219  0.2340
   87MOL   H44143613   4.859   5.660   7.810 -0.8045  0.3638  0.9778
   87MOL   H44243614   5.077   5.448   7.603 -0.9327 -2.8390  0.2978
   87MOL   H44343615   5.045   5.423   7.771 -1.3527  0.2924  0.2623
   87MOL   H44443616   5.053   5.584   7.723  1.8166 -0.9838  0.7295
   87MOL   H44543617   4.801   5.802   7.397  1.3459 -0.7461 -0.5586
   87MOL   H44643618   4.889   5.905   7.515 -0.3686 -0.1686  0.1345
   87MOL   H44743619   5.010   6.021   7.324  2.1752  1.3025  0.3945
   87MOL   H44843620   5.226   6.015   7.168  3.2668 -1.6438  0.0313
   87MOL   H44943621   5.301   5.773   7.101 -0.1508 -0.6182  1.0192
   87MOL   H45043622   5.200   5.580   7.191  1.1860  0.2228 -0.3040
   87MOL   H45143623   5.028   5.588   7.347 -0.0659 -0.8079 -3.4116
   87MOL   C45243624   4.816   5.349   7.642  0.4595  0.4799 -0.2182
   87MOL   C45343625   4.887   5.237   7.553 -0.3135  0.5322 -0.2350
   87MOL   C45443626   4.797   5.106   7.535  0.1928 -0.3181  0.2171
   87MOL   C45543627   5.010   5.187   7.630 -0.1727 -0.1111  0.3900
   87MOL   O45643628   5.126   5.207   7.591 -0.0598  0.1053  0.3642
   87MOL   O45743629   4.983   5.127   7.746 -0.5561 -0.0298 -0.3575
   87MOL   C45843630   5.082   5.055   7.823  0.1702 -0.5522 -0.4575
   87MOL   C45943631   5.058   4.902   7.830  0.5946  0.4321  0.0020
   87MOL   C46043632   5.163   4.813   7.808 -0.7051 -0.3566  0.7605
   87MOL   C46143633   5.141   4.674   7.809 -0.1399  0.7401  0.3520
   87MOL   C46243634   5.011   4.624   7.819 -0.3150  0.7420  0.0833
   87MOL   C46343635   4.904   4.710   7.835  0.0103 -0.1659 -0.0131
   87MOL   C46443636   4.924   4.854   7.841  0.3982  0.1835 -0.3839
   87MOL   H46543637   4.712   5.355   7.608 -0.3409 -0.2683  2.0007
   87MOL   H46643638   4.784   5.310   7.739 -0.0288  0.4252 -0.4000
   87MOL   H46743639   4.854   5.032   7.479 -0.7043 -0.4571 -0.5266
   87MOL   H46843640   4.706   5.120   7.477 -0.2966  0.7724  1.2158
   87MOL   H46943641   4.743   5.068   7.621 -0.1180 -1.2953 -0.3998
   87MOL   H47043642   5.182   5.058   7.779 -0.0075  2.7828 -0.7155
   87MOL   H47143643   5.092   5.087   7.927  1.1439 -1.0321 -0.3944
   87MOL   H47243644   5.262   4.852   7.792  0.6431 -3.5284  1.0387
   87MOL   H47343645   5.226   4.614   7.781 -1.3977 -1.5519  1.3378
   87MOL   H47443646   4.989   4.519   7.806  0.4135  0.7693 -1.4577
   87MOL   H47543647   4.802   4.679   7.854  0.4349 -1.5341  0.1112
   87MOL   H47643648   4.838   4.919   7.834  0.6083  0.4498 -0.4628
   87MOL   C47743649   4.927   5.290   7.412  0.4689  0.0467  0.3229
   87MOL   C47843650   4.974   5.187   7.309 -0.6152 -0.1052 -0.2389
   87MOL   C47943651   5.084   5.245   7.225 -0.0337 -0.4334 -0.1205
   87MOL   C48043652   4.861   5.117   7.228  0.5693 -0.0488 -0.4698
   87MOL   O48143653   4.751   5.173   7.211 -0.5760 -0.8558 -0.9509
   87MOL   O48243654   4.888   4.991   7.175 -0.4834  0.3704  0.6785
   87MOL   C48343655   4.794   4.923   7.099 -0.7972 -0.6196  0.0643
   87MOL   C48443656   4.832   4.777   7.101 -0.8328 -0.7246  0.3271
   87MOL   C48543657   4.956   4.722   7.147  0.1932  0.2090 -1.1536
   87MOL   C48643658   4.973   4.583   7.146  0.3375 -0.3032  0.3422
   87MOL   C48743659   4.871   4.504   7.090 -0.6440 -0.6519 -0.0820
   87MOL   C48843660   4.750   4.552   7.048 -0.5122  0.3141  0.1408
   87MOL   C48943661   4.733   4.691   7.053  0.5118 -0.0672  0.0478
   87MOL   H49043662   4.998   5.372   7.422  0.0491  0.4329  0.1390
   87MOL   H49143663   4.836   5.327   7.365  1.1225  0.7517 -0.3986
   87MOL   H49243664   5.111   5.171   7.149 -1.0619  0.3859 -1.3021
   87MOL   H49343665   5.169   5.271   7.287  1.2893 -0.3397 -1.9365
   87MOL   H49443666   5.054   5.331   7.165  1.2596 -1.9239 -2.9882
   87MOL   H49543667   4.698   4.959   7.137  0.1027  0.3005  1.4802
   87MOL   H49643668   4.787   4.940   6.991 -1.1765  0.8585  0.3102
   87MOL   H49743669   5.040   4.779   7.185 -0.7810  1.4249 -0.7817
   87MOL   H49843670   5.065   4.538   7.180  1.5424  2.8148  1.3674
   87MOL   H49943671   4.882   4.396   7.091 -0.5914 -0.6488  2.6696
   87MOL   H50043672   4.677   4.479   7.014 -0.3741 -0.2436  1.0154
   87MOL   H50143673   4.641   4.728   7.010  1.2243 -0.8288 -2.1965
   87MOL   H50243674   5.028   5.109   7.362 -0.5529 -0.1181 -0.3220
   88MOL     C143675   7.505   5.977   2.685 -0.7138 -0.0808 -0.2314
   88MOL     C243676   7.653   5.946   2.644 -0.4791  1.1390 -0.0927
   88MOL     C343677   7.724   5.898   2.781 -0.0365  0.4949 -0.3562
   88MOL     C443678   7.732   6.073   2.595 -0.1987  0.2230 -0.2698
   88MOL     O543679   7.792   6.080   2.487  0.7007  0.0252  0.7534
   88MOL     O643680   7.736   6.166   2.686  0.1815 -0.2159  0.1605
   88MOL     C743681   7.792   6.293   2.657 -0.1589 -0.4398 -0.4404
   88MOL     C843682   7.699   6.408   2.697  0.5015 -0.7955 -0.2419
   88MOL     C943683   7.607   6.390   2.805 -0.2095 -0.0957  0.3129
   88MOL    C1043684   7.520   6.494   2.840  0.1106  0.6142 -0.0279
   88MOL    C1143685   7.531   6.622   2.780  0.2125 -0.2521  0.0525
   88MOL    C1243686   7.638   6.651   2.690  0.8865  0.4656 -0.1768
   88MOL    C1343687   7.722   6.541   2.648  0.3735 -0.3257 -0.8426
   88MOL    H1443688   7.512   6.052   2.764 -2.2068 -1.0708  0.8665
   88MOL    H1543689   7.448   6.004   2.595 -0.8309  1.0339  0.1658
   88MOL    H1643690   7.717   5.980   2.853 -0.5896 -0.8446  1.1295
   88MOL    H1743691   7.832   5.888   2.770 -0.0754 -0.6443  0.3163
   88MOL    H1843692   7.674   5.809   2.818 -0.2813  0.2081 -1.3630
   88MOL    H1943693   7.885   6.317   2.708 -0.7668 -2.1180  1.5375
   88MOL    H2043694   7.808   6.308   2.550  0.3214  0.4234 -0.2476
   88MOL    H2143695   7.614   6.293   2.852  0.0296 -0.6959 -0.9119
   88MOL    H2243696   7.447   6.476   2.917 -1.3303 -0.3817 -1.5978
   88MOL    H2343697   7.461   6.695   2.819  0.9149 -0.2185  1.2833
   88MOL    H2443698   7.659   6.750   2.654 -2.2730  1.0531 -0.5601
   88MOL    H2543699   7.804   6.555   2.579  1.8116 -0.2704  0.8400
   88MOL    H2643700   7.472   5.882   2.726  1.5661 -1.4075 -1.4191
   88MOL    C2743701   7.664   5.830   2.540 -0.4429  0.6321 -0.2755
   88MOL    C2843702   7.580   5.811   2.405  0.4344 -0.0077 -0.1415
   88MOL    C2943703   7.569   5.947   2.335  0.0093  0.3600 -0.1187
   88MOL    C3043704   7.440   5.758   2.451 -0.0337  0.4908  0.1099
   88MOL    O3143705   7.419   5.709   2.563  0.4070  0.1364 -0.2706
   88MOL    O3243706   7.347   5.784   2.362 -0.0144 -0.5236 -0.1967
   88MOL    C3343707   7.210   5.782   2.394  0.3653  0.4483 -0.3370
   88MOL    C3443708   7.118   5.861   2.305  0.0084  0.0456  0.3669
   88MOL    C3543709   6.984   5.824   2.294  1.0704  0.3242  0.6293
   88MOL    C3643710   6.893   5.895   2.215 -0.3701  0.8819  0.3140
   88MOL    C3743711   6.936   5.998   2.139  0.2917  0.0400  0.7775
   88MOL    C3843712   7.067   6.046   2.157 -0.1898 -0.2308  0.9889
   88MOL    C3943713   7.156   5.979   2.243 -0.0486 -0.3798  0.1031
   88MOL    H4043714   7.646   5.742   2.601 -0.4477 -0.8150 -2.3342
   88MOL    H4143715   7.766   5.816   2.504 -0.1890 -0.7940  0.9535
   88MOL    H4243716   7.668   5.992   2.325 -1.2552  3.0638 -0.9513
   88MOL    H4343717   7.513   6.020   2.392  1.0186  1.8578 -1.0085
   88MOL    H4443718   7.523   5.953   2.236 -1.4153 -0.0771  0.5014
   88MOL    H4543719   7.177   5.678   2.384  0.7049  0.4678 -1.8382
   88MOL    H4643720   7.211   5.824   2.494  0.6122 -0.3467 -0.0023
   88MOL    H4743721   6.946   5.740   2.350  1.3581 -0.1227  0.1499
   88MOL    H4843722   6.792   5.862   2.197  0.2293 -1.0107  0.2433
   88MOL    H4943723   6.872   6.056   2.073  1.8279  0.1468 -0.6542
   88MOL    H5043724   7.110   6.131   2.105  0.2709 -0.4460  1.0073
   88MOL    H5143725   7.257   6.014   2.264 -0.6106  1.6608 -0.4189
   88MOL    C5243726   7.652   5.710   2.303  0.0710 -0.3129 -1.1179
   88MOL    C5343727   7.626   5.556   2.291  0.3613  0.2638  0.1699
   88MOL    C5443728   7.496   5.528   2.217 -0.5987  0.9151  0.9849
   88MOL    C5543729   7.632   5.481   2.431  0.5471  0.9319  0.0774
   88MOL    O5643730   7.549   5.398   2.470  0.1270  0.2887 -0.6188
   88MOL    O5743731   7.745   5.508   2.504 -0.3239 -0.4201 -0.0334
   88MOL    C5843732   7.767   5.433   2.624 -0.0956 -0.0725 -0.1482
   88MOL    C5943733   7.736   5.503   2.758 -0.0514 -0.4003 -0.3629
   88MOL    C6043734   7.836   5.540   2.848 -0.3846  0.3378 -0.1339
   88MOL    C6143735   7.813   5.592   2.977 -0.6622 -0.8933 -0.1688
   88MOL    C6243736   7.680   5.605   3.019  0.4939  0.0561 -0.0478
   88MOL    C6343737   7.574   5.564   2.937  0.1462 -0.7533 -0.2836
   88MOL    C6443738   7.605   5.522   2.802 -0.1878 -0.4838  0.1564
   88MOL    H6543739   7.759   5.720   2.321 -0.2895 -0.6138  1.3375
   88MOL    H6643740   7.631   5.751   2.205 -0.9179  0.7567 -0.4619
   88MOL    H6743741   7.493   5.423   2.189  1.2438  1.3347 -0.9359
   88MOL    H6843742   7.480   5.575   2.120 -1.6110 -1.1051  0.1583
   88MOL    H6943743   7.410   5.546   2.282 -0.3558  0.8730  1.3171
   88MOL    H7043744   7.729   5.331   2.621 -0.2422  0.0210 -1.6181
   88MOL    H7143745   7.876   5.431   2.621 -0.1474 -2.1664 -1.0094
   88MOL    H7243746   7.935   5.529   2.808 -0.2549 -0.8210  0.5039
   88MOL    H7343747   7.897   5.627   3.035  0.0529  0.0837 -1.7506
   88MOL    H7443748   7.658   5.637   3.120  0.1474 -1.4692  0.3633
   88MOL    H7543749   7.476   5.574   2.981  0.7926 -1.1067  1.2908
   88MOL    H7643750   7.526   5.503   2.730  0.4578  0.5521 -0.8569
   88MOL    C7743751   7.752   5.509   2.201  0.7338 -0.2363 -0.5219
   88MOL    C7843752   7.769   5.372   2.124 -0.6984 -0.0919 -0.3848
   88MOL    C7943753   7.922   5.361   2.103 -0.9345 -0.3380 -0.4952
   88MOL    C8043754   7.701   5.383   1.981 -0.0270  0.1348 -0.0604
   88MOL    O8143755   7.584   5.350   1.966 -0.0669 -0.0685 -0.1196
   88MOL    O8243756   7.779   5.445   1.890 -0.3082 -0.2941  0.0600
   88MOL    C8343757   7.721   5.489   1.766  0.1046  0.9589  0.3668
   88MOL    C8443758   7.809   5.588   1.693 -0.1649  0.1214 -0.6305
   88MOL    C8543759   7.895   5.668   1.763 -0.3172  0.0363 -0.0539
   88MOL    C8643760   7.952   5.779   1.701 -0.2453 -0.0381 -0.1907
   88MOL    C8743761   7.927   5.806   1.562 -0.8212  0.9862  0.7700
   88MOL    C8843762   7.849   5.712   1.493  0.5321  0.1544 -0.1212
   88MOL    C8943763   7.787   5.603   1.557  0.3751  0.4914 -0.0010
   88MOL    H9043764   7.838   5.502   2.268 -0.0177 -2.1937  0.2861
   88MOL    H9143765   7.777   5.588   2.131  0.6452  2.5535  2.4608
   88MOL    H9243766   7.940   5.297   2.016 -1.2350 -0.2300 -0.6420
   88MOL    H9343767   7.971   5.317   2.189 -1.7205  1.1350  0.7216
   88MOL    H9443768   7.976   5.454   2.084  1.1250 -1.7962 -1.9720
   88MOL    H9543769   7.711   5.402   1.702  0.6656 -0.1067  1.7126
   88MOL    H9643770   7.623   5.534   1.780 -0.8442 -1.1460  0.5798
   88MOL    H9743771   7.901   5.656   1.870 -0.6790  3.8054  0.4446
   88MOL    H9843772   0.014   5.837   1.761 -0.0758 -0.4838  0.0414
   88MOL    H9943773   7.965   5.899   1.522 -0.1976  0.0005 -0.9776
   88MOL   H10043774   7.840   5.728   1.387 -1.6208 -0.1707 -0.0069
   88MOL   H10143775   7.724   5.537   1.499 -0.5684  1.5482 -0.1759
   88MOL   C10243776   7.728   5.256   2.215  0.1346 -0.7871 -0.7839
   88MOL   C10343777   7.753   5.100   2.182  0.6254  0.1337 -0.3485
   88MOL   C10443778   7.721   5.063   2.035 -0.0191 -0.5460 -0.1435
   88MOL   C10543779   7.659   5.018   2.282  0.4206 -0.2085  0.0635
   88MOL   O10643780   7.561   4.943   2.241 -0.2972 -0.1054  0.2549
   88MOL   O10743781   7.676   5.046   2.410  0.9421 -0.6983  0.6278
   88MOL   C10843782   7.565   5.018   2.497 -0.0748 -0.1679 -0.0961
   88MOL   C10943783   7.580   5.080   2.635  0.8252 -0.4993  0.0951
   88MOL   C11043784   7.709   5.074   2.690  0.4183  0.5687 -0.6904
   88MOL   C11143785   7.732   5.128   2.819  0.5919 -0.0944  0.2754
   88MOL   C11243786   7.620   5.178   2.893 -0.2827 -0.0608  0.4133
   88MOL   C11343787   7.492   5.178   2.848  0.1833  0.3389 -0.5602
   88MOL   C11443788   7.473   5.130   2.713  0.4089 -0.0728 -0.1157
   88MOL   H11543789   7.621   5.259   2.233  0.5796 -1.3198  2.2346
   88MOL   H11643790   7.764   5.280   2.315 -2.1493 -0.7980  0.0672
   88MOL   H11743791   7.626   5.111   2.008  0.7009 -0.5414 -2.8073
   88MOL   H11843792   7.702   4.956   2.027  2.8628 -1.1360  0.3539
   88MOL   H11943793   7.793   5.075   1.954  1.1374 -3.4055  0.4386
   88MOL   H12043794   7.471   5.047   2.452  0.8488  2.0121 -0.6739
   88MOL   H12143795   7.550   4.911   2.512 -0.9878 -0.1815 -1.0990
   88MOL   H12243796   7.779   5.012   2.637  0.4052 -0.3553  0.3719
   88MOL   H12343797   7.834   5.127   2.853  0.4785  1.6553  0.7125
   88MOL   H12443798   7.636   5.229   2.986  1.0507  1.0486 -0.4016
   88MOL   H12543799   7.407   5.202   2.911 -0.1078 -1.4081 -0.2579
   88MOL   H12643800   7.373   5.142   2.674  0.4809  0.6780 -0.0768
   88MOL   C12743801   7.897   5.063   2.217 -0.0743  0.5505  0.5219
   88MOL   C12843802   7.957   4.917   2.246 -0.4527  0.2153 -0.1885
   88MOL   C12943803   7.912   4.874   2.386 -0.9202  0.4093 -0.0242
   88MOL   C13043804   0.100   4.938   2.246  0.7584 -0.1427  0.4085
   88MOL   O13143805   0.171   4.917   2.343  0.8575  0.4903 -0.4375
   88MOL   O13243806   0.146   4.983   2.126  0.4022  0.2265  0.2498
   88MOL   C13343807   0.279   5.020   2.110  0.6126  0.1470  0.9247
   88MOL   C13443808   0.301   5.166   2.121  0.6319  0.2131 -0.5545
   88MOL   C13543809   0.276   5.250   2.010 -0.1685 -0.8235  0.4715
   88MOL   C13643810   0.315   5.385   2.018  0.1459  0.4872  0.4307
   88MOL   C13743811   0.376   5.437   2.127  0.4428  0.0291  0.0046
   88MOL   C13843812   0.395   5.350   2.238  0.0709 -0.2021 -0.8863
   88MOL   C13943813   0.364   5.217   2.239 -0.2648 -0.1784  0.1071
   88MOL   H14043814   7.931   5.141   2.285  2.5409 -0.1142  0.0549
   88MOL   H14143815   7.951   5.103   2.130 -1.2593 -0.9949 -0.9591
   88MOL   H14243816   7.976   4.805   2.441  1.5354  1.4978 -1.4471
   88MOL   H14343817   7.811   4.833   2.382 -1.3786  1.4300  0.9433
   88MOL   H14443818   7.904   4.962   2.449  0.2780  0.7991 -0.4185
   88MOL   H14543819   0.342   4.962   2.177 -0.7676 -1.2763  1.0036
   88MOL   H14643820   0.310   4.994   2.009 -1.0150  2.0239 -0.0844
   88MOL   H14743821   0.235   5.212   1.917  2.7484 -1.5597 -0.5689
   88MOL   H14843822   0.294   5.450   1.934 -0.2777  1.3928  1.2290
   88MOL   H14943823   0.389   5.545   2.131 -2.8307  0.4364  1.4308
   88MOL   H15043824   0.440   5.397   2.325 -0.2400  0.6866 -1.2040
   88MOL   H15143825   0.383   5.156   2.326 -1.2068  1.4664  1.4971
   88MOL   C15243826   7.909   4.806   2.148  0.2455 -0.6312  0.1559
   88MOL   C15343827   7.972   4.661   2.133  0.9041 -0.4036  0.2646
   88MOL   C15443828   0.002   4.607   2.272 -1.0716 -0.2749 -0.0358
   88MOL   C15543829   0.089   4.678   2.039 -0.0047  0.5024  0.3725
   88MOL   O15643830   0.080   4.748   1.943  0.1991 -0.4180 -0.4153
   88MOL   O15743831   0.192   4.586   2.059 -0.3354 -0.2821 -0.2446
   88MOL   C15843832   0.284   4.567   1.948 -0.0277  0.0016 -0.0956
   88MOL   C15943833   0.406   4.659   1.946 -0.2432  0.0952 -0.2824
   88MOL   C16043834   0.432   4.734   1.829  0.4649  0.0962 -0.5646
   88MOL   C16143835   0.529   4.833   1.830 -0.3993 -0.2041  0.4375
   88MOL   C16243836   0.624   4.827   1.936  0.2895  0.0196  0.3928
   88MOL   C16343837   0.608   4.747   2.052  0.5339 -0.1242 -0.3435
   88MOL   C16443838   0.494   4.668   2.060  0.5127 -1.5624 -0.5863
   88MOL   H16543839   7.900   4.846   2.047 -1.8324  1.2781  1.0482
   88MOL   H16643840   7.805   4.796   2.180  0.4893  1.5535  1.6964
   88MOL   H16743841   7.915   4.591   2.324 -0.6164  0.9658  1.2295
   88MOL   H16843842   0.070   4.672   2.328  0.9615 -1.4703 -1.0664
   88MOL   H16943843   0.053   4.512   2.258  0.0380  0.5497 -1.7886
   88MOL   H17043844   0.325   4.467   1.938  0.8112  0.1716  1.4365
   88MOL   H17143845   0.226   4.579   1.857  1.9616 -0.1400 -1.4161
   88MOL   H17243846   0.354   4.736   1.754  0.3881  0.3313 -0.4795
   88MOL   H17343847   0.532   4.902   1.747  0.1726  0.8012  1.2877
   88MOL   H17443848   0.703   4.899   1.923 -0.1227  0.5615  0.8341
   88MOL   H17543849   0.685   4.747   2.128 -0.8155  0.6985  1.0482
   88MOL   H17643850   0.486   4.601   2.144  0.1228 -0.7408  0.0287
   88MOL   C17743851   7.845   4.585   2.079 -0.7935  0.1992 -0.0843
   88MOL   C17843852   7.857   4.454   1.993 -0.1546  0.5931 -0.3192
   88MOL   C17943853   7.943   4.344   2.064  0.6618 -0.1366  0.4418
   88MOL   C18043854   7.917   4.471   1.851  0.3063 -0.3867  0.0019
   88MOL   O18143855   7.943   4.369   1.779  0.0795  0.2725 -0.1204
   88MOL   O18243856   7.913   4.602   1.799 -0.5383 -0.1783 -0.0064
   88MOL   C18343857   7.938   4.620   1.664  0.4379 -0.3054 -0.4902
   88MOL   C18443858   7.863   4.737   1.613  0.7790 -0.0801  0.0405
   88MOL   C18543859   7.816   4.722   1.483  0.3678 -0.9862  0.1595
   88MOL   C18643860   7.735   4.828   1.430 -0.0664  0.0620 -0.3720
   88MOL   C18743861   7.709   4.942   1.503  0.5713 -0.0607  0.2002
   88MOL   C18843862   7.754   4.955   1.636  0.2835  0.1002  0.0733
   88MOL   C18943863   7.834   4.857   1.692  0.3121  0.6365  0.1632
   88MOL   H19043864   7.788   4.651   2.013 -0.8682 -0.0885 -0.3105
   88MOL   H19143865   7.775   4.557   2.158  2.5422  0.1725  2.9870
   88MOL   H19243866   0.038   4.377   2.080  0.2960  1.6980 -0.8170
   88MOL   H19343867   7.940   4.252   2.006 -0.1026 -0.4830  1.0218
   88MOL   H19443868   7.892   4.324   2.158  0.8592 -0.4476  0.4808
   88MOL   H19543869   0.034   4.644   1.640  0.7149 -1.7932 -0.8642
   88MOL   H19643870   7.906   4.539   1.598 -2.9030  0.4170  0.1231
   88MOL   H19743871   7.835   4.636   1.421  1.0132 -0.3172 -0.5755
   88MOL   H19843872   7.690   4.824   1.332 -1.5516 -2.1573  0.3678
   88MOL   H19943873   7.668   5.029   1.453  1.4251  0.6859  0.7778
   88MOL   H20043874   7.722   5.042   1.691 -0.6522  0.0697 -0.4210
   88MOL   H20143875   7.868   4.866   1.794  0.9831 -0.0767  0.0040
   88MOL   C20243876   7.714   4.381   1.989  0.0230 -0.2483  1.0701
   88MOL   C20343877   7.587   4.444   1.919 -1.0797 -0.3546  0.3876
   88MOL   C20443878   7.608   4.477   1.768 -0.1275 -0.3944 -0.5814
   88MOL   C20543879   7.541   4.567   2.002 -0.1845  0.2286  0.4377
   88MOL   O20643880   7.542   4.685   1.968 -0.4541  0.6468 -0.2792
   88MOL   O20743881   7.504   4.527   2.127 -0.4133 -0.0009  0.6037
   88MOL   C20843882   7.450   4.619   2.219 -0.7513  0.2863  0.2432
   88MOL   C20943883   7.426   4.551   2.352 -0.3020 -0.2067 -0.1562
   88MOL   C21043884   7.336   4.442   2.358  0.8669  0.0936 -0.0485
   88MOL   C21143885   7.307   4.378   2.479  0.3085  0.1923  0.1311
   88MOL   C21243886   7.361   4.426   2.596 -0.7194 -0.0456 -0.1425
   88MOL   C21343887   7.451   4.539   2.597  0.0435  0.0651 -0.2370
   88MOL   C21443888   7.492   4.599   2.473 -0.1145  0.4566  0.1444
   88MOL   H21543889   7.683   4.314   2.069  0.7814 -0.8424  0.8790
   88MOL   H21643890   7.739   4.300   1.920 -1.7470  0.3309 -0.2655
   88MOL   H21743891   7.524   4.477   1.698 -3.0758  1.7191  2.7787
   88MOL   H21843892   7.666   4.397   1.723  3.3310  0.3709  2.3509
   88MOL   H21943893   7.666   4.568   1.757 -0.9712  0.5341  2.2483
   88MOL   H22043894   7.517   4.705   2.224 -0.6282  0.0848  3.0144
   88MOL   H22143895   7.357   4.643   2.168 -0.8807 -3.9865 -1.7655
   88MOL   H22243896   7.294   4.403   2.266  0.8981 -0.2226  0.0720
   88MOL   H22343897   7.245   4.290   2.487 -0.6272  0.9335  1.1505
   88MOL   H22443898   7.338   4.387   2.694  2.6850  0.0414  0.7582
   88MOL   H22543899   7.481   4.575   2.694  1.4899  0.6616 -0.8814
   88MOL   H22643900   7.555   4.687   2.476  0.9077 -0.3224  1.9840
   88MOL   C22743901   7.467   4.337   1.927 -0.7387  0.9702 -0.7174
   88MOL   C22843902   7.325   4.358   1.869  0.3807  0.5569 -0.0650
   88MOL   C22943903   7.282   4.512   1.843  0.0969  0.4497 -0.1586
   88MOL   C23043904   7.227   4.291   1.969 -0.5684  0.3534  0.3028
   88MOL   O23143905   7.123   4.347   2.007 -0.0728  0.1133 -0.9129
   88MOL   O23243906   7.266   4.174   2.010 -0.0389 -0.6179  0.0284
   88MOL   C23343907   7.193   4.098   2.106  0.1421  0.4508  0.7705
   88MOL   C23443908   7.227   3.947   2.082 -0.3511  0.3375 -0.7672
   88MOL   C23543909   7.240   3.869   2.198  0.0851 -0.0372 -0.1309
   88MOL   C23643910   7.259   3.733   2.197  0.3131 -0.2430  0.2274
   88MOL   C23743911   7.268   3.664   2.072  0.0257  0.2994 -0.1662
   88MOL   C23843912   7.255   3.742   1.951 -0.4733 -0.0320  0.5084
   88MOL   C23943913   7.241   3.882   1.956 -0.0146  0.5685  0.4123
   88MOL   H24043914   7.464   4.298   2.029 -1.1898 -1.2497 -1.5621
   88MOL   H24143915   7.510   4.248   1.880 -1.3529 -0.1374  0.7707
   88MOL   H24243916   7.349   4.572   1.781 -2.4143  2.9493 -0.5346
   88MOL   H24343917   7.290   4.565   1.937  0.4849 -0.3849  0.2903
   88MOL   H24443918   7.180   4.529   1.810 -0.7863 -2.5410  0.9145
   88MOL   H24543919   7.214   4.133   2.207  0.7018 -1.4312  1.3308
   88MOL   H24643920   7.085   4.093   2.091  0.3320  0.1092 -0.4736
   88MOL   H24743921   7.228   3.920   2.292 -3.3478 -0.5720 -0.2036
   88MOL   H24843922   7.282   3.676   2.286  0.8053 -1.7049 -0.8274
   88MOL   H24943923   7.285   3.558   2.072  0.6904  0.3934 -1.0279
   88MOL   H25043924   7.274   3.694   1.856 -0.7556 -0.3081  0.5900
   88MOL   H25143925   7.228   3.936   1.864  0.9162  0.2621  0.0943
   88MOL   C25243926   7.328   4.281   1.732 -0.1573  0.2140 -0.4509
   88MOL   C25343927   7.231   4.320   1.611 -0.3848 -0.0065 -0.9412
   88MOL   C25443928   7.293   4.446   1.530 -0.2963  0.0835  0.0592
   88MOL   C25543929   7.087   4.351   1.658 -0.9906  0.0146  0.8528
   88MOL   O25643930   7.026   4.450   1.618 -0.1464  0.8145 -0.2278
   88MOL   O25743931   7.026   4.257   1.735  0.4219  0.0428  0.0004
   88MOL   C25843932   6.891   4.268   1.785 -0.2743 -0.0655  0.1479
   88MOL   C25943933   6.855   4.165   1.894 -0.4639 -0.0401  0.1150
   88MOL   C26043934   6.767   4.205   1.992  0.4430 -0.1444  0.2529
   88MOL   C26143935   6.727   4.117   2.096 -0.3362 -0.3899 -0.2577
   88MOL   C26243936   6.776   3.989   2.099  0.8867 -0.3400 -0.3609
   88MOL   C26343937   6.868   3.951   2.003 -1.3484  0.2229  0.0547
   88MOL   C26443938   6.906   4.033   1.898 -0.8073 -0.8791  0.5525
   88MOL   H26543939   7.313   4.176   1.759  0.5893 -0.1240 -1.3244
   88MOL   H26643940   7.429   4.279   1.692  0.5410  0.2747  1.2922
   88MOL   H26743941   7.279   4.538   1.585 -1.7361 -0.6802  0.9911
   88MOL   H26843942   7.250   4.452   1.430 -0.9629  0.5548  0.3708
   88MOL   H26943943   7.402   4.440   1.525 -0.2161  1.1257  0.5497
   88MOL   H27043944   6.870   4.374   1.801 -1.6048 -0.3330  0.2256
   88MOL   H27143945   6.835   4.247   1.694 -0.8155 -0.8583  0.6590
   88MOL   H27243946   6.742   4.309   1.995  1.2297  0.0301  0.9572
   88MOL   H27343947   6.679   4.161   2.183 -1.1912 -1.6911 -0.0674
   88MOL   H27443948   6.742   3.933   2.184 -2.0374  0.1697 -1.1438
   88MOL   H27543949   6.906   3.852   2.023 -0.0687  0.5901 -0.4985
   88MOL   H27643950   6.985   4.003   1.831  0.9260  1.0069  1.6912
   88MOL   C27743951   7.241   4.191   1.512  0.3403  0.0081 -0.0139
   88MOL   C27843952   7.138   4.153   1.391 -0.4287 -0.2831  0.9944
   88MOL   C27943953   7.108   4.280   1.303  0.2072 -0.1618 -0.0256
   88MOL   C28043954   7.005   4.108   1.454  0.1122 -0.0883  0.1212
   88MOL   O28143955   6.997   4.044   1.555  0.2197 -0.0864  0.3146
   88MOL   O28243956   6.899   4.125   1.371  0.6282 -0.4009  0.4609
   88MOL   C28343957   6.762   4.105   1.409 -0.4576 -0.2212  0.4047
   88MOL   C28443958   6.686   4.211   1.330  0.0557  0.2495  0.2491
   88MOL   C28543959   6.557   4.176   1.272  0.1261  0.4507  0.7033
   88MOL   C28643960   6.481   4.268   1.198  0.1804  0.2090  0.4848
   88MOL   C28743961   6.539   4.396   1.177  0.9575 -0.5201 -0.2260
   88MOL   C28843962   6.665   4.432   1.233 -0.8450 -0.1150 -0.3061
   88MOL   C28943963   6.737   4.338   1.306  0.0927 -0.8198  0.9527
   88MOL   H29043964   7.262   4.103   1.573  0.4097  1.5440  2.2483
   88MOL   H29143965   7.341   4.208   1.471  0.4236 -0.7617 -0.1345
   88MOL   H29243966   7.029   4.254   1.233 -0.9248 -1.0734  1.5854
   88MOL   H29343967   7.201   4.321   1.261  0.5345 -0.4914  0.3734
   88MOL   H29443968   7.063   4.357   1.366  0.1110  0.3212 -0.6793
   88MOL   H29543969   6.735   4.012   1.360 -0.4673  0.8414 -1.7074
   88MOL   H29643970   6.734   4.101   1.514 -4.1229 -0.5130 -0.5246
   88MOL   H29743971   6.521   4.076   1.288  2.2514 -0.5043 -0.2472
   88MOL   H29843972   6.389   4.243   1.147  0.1228  0.1410  0.6202
   88MOL   H29943973   6.485   4.469   1.118 -1.8401 -0.9707  1.6684
   88MOL   H30043974   6.703   4.531   1.214  2.2261 -1.4466 -1.2756
   88MOL   H30143975   6.833   4.361   1.350 -0.2111 -0.9224  1.6863
   88MOL   C30243976   7.189   4.042   1.299 -1.2836 -0.1666  0.0650
   88MOL   C30343977   7.264   3.911   1.335  0.4209 -0.1947  0.6394
   88MOL   C30443978   7.204   3.841   1.459 -0.0323  0.2454  0.0705
   88MOL   C30543979   7.410   3.951   1.379  0.4481 -1.0704  0.0884
   88MOL   O30643980   7.466   3.912   1.481 -0.1306  0.6202  0.0111
   88MOL   O30743981   7.472   4.011   1.275  0.0790  0.6073 -0.8942
   88MOL   C30843982   7.609   4.051   1.294 -0.2983 -0.6453 -0.8069
   88MOL   C30943983   7.616   4.202   1.287  0.1453  0.0294 -0.6806
   88MOL   C31043984   7.656   4.281   1.398 -0.9924  0.7104 -0.1772
   88MOL   C31143985   7.672   4.422   1.398  0.1348 -0.2197  0.8386
   88MOL   C31243986   7.641   4.490   1.280 -0.5966 -0.4398 -0.1220
   88MOL   C31343987   7.615   4.417   1.160  0.1474 -0.1121 -0.5199
   88MOL   C31443988   7.599   4.277   1.165  0.6824 -0.2048  0.6325
   88MOL   H31543989   7.264   4.085   1.233  0.5960 -1.3864  1.3519
   88MOL   H31643990   7.102   4.016   1.239  0.7121 -1.9139 -2.1830
   88MOL   H31743991   7.217   3.901   1.549 -1.3109  0.6467 -0.0028
   88MOL   H31843992   7.234   3.738   1.479  0.5639  0.0474 -1.7778
   88MOL   H31943993   7.098   3.822   1.440  0.6581 -1.5447 -2.3572
   88MOL   H32043994   7.659   4.010   1.382 -0.5897 -0.3703 -0.5121
   88MOL   H32143995   7.669   4.021   1.208  0.3226 -2.1988  0.1454
   88MOL   H32243996   7.659   4.231   1.493  0.0513 -0.6871 -0.9343
   88MOL   H32343997   7.707   4.481   1.482  0.9584  0.5459 -0.0244
   88MOL   H32443998   7.640   4.597   1.261 -2.6114 -0.9729 -3.2598
   88MOL   H32543999   7.603   4.476   1.070  1.2245 -0.6640 -1.0250
   88MOL   H32644000   7.570   4.222   1.076  2.6149  2.2290 -1.5856
   88MOL   C32744001   7.279   3.798   1.225  0.0868  0.5501 -1.0171
   88MOL   C32844002   7.181   3.715   1.138 -0.3636  0.7154  0.4136
   88MOL   C32944003   7.140   3.815   1.028  0.5465  0.4551 -0.0910
   88MOL   C33044004   7.056   3.664   1.228  0.2280 -0.9638 -0.4265
   88MOL   O33144005   6.948   3.728   1.223 -0.5314 -0.2982  0.0343
   88MOL   O33244006   7.082   3.563   1.311 -0.0742 -0.6280 -0.1426
   88MOL   C33344007   6.993   3.541   1.418 -0.0685 -0.0782  0.2966
   88MOL   C33444008   7.043   3.425   1.501 -0.1805 -0.0472 -0.1226
   88MOL   C33544009   7.074   3.453   1.637 -0.3302  0.0441 -0.2077
   88MOL   C33644010   7.114   3.348   1.730 -0.7463 -0.2563 -0.1500
   88MOL   C33744011   7.112   3.215   1.685  0.0713 -0.2226  0.0451
   88MOL   C33844012   7.070   3.188   1.552 -0.4477  0.3787  0.6993
   88MOL   C33944013   7.034   3.288   1.458  0.1693  0.4667 -0.3586
   88MOL   H34044014   7.330   3.715   1.274 -0.0560  1.7568  1.2512
   88MOL   H34144015   7.344   3.848   1.153 -0.9875  2.0714 -0.9531
   88MOL   H34244016   7.086   3.899   1.071 -0.0509  0.0497 -0.0593
   88MOL   H34344017   7.058   3.781   0.965 -1.0023  1.0819  1.5638
   88MOL   H34444018   7.224   3.858   0.972 -0.4358  0.2898 -1.7225
   88MOL   H34544019   6.987   3.633   1.477  2.5362  0.7042 -0.5761
   88MOL   H34644020   6.897   3.518   1.372  0.0974 -2.8600  1.2461
   88MOL   H34744021   7.075   3.554   1.676 -3.8058  0.0763 -0.0797
   88MOL   H34844022   7.148   3.372   1.830  2.1739 -1.1431 -0.8826
   88MOL   H34944023   7.146   3.134   1.748  0.4456  0.4743  0.7537
   88MOL   H35044024   7.046   3.087   1.523 -1.6717  0.6347  0.8134
   88MOL   H35144025   6.994   3.271   1.360  1.0630 -0.0147 -0.6408
   88MOL   C35244026   7.252   3.590   1.072  0.9832  0.1833  0.3326
   88MOL   C35344027   7.178   3.501   0.956 -0.0356  0.5844 -0.0211
   88MOL   C35444028   7.024   3.474   0.989  0.2317  0.2498  0.0334
   88MOL   C35544029   7.252   3.361   0.959  0.2202  0.0150  0.4381
   88MOL   O35644030   7.329   3.328   0.867  0.0834 -0.4827 -0.1939
   88MOL   O35744031   7.232   3.281   1.074  0.1830  0.2512  0.1652
   88MOL   C35844032   7.295   3.152   1.093  0.1706  0.4025 -0.5553
   88MOL   C35944033   7.213   3.043   1.156 -0.0080 -0.0550 -0.5022
   88MOL   C36044034   7.269   2.919   1.207 -0.4262 -0.2909  0.3061
   88MOL   C36144035   7.184   2.830   1.272 -0.3014  0.2283  0.3443
   88MOL   C36244036   7.050   2.857   1.291 -0.1183  0.4199 -0.2646
   88MOL   C36344037   6.995   2.977   1.240 -0.3517  0.1858  0.1332
   88MOL   C36444038   7.074   3.071   1.171 -0.0370 -0.5255  0.2089
   88MOL   H36544039   7.280   3.531   1.160 -3.1056  2.2708  3.2170
   88MOL   H36644040   7.351   3.625   1.041  1.7138  2.9521  5.2436
   88MOL   H36744041   6.961   3.563   0.985  0.6890  0.5965  0.4543
   88MOL   H36844042   7.020   3.441   1.092  1.2397  0.8616  0.2765
   88MOL   H36944043   6.984   3.395   0.926 -0.7577  0.6654  0.1337
   88MOL   H37044044   7.316   3.111   0.995  2.6725  0.7718 -0.1942
   88MOL   H37144045   7.387   3.158   1.151 -0.2308 -0.2264  0.1540
   88MOL   H37244046   7.369   2.885   1.185  1.7431  4.2562  2.4591
   88MOL   H37344047   7.220   2.736   1.311 -2.2803 -0.4244  0.6405
   88MOL   H37444048   6.980   2.791   1.340 -0.6840  0.9892 -0.2985
   88MOL   H37544049   6.888   2.991   1.247 -0.3118 -0.1953  1.5354
   88MOL   H37644050   7.035   3.167   1.140  3.5531  0.7038 -0.8173
   88MOL   C37744051   7.198   3.572   0.821  0.2719  0.3516  0.1836
   88MOL   C37844052   7.108   3.535   0.692  0.0606 -0.1338  0.0810
   88MOL   C37944053   7.211   3.581   0.580 -0.2273  0.0967  0.1255
   88MOL   C38044054   6.987   3.635   0.682  0.4925 -0.3803  0.4146
   88MOL   O38144055   6.979   3.727   0.596 -0.5263  0.0718  0.2805
   88MOL   O38244056   6.880   3.598   0.760  0.1177 -0.2203 -0.1182
   88MOL   C38344057   6.749   3.653   0.739  0.1244 -0.1870  0.0687
   88MOL   C38444058   6.731   3.788   0.796 -0.0910 -0.2644 -0.0023
   88MOL   C38544059   6.750   3.808   0.938 -0.3533  0.0128  0.1010
   88MOL   C38644060   6.718   3.932   0.993  0.2199  0.4384  0.0011
   88MOL   C38744061   6.663   4.036   0.922  0.2066  0.8632 -0.4638
   88MOL   C38844062   6.650   4.020   0.784  0.4017 -0.4007  0.8614
   88MOL   C38944063   6.692   3.899   0.724  0.2379  0.3019  1.1097
   88MOL   H39044064   7.302   3.556   0.792  0.1103 -0.1291 -0.1319
   88MOL   H39144065   7.203   3.680   0.832 -1.0128  0.3587  0.7335
   88MOL   H39244066   7.256   3.679   0.598  0.1398 -0.0514  0.0166
   88MOL   H39344067   7.160   3.571   0.484 -0.4901 -1.5184  0.4259
   88MOL   H39444068   7.289   3.505   0.575 -0.9191 -0.4893 -2.5714
   88MOL   H39544069   6.709   3.655   0.638 -0.9271  0.2434  0.4859
   88MOL   H39644070   6.674   3.593   0.791  0.1137  0.4420  0.7868
   88MOL   H39744071   6.783   3.726   0.999 -0.2949 -1.8611 -2.4036
   88MOL   H39844072   6.722   3.941   1.101 -2.0417 -0.8234  0.2309
   88MOL   H39944073   6.637   4.131   0.968 -2.3945 -0.3172  0.6191
   88MOL   H40044074   6.635   4.107   0.722  0.8129  0.4299  1.9179
   88MOL   H40144075   6.674   3.892   0.618  0.0662  0.8940  1.0955
   88MOL   C40244076   7.085   3.373   0.666 -0.8279 -0.0230  0.5581
   88MOL   C40344077   6.981   3.313   0.569  0.2766 -0.3467  0.6347
   88MOL   C40444078   6.988   3.377   0.428 -0.5152  0.1169 -0.0320
   88MOL   C40544079   6.836   3.328   0.627 -0.0640 -0.0501 -0.5005
   88MOL   O40644080   6.749   3.384   0.564  0.1956  0.0797  0.2380
   88MOL   O40744081   6.817   3.269   0.749  0.4255  0.0337  0.5326
   88MOL   C40844082   6.688   3.246   0.799 -0.1668  0.0949  0.1115
   88MOL   C40944083   6.677   3.103   0.842  0.1360  1.0460  0.3418
   88MOL   C41044084   6.789   3.025   0.887  0.2149  0.2241 -0.2675
   88MOL   C41144085   6.778   2.890   0.922 -0.3350  0.2201 -0.0142
   88MOL   C41244086   6.652   2.825   0.921 -0.6529 -0.6276  0.0625
   88MOL   C41344087   6.539   2.903   0.889  0.1242  0.1932 -0.0944
   88MOL   C41444088   6.553   3.036   0.857  0.6680  0.0535  0.6359
   88MOL   H41544089   7.077   3.321   0.762 -0.3963  1.6261  1.5023
   88MOL   H41644090   7.182   3.336   0.632  0.6348  1.6918  2.7348
   88MOL   H41744091   6.958   3.482   0.437 -0.6144 -0.0537  1.9125
   88MOL   H41844092   6.926   3.329   0.352  0.8865  0.7402 -1.6065
   88MOL   H41944093   7.089   3.370   0.389 -0.3878  3.5010 -0.4359
   88MOL   H42044094   6.663   3.320   0.876 -0.7377 -1.4654  1.4556
   88MOL   H42144095   6.612   3.259   0.722  0.0485 -0.5263 -0.2074
   88MOL   H42244096   6.890   3.063   0.888  0.3213 -0.0788  0.3639
   88MOL   H42344097   6.860   2.821   0.926 -1.0488 -0.7760 -1.6918
   88MOL   H42444098   6.646   2.719   0.941  1.7490 -0.9110 -0.5876
   88MOL   H42544099   6.445   2.853   0.874  0.4857 -1.3002  2.2535
   88MOL   H42644100   6.467   3.090   0.822  0.2378 -1.2576 -0.3861
   88MOL   C42744101   7.021   3.161   0.551 -0.4667  0.1562 -0.3980
   88MOL   C42844102   6.951   3.053   0.452 -0.1241  0.4438  0.0731
   88MOL   C42944103   7.015   2.924   0.497 -0.1739  0.4967  0.0468
   88MOL   C43044104   6.982   3.076   0.302  0.1971  0.8796 -0.2160
   88MOL   O43144105   6.908   3.122   0.218 -0.2272 -0.1546  0.4492
   88MOL   O43244106   7.113   3.043   0.274  0.3864  0.3884 -1.0195
   88MOL   C43344107   7.164   3.093   0.159 -0.2320  0.1704 -0.1830
   88MOL   C43444108   7.310   3.076   0.171 -0.4018 -0.4398  0.3365
   88MOL   C43544109   7.383   3.106   0.290  0.0747 -0.7156  0.9741
   88MOL   C43644110   7.522   3.085   0.296  0.1619  0.0952  0.1816
   88MOL   C43744111   7.585   3.032   0.184  0.2300  0.5616  0.7602
   88MOL   C43844112   7.517   3.013   0.062 -0.0540 -0.3890 -0.1878
   88MOL   C43944113   7.379   3.040   0.059  0.1197 -0.0610 -0.0341
   88MOL   H44044114   6.997   3.109   0.643 -0.3885 -0.1224 -0.5356
   88MOL   H44144115   7.129   3.153   0.542 -0.3695  0.1935  0.7028
   88MOL   H44244116   7.122   2.927   0.519 -0.1877  0.0387  0.1761
   88MOL   H44344117   6.999   2.848   0.421 -1.8357 -1.1960  2.0182
   88MOL   H44444118   6.973   2.881   0.588 -0.6316  1.6907  0.4101
   88MOL   H44544119   7.118   3.050   0.070  1.4396  0.6110 -1.2803
   88MOL   H44644120   7.142   3.200   0.162 -1.2042  0.0001 -0.9228
   88MOL   H44744121   7.340   3.146   0.380 -1.4235  0.7175 -0.3470
   88MOL   H44844122   7.576   3.105   0.388  0.1646 -1.4069  0.5345
   88MOL   H44944123   7.688   2.999   0.181  0.0153  0.0141 -0.8710
   88MOL   H45044124   7.555   2.962   7.982 -0.7207  1.0271 -1.3328
   88MOL   H45144125   7.324   3.016   7.976  2.2893 -1.8174 -0.9458
   88MOL   C45244126   6.790   3.067   0.479 -1.2257 -0.0038  0.2728
   88MOL   C45344127   6.681   2.959   0.441 -0.0271 -0.3749  0.4543
   88MOL   C45444128   6.683   2.852   0.558  0.3344 -0.2212  0.5091
   88MOL   C45544129   6.717   2.887   0.306 -0.1975 -0.0333 -0.4725
   88MOL   O45644130   6.769   2.777   0.313 -0.0927 -0.1273 -0.8140
   88MOL   O45744131   6.694   2.960   0.196 -0.0514 -0.4035  0.7852
   88MOL   C45844132   6.729   2.921   0.064 -0.1226  0.3426  0.1104
   88MOL   C45944133   6.614   2.954   7.979 -1.0171  0.2380  0.2367
   88MOL   C46044134   6.553   2.855   7.896 -0.2398 -0.1228 -0.2522
   88MOL   C46144135   6.462   2.899   7.796  0.2530 -0.1812 -1.1127
   88MOL   C46244136   6.431   3.032   7.771  0.2985  0.4780 -0.3992
   88MOL   C46344137   6.494   3.126   7.853  0.0394  0.4363  0.3795
   88MOL   C46444138   6.584   3.091   7.952  0.7251 -0.3730 -0.1069
   88MOL   H46544139   6.767   3.164   0.435 -2.2511  0.2411  1.3324
   88MOL   H46644140   6.781   3.082   0.587 -0.5205 -0.5720  0.4122
   88MOL   H46744141   6.779   2.807   0.582 -0.5506 -2.6585 -0.4271
   88MOL   H46844142   6.631   2.761   0.528  0.5033  0.5759 -2.3203
   88MOL   H46944143   6.642   2.892   0.651 -0.0906  0.1774  0.1544
   88MOL   H47044144   6.823   2.963   0.027  1.3590 -1.4106  1.7824
   88MOL   H47144145   6.740   2.812   0.060  1.8722  0.5195  0.2828
   88MOL   H47244146   6.587   2.752   7.900  1.8184  0.4916 -1.1814
   88MOL   H47344147   6.422   2.824   7.729  0.2908  0.4002 -1.7941
   88MOL   H47444148   6.361   3.051   7.691 -0.6842 -2.1531 -0.2074
   88MOL   H47544149   6.494   3.232   7.832  1.6585  0.4382  0.3413
   88MOL   H47644150   6.634   3.168   0.003 -1.6272  0.8533  0.3236
   88MOL   C47744151   6.540   3.028   0.428 -0.3877 -0.8639  0.2814
   88MOL   C47844152   6.430   2.937   0.371  0.7766 -0.0406 -0.4351
   88MOL   C47944153   6.309   3.022   0.326 -0.1863  0.3835  1.2329
   88MOL   C48044154   6.363   2.837   0.475 -0.4739 -0.4625  0.7424
   88MOL   O48144155   6.305   2.884   0.577  0.6640 -0.2379  0.3018
   88MOL   O48244156   6.395   2.707   0.456  0.1993  0.2085  0.4808
   88MOL   C48344157   6.346   2.605   0.551 -0.7237  0.3639 -0.1262
   88MOL   C48444158   6.283   2.482   0.490 -0.5837  0.5306 -0.3333
   88MOL   C48544159   6.177   2.503   0.405 -0.6591  0.4084  0.2466
   88MOL   C48644160   6.109   2.399   0.347  0.1013  0.1415 -0.6589
   88MOL   C48744161   6.163   2.270   0.372 -0.0868 -0.1314 -0.0978
   88MOL   C48844162   6.269   2.240   0.457 -0.2012  1.0815 -0.8038
   88MOL   C48944163   6.316   2.352   0.524 -0.7157  0.2662 -0.5994
   88MOL   H49044164   6.539   3.125   0.377 -0.1948 -0.9670  0.0787
   88MOL   H49144165   6.528   3.062   0.531  0.2344  0.2945 -0.0103
   88MOL   H49244166   6.270   3.098   0.394 -1.5983 -0.1180  1.0085
   88MOL   H49344167   6.227   2.954   0.304  0.6293 -0.7737  1.7126
   88MOL   H49444168   6.324   3.073   0.230  1.1561 -0.3965  1.0266
   88MOL   H49544169   6.422   2.564   0.618  1.4557  2.2627 -1.3652
   88MOL   H49644170   6.266   2.644   0.614  0.8988  1.3308  1.3882
   88MOL   H49744171   6.152   2.605   0.381  1.1829  0.9663  0.6183
   88MOL   H49844172   6.013   2.416   0.302  0.7813  0.1583 -2.1145
   88MOL   H49944173   6.116   2.187   0.322  0.7844  0.1684 -1.4444
   88MOL   H50044174   6.293   2.137   0.479 -0.2388  0.9289 -1.4726
   88MOL   H50144175   6.386   2.352   0.607 -0.7093 -0.9238 -0.5995
   88MOL   H50244176   6.469   2.892   0.280 -0.3534 -1.8565 -0.0402
   89MOL     C144177   5.014   3.374   1.184 -1.2164  0.2956  0.3209
   89MOL     C244178   5.103   3.331   1.308  0.3502  0.1238 -0.2416
   89MOL     C344179   5.015   3.354   1.429  0.4202  0.2655 -0.0586
   89MOL     C444180   5.223   3.418   1.323 -0.6553  0.5416 -0.2510
   89MOL     O544181   5.330   3.374   1.363  0.1446  0.1531 -0.1548
   89MOL     O644182   5.199   3.550   1.314  0.4837  0.1513  0.5315
   89MOL     C744183   5.298   3.648   1.350 -0.1125 -0.1153  0.0454
   89MOL     C844184   5.244   3.766   1.420  0.3730 -0.5113 -0.1292
   89MOL     C944185   5.250   3.891   1.358  0.2875 -0.0473  0.7098
   89MOL    C1044186   5.208   4.006   1.414  0.4992 -0.4809  0.3378
   89MOL    C1144187   5.134   4.002   1.534 -0.3508 -0.0862  0.3056
   89MOL    C1244188   5.128   3.880   1.603  0.0171  0.1504 -0.3629
   89MOL    C1344189   5.190   3.763   1.549 -0.0927 -0.1715  0.5120
   89MOL    H1444190   4.993   3.481   1.188 -1.7696  0.2028 -0.1150
   89MOL    H1544191   5.077   3.352   1.098  0.0111 -0.4477  1.3988
   89MOL    H1644192   4.967   3.451   1.441  0.2513  0.3513 -1.4018
   89MOL    H1744193   5.074   3.361   1.521  1.8523 -0.0745 -0.9359
   89MOL    H1844194   4.944   3.275   1.456  0.1038  0.1367 -1.2450
   89MOL    H1944195   5.372   3.603   1.416 -0.8816 -1.2632  0.1430
   89MOL    H2044196   5.352   3.687   1.264 -1.0075  2.2751  0.5191
   89MOL    H2144197   5.309   3.904   1.269 -0.2749  1.6248  0.5600
   89MOL    H2244198   5.225   4.101   1.366 -0.4760 -0.6517 -0.3622
   89MOL    H2344199   5.089   4.090   1.576  0.1674  1.0851 -1.5148
   89MOL    H2444200   5.089   3.897   1.702  2.8998 -0.2350  0.8853
   89MOL    H2544201   5.192   3.669   1.603  3.2762  0.1863  1.1226
   89MOL    H2644202   4.916   3.325   1.183 -1.2779  0.3899  1.0964
   89MOL    C2744203   5.142   3.180   1.310 -0.0995 -0.0407 -0.3950
   89MOL    C2844204   5.189   3.094   1.182  0.6019 -0.0040 -0.0842
   89MOL    C2944205   5.294   3.177   1.107 -1.1032 -0.1342  0.2415
   89MOL    C3044206   5.063   3.063   1.092 -0.4185  0.6537 -0.0697
   89MOL    O3144207   5.060   3.097   0.975  0.2418  0.2596  0.0153
   89MOL    O3244208   4.963   2.987   1.145  0.3639  0.4966 -0.2417
   89MOL    C3344209   4.853   2.948   1.072  0.3450 -0.1583  0.0522
   89MOL    C3444210   4.779   2.831   1.133 -0.2703 -0.1251 -0.1666
   89MOL    C3544211   4.828   2.778   1.257  0.2558 -0.0626 -0.2049
   89MOL    C3644212   4.750   2.673   1.319 -0.0468 -0.0171  0.8924
   89MOL    C3744213   4.637   2.619   1.255 -0.3797 -0.8294 -0.2929
   89MOL    C3844214   4.590   2.673   1.136 -0.0079  0.2538 -0.0930
   89MOL    C3944215   4.654   2.785   1.084 -0.3958 -0.1376  0.0740
   89MOL    H4044216   5.054   3.127   1.347 -0.8419  1.0858 -0.5417
   89MOL    H4144217   5.219   3.169   1.386  0.6280 -1.4028 -1.3173
   89MOL    H4244218   5.352   3.131   1.027  0.3810  0.4768  0.9590
   89MOL    H4344219   5.358   3.204   1.191 -0.5614  1.9318 -0.8113
   89MOL    H4444220   5.259   3.266   1.056  2.1459  1.5443  0.7874
   89MOL    H4544221   4.781   3.028   1.057  1.0887  0.3400 -0.8862
   89MOL    H4644222   4.872   2.924   0.968 -0.9970  0.2352 -0.2997
   89MOL    H4744223   4.926   2.801   1.295 -0.2742  1.4080  0.2850
   89MOL    H4844224   4.782   2.614   1.403 -2.1927 -0.1810  1.6193
   89MOL    H4944225   4.599   2.528   1.300 -2.6963  0.6349  0.8003
   89MOL    H5044226   4.501   2.636   1.088  0.0525  2.6176 -2.0605
   89MOL    H5144227   4.614   2.838   0.999 -3.3411  1.4308  2.3503
   89MOL    C5244228   5.248   2.962   1.242 -0.3169  0.5983 -0.0915
   89MOL    C5344229   5.322   2.853   1.166  0.1916  0.5801  0.4888
   89MOL    C5444230   5.292   2.721   1.251 -0.2950  0.1093  0.2047
   89MOL    C5544231   5.469   2.885   1.170  0.5624  0.4117 -0.4814
   89MOL    O5644232   5.532   2.936   1.075  0.3022  0.6784 -0.3782
   89MOL    O5744233   5.517   2.850   1.289  0.4244  0.1969  0.2957
   89MOL    C5844234   5.639   2.897   1.337  0.5040  0.8844  0.2530
   89MOL    C5944235   5.627   2.980   1.458  0.4809  0.7197 -0.3177
   89MOL    C6044236   5.685   2.950   1.574  0.2505  0.8822 -0.1514
   89MOL    C6144237   5.675   3.035   1.689  0.3592 -0.5007 -0.1918
   89MOL    C6244238   5.593   3.150   1.680  0.4369 -0.2479 -0.6633
   89MOL    C6344239   5.528   3.187   1.563  0.4912 -0.2595  0.1241
   89MOL    C6444240   5.545   3.099   1.447  0.1706 -0.6707 -0.0924
   89MOL    H6544241   5.164   2.912   1.292  1.1408 -0.6283  1.1921
   89MOL    H6644242   5.318   2.986   1.322 -1.3381 -0.0414  1.0297
   89MOL    H6744243   5.188   2.689   1.241  0.6726 -3.6082  1.1682
   89MOL    H6844244   5.305   2.738   1.358 -0.2687  0.9633  0.0662
   89MOL    H6944245   5.350   2.634   1.221 -1.0738  0.6992 -3.2336
   89MOL    H7044246   5.691   2.805   1.362 -0.7835 -0.3117 -1.2987
   89MOL    H7144247   5.709   2.929   1.260 -0.9151  0.6316 -1.1745
   89MOL    H7244248   5.742   2.860   1.593 -0.3726  0.7624  1.1844
   89MOL    H7344249   5.728   3.014   1.781  0.8414  2.4680  0.2371
   89MOL    H7444250   5.578   3.213   1.767 -0.8127 -0.0341 -1.0330
   89MOL    H7544251   5.470   3.279   1.564  1.3088  0.2661 -0.4947
   89MOL    H7644252   5.499   3.131   1.355 -0.0335  1.8300  0.8358
   89MOL    C7744253   5.264   2.830   1.020  0.5428  0.4319  0.1759
   89MOL    C7844254   5.296   2.717   0.918  0.4824  0.1833 -0.3047
   89MOL    C7944255   5.190   2.610   0.952  0.1147 -0.9457 -0.4886
   89MOL    C8044256   5.443   2.669   0.932 -0.6490  0.3643  0.6053
   89MOL    O8144257   5.461   2.574   1.003 -0.0970  0.9534  0.6526
   89MOL    O8244258   5.532   2.733   0.856 -0.3078 -0.1454  0.1948
   89MOL    C8344259   5.668   2.709   0.884  0.5425 -0.0607  0.4219
   89MOL    C8444260   5.755   2.782   0.778 -0.1269  0.4188 -0.4120
   89MOL    C8544261   5.760   2.925   0.767 -0.8135 -0.3248 -0.1861
   89MOL    C8644262   5.853   2.983   0.680 -0.2027 -0.0568  0.1629
   89MOL    C8744263   5.934   2.899   0.600  0.6637  0.1522 -0.0807
   89MOL    C8844264   5.919   2.760   0.601  0.3184 -0.4264 -0.0577
   89MOL    C8944265   5.828   2.703   0.692  0.8932 -0.1147 -0.0606
   89MOL    H9044266   5.296   2.924   0.976  3.4552 -0.0458  1.1776
   89MOL    H9144267   5.155   2.835   1.023  0.6129  1.4532  2.7843
   89MOL    H9244268   5.220   2.519   0.900 -0.0675 -0.8622 -0.7386
   89MOL    H9344269   5.087   2.631   0.925  0.3571 -0.8048 -1.3128
   89MOL    H9444270   5.197   2.582   1.057  0.8827  2.9767  0.5683
   89MOL    H9544271   5.703   2.750   0.979  1.0210 -0.3442  0.3751
   89MOL    H9644272   5.696   2.603   0.878  0.2594 -0.1667  0.9977
   89MOL    H9744273   5.701   2.983   0.836 -0.3593  0.3210 -0.3404
   89MOL    H9844274   5.882   3.087   0.672  1.4785 -0.5227 -0.0030
   89MOL    H9944275   6.007   2.949   0.537  1.2909 -3.0811 -2.0506
   89MOL   H10044276   5.984   2.698   0.542  0.4744 -0.4489  0.1339
   89MOL   H10144277   5.827   2.596   0.704  0.8197 -0.1494 -0.3757
   89MOL   C10244278   5.269   2.779   0.773 -0.5614 -0.1079  0.1214
   89MOL   C10344279   5.265   2.695   0.637  0.1806  0.1321  0.9451
   89MOL   C10444280   5.363   2.578   0.646 -0.2351 -0.3929  0.3446
   89MOL   C10544281   5.313   2.789   0.519 -0.2734 -0.3217 -0.2719
   89MOL   O10644282   5.404   2.769   0.437  0.1561  0.0532  0.2903
   89MOL   O10744283   5.255   2.910   0.534 -0.9806  0.7485 -0.0997
   89MOL   C10844284   5.292   3.012   0.448 -0.3485  0.5727 -0.5219
   89MOL   C10944285   5.203   3.140   0.441 -0.8404  0.1483  0.4846
   89MOL   C11044286   5.066   3.141   0.476 -0.2363 -0.1406  0.7231
   89MOL   C11144287   4.989   3.251   0.454  0.3185  0.1514  0.1378
   89MOL   C11244288   5.040   3.373   0.402  0.8414 -0.1422 -0.2086
   89MOL   C11344289   5.177   3.380   0.377 -0.5479  0.4066  0.1597
   89MOL   C11444290   5.259   3.258   0.381  0.7584 -0.1874  0.1907
   89MOL   H11544291   5.345   2.857   0.769 -0.5918 -0.1042 -0.4284
   89MOL   H11644292   5.183   2.845   0.769  1.0875  2.0938  0.1961
   89MOL   H11744293   5.353   2.507   0.728  1.5495 -0.3694  0.6040
   89MOL   H11844294   5.469   2.603   0.641 -0.5836  1.0894  0.2543
   89MOL   H11944295   5.364   2.501   0.568 -4.1636 -1.2302  0.9867
   89MOL   H12044296   5.393   3.027   0.486 -0.2405  1.2207 -1.0483
   89MOL   H12144297   5.298   2.985   0.343 -0.4454  0.5426 -0.5198
   89MOL   H12244298   5.016   3.051   0.507 -0.6536 -0.2743 -0.3068
   89MOL   H12344299   4.881   3.244   0.452  0.2934  0.4355  0.5296
   89MOL   H12444300   4.977   3.461   0.401 -1.2589 -1.6113 -0.7013
   89MOL   H12544301   5.230   3.462   0.331 -0.4376  0.2306 -0.0290
   89MOL   H12644302   5.360   3.250   0.344 -0.0041 -2.4629 -1.5345
   89MOL   C12744303   5.108   2.670   0.621 -0.5780 -0.3354 -0.0295
   89MOL   C12844304   5.060   2.543   0.531 -0.6339  0.3787  0.5047
   89MOL   C12944305   5.091   2.409   0.606 -0.1524 -0.0417 -0.0866
   89MOL   C13044306   5.135   2.533   0.392 -0.4995  0.3787 -0.8358
   89MOL   O13144307   5.202   2.436   0.356 -0.2976 -0.0142 -0.0057
   89MOL   O13244308   5.115   2.635   0.316 -0.2275  0.1650 -0.4657
   89MOL   C13344309   5.138   2.624   0.177 -0.5487  0.4122 -0.3042
   89MOL   C13444310   5.019   2.569   0.095 -0.1792 -0.3033  0.1403
   89MOL   C13544311   4.901   2.638   0.078  0.0425  0.4645 -0.2554
   89MOL   C13644312   4.787   2.575   0.014 -0.1052 -0.0436  1.0082
   89MOL   C13744313   4.806   2.442   7.972  0.8389  0.2520  0.4476
   89MOL   C13844314   4.925   2.377   7.988  0.1034 -0.0228  0.2616
   89MOL   C13944315   5.034   2.446   0.036 -0.4086 -0.2460  1.2430
   89MOL   H14044316   5.057   2.757   0.578  0.2587 -0.9202 -2.3087
   89MOL   H14144317   5.061   2.660   0.718 -0.6673 -0.3956 -0.0796
   89MOL   H14244318   5.194   2.374   0.621  0.4130  1.9950  0.9063
   89MOL   H14344319   5.050   2.328   0.545  0.3256 -0.0927 -0.3458
   89MOL   H14444320   5.038   2.416   0.701 -2.0086  0.2032 -1.1265
   89MOL   H14544321   5.164   2.725   0.144  0.5792  0.0911 -0.4201
   89MOL   H14644322   5.234   2.574   0.166  0.5519  2.1147  1.1609
   89MOL   H14744323   4.886   2.735   0.124 -1.8392  0.7186 -1.3488
   89MOL   H14844324   4.691   2.623   8.006  0.1060  0.2520  0.5948
   89MOL   H14944325   4.725   2.393   7.921 -1.1293  2.6032  1.2063
   89MOL   H15044326   4.923   2.276   7.952 -1.2196  0.3522 -0.7656
   89MOL   H15144327   5.129   2.394   0.041 -0.9579 -1.6745 -1.7555
   89MOL   C15244328   4.906   2.546   0.489  0.2388 -0.2959  1.0343
   89MOL   C15344329   4.795   2.644   0.549  0.1969  0.4266  0.0033
   89MOL   C15444330   4.804   2.782   0.482  0.7344 -0.5719 -0.2936
   89MOL   C15544331   4.799   2.654   0.701 -0.3292  0.6146  0.9532
   89MOL   O15644332   4.797   2.759   0.760 -0.3754  0.0124  0.5568
   89MOL   O15744333   4.804   2.524   0.762  0.3696  0.3377 -0.2989
   89MOL   C15844334   4.779   2.512   0.890  0.8622  0.4069 -0.1716
   89MOL   C15944335   4.760   2.366   0.930 -0.3053 -0.2272 -0.4046
   89MOL   C16044336   4.631   2.308   0.912  0.0366 -0.1821 -1.2064
   89MOL   C16144337   4.615   2.170   0.935 -0.3828 -0.4974  0.0313
   89MOL   C16244338   4.722   2.094   0.978  0.1955 -0.5873  0.4926
   89MOL   C16344339   4.845   2.156   1.000 -0.7079 -0.4268 -0.2300
   89MOL   C16444340   4.873   2.288   0.962 -1.0854 -0.4595  0.4752
   89MOL   H16544341   4.864   2.453   0.526  0.5194 -0.4969  0.8459
   89MOL   H16644342   4.892   2.549   0.381 -0.8080 -0.5053  1.1574
   89MOL   H16744343   4.754   2.775   0.386  0.6017 -0.2097 -0.2554
   89MOL   H16844344   4.901   2.829   0.466  0.2744  0.5349  0.0800
   89MOL   H16944345   4.740   2.852   0.536 -1.1270 -1.4136 -1.3664
   89MOL   H17044346   4.857   2.557   0.952 -0.7773  3.1901 -0.0355
   89MOL   H17144347   4.681   2.555   0.911 -0.1586 -2.2507  0.7376
   89MOL   H17244348   4.551   2.374   0.882  0.3036  1.6181  1.8591
   89MOL   H17344349   4.520   2.121   0.919 -0.7460  0.0239  0.5809
   89MOL   H17444350   4.701   1.989   0.994  0.4320 -0.5054  1.3858
   89MOL   H17544351   4.924   2.095   1.042 -1.4342  1.2639  3.8190
   89MOL   H17644352   4.968   2.334   0.981 -2.7146  2.8912  0.9398
   89MOL   C17744353   4.658   2.573   0.500 -0.6045  0.3741 -0.5523
   89MOL   C17844354   4.517   2.628   0.509  0.2151 -0.2268  0.5687
   89MOL   C17944355   4.427   2.502   0.495  0.0815 -0.1676 -0.5413
   89MOL   C18044356   4.486   2.724   0.384  0.8222  0.5355  0.1181
   89MOL   O18144357   4.430   2.690   0.278 -0.2863 -0.0496  0.0610
   89MOL   O18244358   4.521   2.853   0.406  0.2636 -0.4058  0.0619
   89MOL   C18344359   4.493   2.946   0.300 -0.2038  0.2130 -0.0893
   89MOL   C18444360   4.605   2.968   0.200 -0.5600 -0.3349  0.0011
   89MOL   C18544361   4.723   3.042   0.243 -0.3825 -0.5805  0.0927
   89MOL   C18644362   4.823   3.064   0.148 -0.1285 -0.3427 -0.0644
   89MOL   C18744363   4.812   3.018   0.017 -0.4683 -0.6674  1.0276
   89MOL   C18844364   4.690   2.963   7.978  0.4457 -0.2796 -0.2868
   89MOL   C18944365   4.595   2.926   0.067  0.4287 -0.7363  0.2239
   89MOL   H19044366   4.665   2.473   0.543  3.3065  2.0639  3.1554
   89MOL   H19144367   4.669   2.557   0.392  2.9091  0.7483 -0.3344
   89MOL   H19244368   4.323   2.532   0.485 -0.3397 -0.7375  1.7999
   89MOL   H19344369   4.431   2.435   0.580  3.9481  1.3782  0.6376
   89MOL   H19444370   4.443   2.435   0.411 -1.0746 -1.2845  0.1291
   89MOL   H19544371   4.401   2.933   0.243  0.8061  2.7049 -2.3578
   89MOL   H19644372   4.462   3.042   0.340  3.0270  1.0912  0.4176
   89MOL   H19744373   4.723   3.092   0.338  1.0056  0.6854 -0.5553
   89MOL   H19844374   4.904   3.127   0.182  0.5210  0.0970 -2.3399
   89MOL   H19944375   4.896   3.043   7.960 -1.7197  2.5526  0.5700
   89MOL   H20044376   4.682   2.934   7.874 -1.8282 -0.3915 -0.1017
   89MOL   H20144377   4.504   2.873   0.045  0.4468 -1.6986  2.2790
   89MOL   C20244378   4.483   2.696   0.648 -0.7255 -0.3429 -0.0913
   89MOL   C20344379   4.333   2.725   0.706  0.1182 -0.5338  0.5562
   89MOL   C20444380   4.360   2.785   0.842 -0.3570 -0.0059  0.4027
   89MOL   C20544381   4.248   2.592   0.735  0.2311 -0.3845  0.3825
   89MOL   O20644382   4.142   2.555   0.678  0.3510 -0.2225 -0.6485
   89MOL   O20744383   4.299   2.523   0.836 -0.0890  0.2190  0.5432
   89MOL   C20844384   4.219   2.427   0.904  0.1783  0.5943  0.2391
   89MOL   C20944385   4.193   2.464   1.044 -0.0141 -0.2026  0.5261
   89MOL   C21044386   4.258   2.399   1.151  0.0220 -0.1565  0.1804
   89MOL   C21144387   4.238   2.439   1.285  0.6977  0.1692 -0.0576
   89MOL   C21244388   4.162   2.552   1.308 -0.6439  0.2632 -0.0966
   89MOL   C21344389   4.087   2.612   1.201  0.1843  0.0788 -0.0488
   89MOL   C21444390   4.104   2.574   1.070 -0.2774 -0.4844  0.1263
   89MOL   H21544391   4.543   2.787   0.644 -2.6194  0.8923 -1.0184
   89MOL   H21644392   4.522   2.622   0.718 -1.3638 -1.0248 -0.4424
   89MOL   H21744393   4.266   2.814   0.889 -1.2915 -0.1177 -1.3747
   89MOL   H21844394   4.420   2.876   0.845 -0.1427 -0.0913 -0.9403
   89MOL   H21944395   4.413   2.724   0.915  1.6125  0.1817 -0.8516
   89MOL   H22044396   4.125   2.421   0.850 -0.5780  0.1746  1.5718
   89MOL   H22144397   4.269   2.330   0.897  2.6278  1.8032  0.3080
   89MOL   H22244398   4.321   2.315   1.126 -1.6092 -1.4112  0.2030
   89MOL   H22344399   4.282   2.392   1.371  1.2055  1.3782  0.3449
   89MOL   H22444400   4.160   2.574   1.414  3.1348 -0.2873  0.1752
   89MOL   H22544401   4.031   2.700   1.230  1.8282  2.0450 -2.6264
   89MOL   H22644402   4.049   2.633   0.997  2.7009  1.6827 -0.4844
   89MOL   C22744403   4.258   2.815   0.607  0.6164  0.6065  0.4338
   89MOL   C22844404   4.151   2.922   0.638  0.9965 -0.6043 -0.4592
   89MOL   C22944405   4.081   2.965   0.502 -0.6049  0.1786  0.4792
   89MOL   C23044406   4.219   3.050   0.696 -0.1821  0.6157 -0.1145
   89MOL   O23144407   4.210   3.071   0.818  0.2417 -0.4733  0.6675
   89MOL   O23244408   4.287   3.118   0.613 -0.2246  0.3104  0.9038
   89MOL   C23344409   4.355   3.235   0.654  0.5258  0.1143 -0.9926
   89MOL   C23444410   4.492   3.208   0.711  0.1374 -0.1353 -0.1362
   89MOL   C23544411   4.562   3.087   0.696  0.1108  0.2515  0.5700
   89MOL   C23644412   4.688   3.070   0.747 -0.5577  0.1293  0.1223
   89MOL   C23744413   4.753   3.176   0.818  0.1812 -0.3490  0.7356
   89MOL   C23844414   4.692   3.302   0.821  0.0540  0.0723  0.3189
   89MOL   C23944415   4.561   3.318   0.772 -0.5372  0.1345 -0.1795
   89MOL   H24044416   4.210   2.750   0.533  1.2584 -0.7689  1.2021
   89MOL   H24144417   4.337   2.862   0.549 -1.4796  1.7546 -1.5405
   89MOL   H24244418   4.155   2.956   0.423 -2.0761  2.2479 -1.1892
   89MOL   H24344419   4.034   3.063   0.503 -3.6995 -1.2286  3.1544
   89MOL   H24444420   4.002   2.892   0.483 -0.4377 -0.2910  1.5180
   89MOL   H24544421   4.368   3.294   0.563 -0.2011  0.2607 -1.0077
   89MOL   H24644422   4.296   3.297   0.722  0.7567 -0.6456 -0.0972
   89MOL   H24744423   4.518   3.007   0.638 -0.2191  0.4695  0.5160
   89MOL   H24844424   4.734   2.973   0.735 -0.2617  0.2865 -0.0083
   89MOL   H24944425   4.857   3.166   0.846  0.6516 -0.3100 -0.9379
   89MOL   H25044426   4.754   3.380   0.863 -3.3884  1.7082  2.6187
   89MOL   H25144427   4.510   3.411   0.790  0.3779  0.7786 -0.8184
   89MOL   C25244428   4.031   2.852   0.719 -0.2490 -0.1976  0.0377
   89MOL   C25344429   3.914   2.927   0.788  0.2123 -0.0908  0.4830
   89MOL   C25444430   3.886   3.057   0.698  0.6974 -0.0818  0.2881
   89MOL   C25544431   3.958   2.966   0.926 -0.1843 -0.1092 -0.3877
   89MOL   O25644432   4.011   2.891   1.007 -0.0395  0.3508  0.2010
   89MOL   O25744433   3.933   3.097   0.956 -0.5356 -0.1570 -0.4113
   89MOL   C25844434   3.977   3.143   1.087  0.5247  1.0552 -0.9203
   89MOL   C25944435   3.897   3.263   1.140 -0.2831 -0.0137  0.6814
   89MOL   C26044436   3.963   3.360   1.223 -0.4648  0.1070  0.5941
   89MOL   C26144437   3.897   3.470   1.281 -0.2345  0.6063  0.0888
   89MOL   C26244438   3.769   3.500   1.234  0.0297 -0.4282 -1.0504
   89MOL   C26344439   3.707   3.407   1.153  0.0420 -0.0913 -0.8201
   89MOL   C26444440   3.761   3.284   1.111  0.4672 -0.1395 -0.3160
   89MOL   H26544441   4.072   2.781   0.791  0.1776  0.2279  0.2139
   89MOL   H26644442   3.985   2.783   0.649  3.8305 -1.0369 -1.9437
   89MOL   H26744443   3.854   3.027   0.599 -0.6151 -0.0060  0.6718
   89MOL   H26844444   3.965   3.131   0.685  0.3292  0.4191  0.8477
   89MOL   H26944445   3.800   3.112   0.738 -1.2748 -1.2553 -2.2319
   89MOL   H27044446   3.953   3.060   1.154  1.9987  0.7086 -0.8161
   89MOL   H27144447   4.082   3.171   1.098  0.7110 -0.8386  3.1370
   89MOL   H27244448   4.068   3.346   1.244 -0.2481  2.6320  1.3350
   89MOL   H27344449   3.955   3.529   1.351  1.4116 -0.0846 -0.6476
   89MOL   H27444450   3.718   3.594   1.253  0.4465 -0.7518  1.9120
   89MOL   H27544451   3.606   3.435   1.128 -0.7045 -1.5564  0.5022
   89MOL   H27644452   3.710   3.206   1.056  0.7735 -1.9543  1.8883
   89MOL   C27744453   3.791   2.822   0.784 -0.4263 -0.3760 -0.3253
   89MOL   C27844454   3.654   2.832   0.860 -0.2708 -0.4551 -0.0825
   89MOL   C27944455   3.606   2.978   0.838 -0.3518  0.2646  0.5506
   89MOL   C28044456   3.672   2.810   1.007 -0.1067  0.2082 -0.4416
   89MOL   O28144457   3.733   2.711   1.043 -0.3552 -0.5081 -0.0672
   89MOL   O28244458   3.608   2.889   1.092 -0.5507  0.6198 -0.2074
   89MOL   C28344459   3.568   2.858   1.223  0.0148 -0.1966 -0.0203
   89MOL   C28444460   3.680   2.882   1.314 -0.6981 -0.4156 -0.2357
   89MOL   C28544461   3.743   3.004   1.331  0.4836  0.2208 -0.8695
   89MOL   C28644462   3.849   3.027   1.418  0.1978 -0.5132 -0.5198
   89MOL   C28744463   3.909   2.918   1.484 -0.0823 -0.4851  0.5573
   89MOL   C28844464   3.856   2.786   1.458 -0.1071 -0.4513  0.2158
   89MOL   C28944465   3.736   2.776   1.386  0.1475  0.2636 -0.3267
   89MOL   H29044466   3.842   2.728   0.805 -1.6810 -1.3371 -1.5035
   89MOL   H29144467   3.757   2.824   0.681 -1.1949  0.0820 -0.0728
   89MOL   H29244468   3.675   3.047   0.887 -0.7995  0.8952  0.2930
   89MOL   H29344469   3.510   2.996   0.886 -1.2725 -1.0129 -0.8079
   89MOL   H29444470   3.608   2.999   0.731 -0.6870  2.5925  0.9713
   89MOL   H29544471   3.476   2.913   1.244  1.4108  1.6527  1.3720
   89MOL   H29644472   3.548   2.751   1.224 -0.2757 -0.1992 -2.7272
   89MOL   H29744473   3.697   3.084   1.275 -2.0261 -0.0336  0.7331
   89MOL   H29844474   3.877   3.131   1.431 -1.4518 -0.2174  0.7953
   89MOL   H29944475   3.991   2.939   1.550 -2.2866  1.6047  2.7162
   89MOL   H30044476   3.903   2.697   1.497  1.2181  0.9309  1.8411
   89MOL   H30144477   3.697   2.677   1.368 -2.5085  1.2176 -0.0302
   89MOL   C30244478   3.562   2.719   0.800 -0.0751  0.5849 -0.0630
   89MOL   C30344479   3.402   2.715   0.815 -0.2954 -0.9427 -0.6490
   89MOL   C30444480   3.359   2.570   0.787 -0.3099  0.1029 -0.1385
   89MOL   C30544481   3.350   2.803   0.701  0.4789  0.1040  0.3929
   89MOL   O30644482   3.335   2.928   0.713  0.0255 -0.2621  0.3109
   89MOL   O30744483   3.333   2.736   0.582  0.5357  0.1155 -0.0939
   89MOL   C30844484   3.287   2.809   0.467  0.3145  0.0150  0.4804
   89MOL   C30944485   3.279   2.728   0.337  0.5524  0.0009 -0.4311
   89MOL   C31044486   3.155   2.715   0.271 -0.5724  1.1790 -0.0738
   89MOL   C31144487   3.156   2.644   0.145  0.2141 -0.0807 -0.2021
   89MOL   C31244488   3.273   2.585   0.093  0.1024 -0.1334  0.2445
   89MOL   C31344489   3.391   2.594   0.170 -0.5169  0.2690  0.5297
   89MOL   C31444490   3.401   2.669   0.288  0.1984  0.3683  0.1946
   89MOL   H31544491   3.595   2.630   0.853 -0.5097  0.0340 -0.7177
   89MOL   H31644492   3.594   2.706   0.696 -0.0477  0.1241  0.0054
   89MOL   H31744493   3.358   2.512   0.879 -0.3135  2.3917  1.3220
   89MOL   H31844494   3.412   2.532   0.699 -0.5119 -0.1180 -0.1655
   89MOL   H31944495   3.255   2.558   0.758  0.1816 -0.3746 -1.8221
   89MOL   H32044496   3.186   2.840   0.494 -1.2015 -2.6865 -1.7715
   89MOL   H32144497   3.351   2.896   0.450 -1.9986  1.6038 -0.4190
   89MOL   H32244498   3.063   2.757   0.309 -0.3674 -1.3830  3.4074
   89MOL   H32344499   3.068   2.646   0.082  1.7476 -0.2242 -2.4420
   89MOL   H32444500   3.258   2.537   8.004 -2.5050 -2.1276  1.5777
   89MOL   H32544501   3.478   2.559   0.116 -0.3905  1.8986 -0.3727
   89MOL   H32644502   3.495   2.682   0.341 -0.1286 -2.3957  1.5679
   89MOL   C32744503   3.347   2.773   0.956 -0.5754  0.1928 -0.3573
   89MOL   C32844504   3.200   2.753   1.004 -0.5114  0.1882 -0.6848
   89MOL   C32944505   3.174   2.834   1.142  0.5787 -0.5678  0.8275
   89MOL   C33044506   3.181   2.604   1.052  0.5836 -0.2141  0.2843
   89MOL   O33144507   3.114   2.527   0.987 -0.7245 -0.4335  0.3386
   89MOL   O33244508   3.259   2.569   1.156 -0.0698 -0.5685  0.0224
   89MOL   C33344509   3.285   2.423   1.176  0.6482  0.5699 -0.1402
   89MOL   C33444510   3.431   2.393   1.228  0.0741  1.0120 -0.1139
   89MOL   C33544511   3.457   2.281   1.312  0.8119  0.1010 -0.7205
   89MOL   C33644512   3.587   2.249   1.360 -0.1024 -0.0452  0.5946
   89MOL   C33744513   3.692   2.330   1.314 -0.1631 -0.4303  0.0840
   89MOL   C33844514   3.668   2.435   1.224 -0.2193  0.2285 -0.2377
   89MOL   C33944515   3.541   2.467   1.178 -0.2984 -0.8467  0.0773
   89MOL   H34044516   3.365   2.881   0.959  0.9512 -0.0096 -1.7707
   89MOL   H34144517   3.411   2.723   1.028 -0.1921 -1.9546 -2.1620
   89MOL   H34244518   3.246   2.817   1.222 -0.4530 -0.1112  1.8814
   89MOL   H34344519   3.082   2.801   1.191 -0.7869 -0.7396 -1.7814
   89MOL   H34444520   3.169   2.942   1.127 -2.9933 -0.9020 -1.1020
   89MOL   H34544521   3.202   2.391   1.238 -0.4984  0.0355 -1.9178
   89MOL   H34644522   3.271   2.373   1.081  0.2846 -2.3355  1.4031
   89MOL   H34744523   3.367   2.232   1.346  0.1141  0.8573 -1.4156
   89MOL   H34844524   3.604   2.168   1.429 -0.0064 -0.1054  0.5006
   89MOL   H34944525   3.789   2.316   1.358 -1.4027  0.8654  3.4118
   89MOL   H35044526   3.751   2.502   1.206  0.5642 -0.4715  0.7339
   89MOL   H35144527   3.534   2.554   1.115  1.8488  0.7504  1.9365
   89MOL   C35244528   3.085   2.788   0.894 -0.9946  0.1083  0.5166
   89MOL   C35344529   2.931   2.830   0.913 -0.6211 -0.0260  0.3695
   89MOL   C35444530   2.928   2.972   0.973 -0.0583  0.0688  0.8672
   89MOL   C35544531   2.848   2.740   1.008  0.0001 -0.3376 -0.4072
   89MOL   O35644532   2.804   2.786   1.116  0.0386  0.0888 -0.4997
   89MOL   O35744533   2.823   2.622   0.956 -0.2868  0.1810  0.6478
   89MOL   C35844534   2.714   2.547   1.001  0.2068  0.3459  0.9255
   89MOL   C35944535   2.749   2.399   0.995  0.4571 -0.2471  0.8639
   89MOL   C36044536   2.664   2.310   1.067 -0.3396 -0.8156  0.8150
   89MOL   C36144537   2.705   2.176   1.083  0.2563 -0.0386 -0.2506
   89MOL   C36244538   2.816   2.126   1.022 -0.3065 -0.2228 -0.3856
   89MOL   C36344539   2.896   2.206   0.937  0.3375  0.4039 -0.6717
   89MOL   C36444540   2.859   2.341   0.922  0.1841  0.0011 -0.2164
   89MOL   H36544541   3.097   2.721   0.809  0.0072  1.8746 -0.7863
   89MOL   H36644542   3.132   2.877   0.853 -2.3609  0.5463 -0.1154
   89MOL   H36744543   2.980   3.046   0.912 -3.7665  2.3416  0.3148
   89MOL   H36844544   2.968   2.971   1.075 -0.3537 -0.6968  0.9771
   89MOL   H36944545   2.827   3.013   0.980 -0.2218  0.5981 -3.5739
   89MOL   H37044546   2.686   2.581   1.100 -1.4817  0.0053  0.5775
   89MOL   H37144547   2.624   2.566   0.942 -0.7717 -0.9649  1.9467
   89MOL   H37244548   2.579   2.352   1.119  0.2962 -0.7032  1.7960
   89MOL   H37344549   2.642   2.113   1.144  1.1414 -2.1242 -1.4445
   89MOL   H37444550   2.838   2.025   1.050 -0.9412 -0.1617  0.3606
   89MOL   H37544551   2.984   2.160   0.893 -1.4796 -1.2768 -2.6267
   89MOL   H37644552   2.910   2.409   0.854  0.2665 -0.6412 -0.8047
   89MOL   C37744553   2.870   2.832   0.764  0.0326 -0.1119  0.5350
   89MOL   C37844554   2.733   2.886   0.722  0.1557  0.0702 -1.2910
   89MOL   C37944555   2.625   2.852   0.829  0.1721  0.5224 -0.0724
   89MOL   C38044556   2.691   2.803   0.595 -0.1991 -0.0197 -0.2252
   89MOL   O38144557   2.590   2.735   0.587 -0.2603 -0.6010 -0.0744
   89MOL   O38244558   2.776   2.823   0.496 -0.0952 -0.5453  0.4138
   89MOL   C38344559   2.749   2.758   0.374 -0.0493 -0.0495 -0.1858
   89MOL   C38444560   2.814   2.814   0.249 -0.3908 -0.3447 -0.2908
   89MOL   C38544561   2.879   2.943   0.251 -0.6192  0.0024  0.2566
   89MOL   C38644562   2.950   2.990   0.141 -0.7600 -0.4093  0.5545
   89MOL   C38744563   2.952   2.917   0.022 -0.0324  0.4245 -1.0764
   89MOL   C38844564   2.877   2.798   0.015  0.1802 -0.0497  0.1829
   89MOL   C38944565   2.804   2.752   0.123  0.7145 -0.5235  0.2340
   89MOL   H39044566   2.877   2.729   0.729  2.2190  1.3457 -3.6511
   89MOL   H39144567   2.939   2.887   0.700  0.9148  1.5651  2.8125
   89MOL   H39244568   2.526   2.862   0.783 -0.1352 -0.7816  0.2834
   89MOL   H39344569   2.653   2.908   0.918 -0.7178  0.6810  0.1138
   89MOL   H39444570   2.624   2.746   0.855 -2.6395  0.9412  1.7376
   89MOL   H39544571   2.788   2.657   0.382  0.4079  0.0198 -1.3509
   89MOL   H39644572   2.642   2.757   0.353 -0.0670  0.8764 -0.1876
   89MOL   H39744573   2.886   2.998   0.343 -1.1462  2.2129 -0.9765
   89MOL   H39844574   2.997   3.087   0.139 -3.6986  1.0670  1.0395
   89MOL   H39944575   3.003   2.948   7.939 -0.8702  1.7223 -1.1090
   89MOL   H40044576   2.890   2.738   7.933 -0.3956 -1.4467  1.0281
   89MOL   H40144577   2.763   2.653   0.122  1.4487 -0.8464  1.1104
   89MOL   C40244578   2.754   3.044   0.698 -0.2163 -0.2693 -0.3062
   89MOL   C40344579   2.638   3.150   0.673 -0.1714  0.3625  0.8136
   89MOL   C40444580   2.586   3.172   0.817  0.5888 -0.1821  0.7389
   89MOL   C40544581   2.527   3.076   0.583 -0.5839  0.1818  0.1461
   89MOL   O40644582   2.418   3.042   0.627  0.3020 -0.0371 -0.2274
   89MOL   O40744583   2.569   3.050   0.458 -0.0965 -0.5360  0.0882
   89MOL   C40844584   2.480   2.992   0.363  0.0183  0.1570 -0.6634
   89MOL   C40944585   2.520   3.022   0.221  0.0237  0.7677 -0.5022
   89MOL   C41044586   2.471   2.942   0.117  0.7448  0.5831  0.1470
   89MOL   C41144587   2.502   2.964   7.993  0.2090 -0.5627  0.0599
   89MOL   C41244588   2.579   3.078   7.962 -0.7485  0.5623  0.8134
   89MOL   C41344589   2.625   3.158   0.056 -0.1953 -0.3267 -0.7383
   89MOL   C41444590   2.589   3.140   0.186  0.0997  0.4493 -0.9844
   89MOL   H41544591   2.822   3.052   0.613  0.4249  0.0109  0.2295
   89MOL   H41644592   2.823   3.086   0.771 -0.2519  0.8335 -0.8989
   89MOL   H41744593   2.511   3.097   0.841  2.0060 -1.4832  1.2181
   89MOL   H41844594   2.526   3.263   0.822  0.0004 -0.5548  0.4373
   89MOL   H41944595   2.660   3.169   0.897  0.7312  0.5858  0.6462
   89MOL   H42044596   2.480   2.887   0.395 -1.6819  0.0294 -1.0581
   89MOL   H42144597   2.376   3.018   0.380  0.1185 -0.5503  1.2156
   89MOL   H42244598   2.412   2.853   0.133 -0.3674  1.0904 -1.0018
   89MOL   H42344599   2.487   2.891   7.915 -0.6927 -0.3141 -0.0061
   89MOL   H42444600   2.609   3.099   7.860  0.8705 -1.0226  0.9542
   89MOL   H42544601   2.683   3.246   0.036 -1.6963  1.1907  1.4123
   89MOL   H42644602   2.631   3.199   0.265 -0.9791 -1.4922  1.1002
   89MOL   C42744603   2.680   3.279   0.594 -0.2421  0.1473  0.2218
   89MOL   C42844604   2.787   3.381   0.648 -0.1298 -0.8881  0.0408
   89MOL   C42944605   2.795   3.482   0.531 -0.1009 -1.1727  0.8882
   89MOL   C43044606   2.925   3.309   0.661  0.3826 -0.6036  0.2537
   89MOL   O43144607   2.990   3.314   0.772  0.6291  0.5047 -0.0004
   89MOL   O43244608   2.972   3.257   0.548  0.5482  0.3243  0.0010
   89MOL   C43344609   3.104   3.207   0.546  0.2513 -0.1850 -0.0892
   89MOL   C43444610   3.204   3.314   0.519  0.0144 -0.8172  0.5075
   89MOL   C43544611   3.315   3.336   0.607  0.2354  0.3322 -0.0168
   89MOL   C43644612   3.397   3.447   0.586 -0.3722  0.3703  0.5396
   89MOL   C43744613   3.360   3.546   0.487 -0.6965  0.3188  0.2850
   89MOL   C43844614   3.260   3.521   0.399  0.0651 -0.6073  0.5915
   89MOL   C43944615   3.178   3.406   0.417 -0.1856  0.3012 -0.3724
   89MOL   H44044616   2.594   3.335   0.556  0.4137  0.5204 -0.7272
   89MOL   H44144617   2.714   3.238   0.499 -1.9937  0.0195 -0.3712
   89MOL   H44244618   2.785   3.430   0.436 -1.0708  1.1987 -0.3480
   89MOL   H44344619   2.883   3.544   0.519 -1.5789  0.7986 -0.1163
   89MOL   H44444620   2.726   3.566   0.528  0.4719 -0.7268  0.0746
   89MOL   H44544621   3.118   3.161   0.643 -1.5830 -1.0086 -0.1879
   89MOL   H44644622   3.108   3.134   0.466  1.2186 -0.5506  0.2904
   89MOL   H44744623   3.331   3.261   0.683  1.7245  0.3845 -0.2611
   89MOL   H44844624   3.482   3.458   0.653 -1.0300  1.2210  1.2396
   89MOL   H44944625   3.410   3.640   0.469  0.9188 -0.5797 -0.0980
   89MOL   H45044626   3.232   3.588   0.319 -0.2102 -0.8165  0.5102
   89MOL   H45144627   3.102   3.379   0.344  0.4726 -2.6556 -0.0342
   89MOL   C45244628   2.741   3.443   0.787  0.2587 -0.1497  0.0884
   89MOL   C45344629   2.793   3.572   0.853 -0.1507  0.3841 -0.5561
   89MOL   C45444630   2.938   3.608   0.822  0.3325 -0.0869 -0.0333
   89MOL   C45544631   2.777   3.557   1.004  0.1224  0.2870 -0.9121
   89MOL   O45644632   2.870   3.575   1.081  0.4056 -0.3206 -0.6552
   89MOL   O45744633   2.647   3.534   1.043  0.4762  0.9823 -0.4013
   89MOL   C45844634   2.610   3.504   1.176 -0.2384 -0.6017  0.1304
   89MOL   C45944635   2.650   3.362   1.220 -0.0781 -0.3726 -0.5273
   89MOL   C46044636   2.586   3.252   1.161  0.1151 -0.5062 -0.2822
   89MOL   C46144637   2.628   3.125   1.209  0.0827 -0.4777 -0.0863
   89MOL   C46244638   2.736   3.107   1.295  0.1327  0.0140 -0.6648
   89MOL   C46344639   2.797   3.223   1.349 -0.2746  0.6317  0.0123
   89MOL   C46444640   2.751   3.350   1.310 -0.6251 -0.0681 -0.1427
   89MOL   H46544641   2.758   3.362   0.858  2.0465 -0.1147 -0.2812
   89MOL   H46644642   2.633   3.452   0.785  0.2616 -0.1911 -0.7742
   89MOL   H46744643   2.958   3.609   0.714 -1.0525 -0.0372 -0.3057
   89MOL   H46844644   3.000   3.528   0.860 -1.1463 -2.6450 -2.7992
   89MOL   H46944645   2.991   3.692   0.867 -0.0753  0.3512 -0.3636
   89MOL   H47044646   2.637   3.572   1.256 -0.3405  0.0860 -0.4163
   89MOL   H47144647   2.503   3.492   1.163 -0.5873  2.0634  0.3821
   89MOL   H47244648   2.495   3.251   1.103  0.1029  2.3574 -0.3758
   89MOL   H47344649   2.588   3.036   1.163  2.5646 -0.4633 -2.4382
   89MOL   H47444650   2.774   3.011   1.328 -3.6262 -1.8421 -1.3715
   89MOL   H47544651   2.868   3.203   1.428 -1.2636 -1.6609  0.3659
   89MOL   H47644652   2.793   3.444   1.344  1.0548 -1.4234  1.6226
   89MOL   C47744653   2.699   3.689   0.803 -0.4270  0.9237  0.4669
   89MOL   C47844654   2.735   3.833   0.839  0.1835  0.5174 -0.0895
   89MOL   C47944655   2.722   3.868   0.988  0.9651 -0.0334 -0.8546
   89MOL   C48044656   2.631   3.916   0.759  0.4106 -1.3124 -0.0185
   89MOL   O48144657   2.660   3.957   0.649  0.1757  0.6755  0.5038
   89MOL   O48244658   2.512   3.946   0.818 -0.0113  0.1793  0.1536
   89MOL   C48344659   2.420   4.026   0.744  0.0993  0.1855  0.5090
   89MOL   C48444660   2.307   4.077   0.811  0.0048  0.3415 -0.6103
   89MOL   C48544661   2.180   4.036   0.767  0.1009 -0.0631 -0.4803
   89MOL   C48644662   2.071   4.084   0.844 -0.1523 -0.1169  0.0165
   89MOL   C48744663   2.087   4.177   0.951 -0.4306  0.2701 -0.2408
   89MOL   C48844664   2.216   4.211   0.993 -0.7286 -0.1073  0.4488
   89MOL   C48944665   2.329   4.162   0.922 -0.0421  0.0795 -0.7358
   89MOL   H49044666   2.597   3.667   0.835 -0.5401  0.3567 -0.2577
   89MOL   H49144667   2.697   3.694   0.694 -0.6485  1.4570  0.4916
   89MOL   H49244668   2.628   3.843   1.037  1.2084 -2.1295 -1.4400
   89MOL   H49344669   2.726   3.976   1.007 -0.1116 -0.3723  1.4033
   89MOL   H49444670   2.804   3.822   1.043 -0.1528 -1.7804 -0.6208
   89MOL   H49544671   2.480   4.116   0.726 -0.9459  1.1712  1.7947
   89MOL   H49644672   2.400   3.970   0.652  1.9252  1.4597 -0.7102
   89MOL   H49744673   2.172   3.963   0.688  0.6450 -3.1569  2.2186
   89MOL   H49844674   1.972   4.057   0.811  0.6033 -1.8004 -0.9117
   89MOL   H49944675   1.996   4.216   0.995 -0.3633  0.5209 -0.3288
   89MOL   H50044676   2.224   4.271   1.083  0.4665  0.0817  0.2195
   89MOL   H50144677   2.428   4.200   0.943 -0.4335  1.1168 -0.7311
   89MOL   H50244678   2.836   3.852   0.804  0.9264 -1.6142  0.8221
   90MOL     C144679   6.174   2.301   3.223 -0.3544  0.1994 -0.3362
   90MOL     C244680   6.262   2.377   3.118 -0.1797 -0.1467 -0.4344
   90MOL     C344681   6.186   2.368   2.984  0.5045 -0.1664 -0.3585
   90MOL     C444682   6.409   2.317   3.115  0.3612  0.5579 -0.2635
   90MOL     O544683   6.471   2.305   3.005  0.4284  0.3978 -0.3700
   90MOL     O644684   6.460   2.291   3.237  0.5295 -0.4620  0.3183
   90MOL     C744685   6.605   2.271   3.241  0.3647  0.6372 -0.0500
   90MOL     C844686   6.658   2.235   3.377  0.5518 -0.3995  0.5922
   90MOL     C944687   6.653   2.330   3.482 -0.2162 -0.2744 -0.0424
   90MOL    C1044688   6.694   2.290   3.616 -0.1918  0.4572  0.8801
   90MOL    C1144689   6.729   2.156   3.637  0.1552 -0.1848 -0.2083
   90MOL    C1244690   6.738   2.062   3.530  0.1480 -0.1643  0.0739
   90MOL    C1344691   6.706   2.105   3.398 -0.2766 -0.5806 -0.2472
   90MOL    H1444692   6.204   2.317   3.327  0.8694 -1.4633 -0.4144
   90MOL    H1544693   6.066   2.314   3.216 -0.1393  2.2119 -0.3442
   90MOL    H1644694   6.254   2.370   2.898  1.1971  3.2882  0.1906
   90MOL    H1744695   6.116   2.449   2.965 -0.4082 -0.8179  0.2230
   90MOL    H1844696   6.132   2.273   2.982  0.8048 -0.3439 -2.8620
   90MOL    H1944697   6.639   2.190   3.177 -0.1522  0.9367 -0.7052
   90MOL    H2044698   6.662   2.358   3.209  0.2931  1.0597  0.9598
   90MOL    H2144699   6.629   2.433   3.460  3.1064  0.3904 -0.7913
   90MOL    H2244700   6.691   2.368   3.691 -1.1467 -0.7414  2.0944
   90MOL    H2344701   6.738   2.123   3.739  0.0037  1.2878  0.2959
   90MOL    H2444702   6.753   1.959   3.558 -1.7259 -0.2623  0.8294
   90MOL    H2544703   6.707   2.042   3.310 -0.5725 -0.1635 -0.5477
   90MOL    H2644704   6.192   2.197   3.198 -0.7357  0.2399 -0.7748
   90MOL    C2744705   6.265   2.525   3.166  0.5414 -0.0901 -0.5146
   90MOL    C2844706   6.354   2.640   3.112 -0.8969  0.5619  0.6924
   90MOL    C2944707   6.352   2.639   2.957 -0.3792 -0.5316 -0.5768
   90MOL    C3044708   6.499   2.634   3.164 -0.7460 -0.0522 -0.3394
   90MOL    O3144709   6.521   2.576   3.272 -0.5473  0.1640  0.3268
   90MOL    O3244710   6.597   2.689   3.093 -0.3153 -0.2606  0.0725
   90MOL    C3344711   6.721   2.720   3.159 -0.3848 -0.1446  0.1180
   90MOL    C3444712   6.809   2.796   3.066 -0.6222 -1.4768 -0.3698
   90MOL    C3544713   6.924   2.739   3.010 -0.0018  0.0963 -0.3638
   90MOL    C3644714   7.023   2.821   2.945  0.4229 -0.7464 -0.4058
   90MOL    C3744715   6.993   2.960   2.930  0.3783 -0.3589  0.1021
   90MOL    C3844716   6.872   3.012   2.980  0.2138  0.2533  0.2218
   90MOL    C3944717   6.776   2.933   3.045  0.1444 -0.4925  0.5848
   90MOL    H4044718   6.296   2.519   3.270  0.3213 -2.6826 -0.5773
   90MOL    H4144719   6.163   2.562   3.168  0.4238 -0.4471  0.2795
   90MOL    H4244720   6.414   2.555   2.927  3.6522  2.3004 -0.6176
   90MOL    H4344721   6.406   2.721   2.909 -0.5219 -1.3152 -2.1252
   90MOL    H4444722   6.249   2.635   2.922 -0.4869 -2.0970 -0.1120
   90MOL    H4544723   6.693   2.791   3.237  2.4460 -2.0647  2.9634
   90MOL    H4644724   6.767   2.636   3.209  1.7179  0.2821 -1.0438
   90MOL    H4744725   6.934   2.632   3.015 -0.9417  0.0242  0.1121
   90MOL    H4844726   7.112   2.782   2.898  1.0733  1.1327 -0.7660
   90MOL    H4944727   7.058   3.033   2.885  1.6775 -1.4682  0.1660
   90MOL    H5044728   6.861   3.120   2.981 -1.5081  0.1069 -0.6706
   90MOL    H5144729   6.690   2.977   3.092 -1.0836 -1.4602 -0.6993
   90MOL    C5244730   6.296   2.783   3.144 -0.6479 -0.2715 -0.2908
   90MOL    C5344731   6.289   2.846   3.288  0.2870  0.8664 -0.1430
   90MOL    C5444732   6.251   2.747   3.402 -0.7204  0.1030 -0.4410
   90MOL    C5544733   6.175   2.960   3.281 -1.3391  0.9710  0.9408
   90MOL    O5644734   6.080   2.961   3.352  0.1020 -0.4397  0.3632
   90MOL    O5744735   6.193   3.035   3.171 -0.0385  0.0887  0.1144
   90MOL    C5844736   6.085   3.124   3.133  0.1952 -0.3542  0.5289
   90MOL    C5944737   6.095   3.170   2.987  0.8604 -0.1256  0.4762
   90MOL    C6044738   6.072   3.077   2.884  0.7729  0.0339 -0.2927
   90MOL    C6144739   6.088   3.111   2.752 -0.8346  0.6216  0.4748
   90MOL    C6244740   6.123   3.244   2.720 -0.4215 -0.0976  0.9830
   90MOL    C6344741   6.127   3.344   2.822  0.2354 -0.5344  0.6907
   90MOL    C6444742   6.111   3.303   2.958  0.5397  0.1287 -0.1009
   90MOL    H6544743   6.191   2.780   3.116 -0.8527  1.2401  0.2726
   90MOL    H6644744   6.344   2.853   3.076 -0.0046 -0.0126  0.4172
   90MOL    H6744745   6.235   2.796   3.497 -3.7178  0.4315 -1.0552
   90MOL    H6844746   6.329   2.673   3.420  0.1943  0.7022 -1.7873
   90MOL    H6944747   6.155   2.696   3.408 -0.2047 -0.7438  0.8473
   90MOL    H7044748   5.984   3.088   3.148 -0.2974  0.5499 -0.5797
   90MOL    H7144749   6.096   3.211   3.197  0.1781  0.1831 -0.1998
   90MOL    H7244750   6.040   2.976   2.905 -1.6815  0.9135  0.3675
   90MOL    H7344751   6.077   3.034   2.677 -0.2694  1.2326 -0.2321
   90MOL    H7444752   6.129   3.269   2.616  2.2090  1.3288  1.4307
   90MOL    H7544753   6.139   3.447   2.792  1.3935 -1.4044 -2.0063
   90MOL    H7644754   6.113   3.377   3.037  1.0760  0.1726 -0.1516
   90MOL    C7744755   6.430   2.908   3.320 -0.4296 -0.8532  0.8057
   90MOL    C7844756   6.470   3.036   3.402  0.2226 -0.0576  0.4495
   90MOL    C7944757   6.386   3.026   3.529  0.9085 -0.6975 -0.7359
   90MOL    C8044758   6.447   3.169   3.326 -0.0119  1.5418  0.9962
   90MOL    O8144759   6.406   3.273   3.378  0.2734  0.3218  0.5642
   90MOL    O8244760   6.491   3.165   3.201 -0.0572 -0.8769  0.1366
   90MOL    C8344761   6.461   3.272   3.115  0.0230  0.0020  0.4685
   90MOL    C8444762   6.522   3.246   2.973 -0.0669 -0.1456  0.6864
   90MOL    C8544763   6.488   3.133   2.901 -0.6444  0.6215  0.5076
   90MOL    C8644764   6.536   3.102   2.778 -0.0670  0.2416  0.2952
   90MOL    C8744765   6.635   3.192   2.725  0.2107 -0.0205  0.3427
   90MOL    C8844766   6.669   3.309   2.794 -0.4066 -0.2154 -0.1409
   90MOL    C8944767   6.612   3.330   2.918 -0.1994  0.1378  0.2491
   90MOL    H9044768   6.482   2.920   3.225  0.2435  1.4676  1.4419
   90MOL    H9144769   6.491   2.829   3.363 -0.1680 -0.5590  0.9786
   90MOL    H9244770   6.414   3.105   3.599  0.5626 -0.2676 -1.0792
   90MOL    H9344771   6.415   2.934   3.580  0.5560 -1.2471 -1.5146
   90MOL    H9444772   6.278   3.026   3.517  0.5970 -0.8637  1.7096
   90MOL    H9544773   6.354   3.289   3.113 -0.1764 -1.3108 -0.9199
   90MOL    H9644774   6.491   3.365   3.165 -1.7268  1.1081 -0.4675
   90MOL    H9744775   6.402   3.081   2.941 -1.1598  1.9396  1.1429
   90MOL    H9844776   6.501   3.017   2.722  1.4560  0.8597 -1.6716
   90MOL    H9944777   6.684   3.183   2.629 -0.4068  1.3197 -0.1030
   90MOL   H10044778   6.735   3.385   2.756 -2.0970  1.5787  0.4030
   90MOL   H10144779   6.637   3.413   2.983 -1.5816  1.6784 -1.1305
   90MOL   C10244780   6.621   3.020   3.452  0.5281  0.5436 -0.4113
   90MOL   C10344781   6.723   3.133   3.496  0.2520  0.6838 -0.2307
   90MOL   C10444782   6.661   3.218   3.620  0.6161  0.6127  0.3735
   90MOL   C10544783   6.754   3.234   3.379 -0.5141 -0.1992 -0.1518
   90MOL   O10644784   6.791   3.196   3.268 -0.2737 -0.1081  0.1334
   90MOL   O10744785   6.724   3.365   3.413  0.5604 -0.1210  0.5006
   90MOL   C10844786   6.725   3.461   3.301  0.3854 -0.0288 -0.1153
   90MOL   C10944787   6.782   3.596   3.342 -0.0480 -0.3326 -0.3174
   90MOL   C11044788   6.745   3.710   3.270 -0.4273  0.1680  0.1488
   90MOL   C11144789   6.799   3.837   3.307  0.2283 -0.2573  0.2167
   90MOL   C11244790   6.892   3.844   3.409 -0.2098  0.0313 -0.4086
   90MOL   C11344791   6.922   3.731   3.485 -0.7848  0.1187 -0.8044
   90MOL   C11444792   6.871   3.605   3.453  0.0094  0.0863  0.2506
   90MOL   H11544793   6.676   2.991   3.363  0.0345  0.5539 -0.7238
   90MOL   H11644794   6.636   2.929   3.511  0.9416  1.0564  0.2803
   90MOL   H11744795   6.581   3.285   3.588 -0.7978 -1.7170 -1.0995
   90MOL   H11844796   6.736   3.284   3.663  0.3475  0.8967  0.4090
   90MOL   H11944797   6.618   3.152   3.695  0.2056  1.9348  1.3172
   90MOL   H12044798   6.787   3.435   3.216  2.4732 -1.5347  1.8236
   90MOL   H12144799   6.623   3.471   3.264  0.3362  2.5658  0.6108
   90MOL   H12244800   6.682   3.711   3.182  0.9186  0.7873 -0.8307
   90MOL   H12344801   6.758   3.926   3.260  1.4496  0.9239  1.3431
   90MOL   H12444802   6.930   3.937   3.447  0.6225 -0.5437  0.1909
   90MOL   H12544803   6.995   3.745   3.563 -1.2537  0.6945 -0.4686
   90MOL   H12644804   6.899   3.525   3.520 -2.6819  0.1937  1.5900
   90MOL   C12744805   6.858   3.066   3.540  0.1636  0.1251 -0.0278
   90MOL   C12844806   6.894   2.972   3.660  0.3348 -0.1681  0.2182
   90MOL   C12944807   6.773   2.898   3.725  0.2030 -0.6859 -0.2129
   90MOL   C13044808   6.961   3.067   3.767  0.1984  0.2754  0.3175
   90MOL   O13144809   7.081   3.087   3.773 -0.7855 -0.1251  0.1147
   90MOL   O13244810   6.869   3.123   3.840  0.0889 -0.0492 -0.6496
   90MOL   C13344811   6.904   3.210   3.941 -0.0231  0.3597  0.1657
   90MOL   C13444812   6.968   3.341   3.897  0.3652 -0.3136  0.5424
   90MOL   C13544813   6.882   3.450   3.865  1.0902 -0.7626  1.2712
   90MOL   C13644814   6.931   3.570   3.818 -0.2899 -0.1538  0.3556
   90MOL   C13744815   7.067   3.594   3.818  0.4311 -0.0661 -0.3937
   90MOL   C13844816   7.156   3.489   3.852 -0.6800 -0.0379 -0.3595
   90MOL   C13944817   7.109   3.365   3.886 -0.1661 -0.2061  0.1270
   90MOL   H14044818   6.939   3.137   3.530 -1.9327  2.1882 -3.1658
   90MOL   H14144819   6.877   3.004   3.453  0.2005  0.4374 -0.2405
   90MOL   H14244820   6.820   2.854   3.813 -0.2649  0.4959  0.6359
   90MOL   H14344821   6.740   2.811   3.668  1.8342 -0.7545 -1.0879
   90MOL   H14444822   6.687   2.960   3.751  0.5316 -0.0688 -0.5948
   90MOL   H14544823   6.807   3.229   3.989  0.2399 -0.6319  1.0997
   90MOL   H14644824   6.964   3.168   4.022 -1.6506 -0.2761  1.0827
   90MOL   H14744825   6.775   3.453   3.881  1.2300  0.2314  2.0096
   90MOL   H14844826   6.856   3.639   3.783  1.2668  1.6748  0.5407
   90MOL   H14944827   7.111   3.678   3.765 -2.5853  1.5798 -0.4211
   90MOL   H15044828   7.263   3.505   3.841 -0.8646  0.0771 -2.2392
   90MOL   H15144829   7.176   3.282   3.907  0.2187 -0.7177 -2.9566
   90MOL   C15244830   7.009   2.877   3.617  0.1581 -0.0674  0.2618
   90MOL   C15344831   6.994   2.739   3.557  0.1260 -0.0122 -0.3748
   90MOL   C15444832   6.922   2.758   3.420  0.2016 -0.2172 -0.1979
   90MOL   C15544833   6.922   2.630   3.641 -0.2353 -0.3930 -0.2468
   90MOL   O15644834   6.833   2.554   3.592 -0.4925 -0.2296 -0.0145
   90MOL   O15744835   6.976   2.615   3.765 -0.6463  0.6990 -0.7790
   90MOL   C15844836   6.920   2.515   3.854 -0.1998 -0.4715  0.5302
   90MOL   C15944837   6.796   2.565   3.938 -0.0236 -0.3271  0.6244
   90MOL   C16044838   6.807   2.689   4.012  0.5050 -0.0874 -0.0554
   90MOL   C16144839   6.697   2.736   4.084 -0.3770 -0.7498  0.2738
   90MOL   C16244840   6.574   2.667   4.079 -0.1278 -0.6242  0.3865
   90MOL   C16344841   6.574   2.540   4.024  0.2274  0.1634 -0.1529
   90MOL   C16444842   6.678   2.486   3.949 -0.3594 -0.1216  0.2047
   90MOL   H16544843   7.066   2.861   3.709 -2.6824  1.4948  2.3694
   90MOL   H16644844   7.079   2.938   3.559 -0.3572  2.6247  2.3733
   90MOL   H16744845   6.957   2.845   3.364 -0.1226  2.0357  2.9550
   90MOL   H16844846   6.816   2.773   3.441  0.6693 -1.2471  3.1773
   90MOL   H16944847   6.936   2.673   3.352  0.0836  0.7288 -1.4193
   90MOL   H17044848   6.909   2.414   3.814  0.8112 -1.3512  2.3979
   90MOL   H17144849   6.998   2.497   3.929 -1.1751  0.3720  1.7667
   90MOL   H17244850   6.885   2.763   4.019  1.0267 -0.4643 -1.6932
   90MOL   H17344851   6.704   2.829   4.138  0.8425  0.6535 -2.2231
   90MOL   H17444852   6.490   2.702   4.138 -1.2596  2.5502 -2.9020
   90MOL   H17544853   6.492   2.472   4.044  0.0659  0.4073  0.0242
   90MOL   H17644854   6.677   2.383   3.915  2.3623 -0.1025 -0.0820
   90MOL   C17744855   7.134   2.668   3.532 -0.5072 -0.1925 -0.1862
   90MOL   C17844856   7.262   2.727   3.460  0.4608  0.4551  0.3331
   90MOL   C17944857   7.339   2.802   3.566  0.1234 -0.1761  0.6695
   90MOL   C18044858   7.231   2.816   3.332  0.4669  0.7275 -0.2453
   90MOL   O18144859   7.203   2.770   3.220  0.4029  0.0419  0.0649
   90MOL   O18244860   7.234   2.947   3.360 -0.0113 -0.2685 -0.4521
   90MOL   C18344861   7.202   3.050   3.267  0.1295 -0.2302  0.4926
   90MOL   C18444862   7.195   3.184   3.338 -0.2015 -0.1211  0.1804
   90MOL   C18544863   7.258   3.213   3.465 -0.1069  0.0455 -0.1879
   90MOL   C18644864   7.242   3.339   3.530 -0.6402 -0.1719 -0.2745
   90MOL   C18744865   7.163   3.436   3.468  0.3204 -0.4712 -0.1954
   90MOL   C18844866   7.105   3.408   3.339 -0.3924  0.6311  0.2394
   90MOL   C18944867   7.118   3.285   3.279  0.1803 -0.2699 -0.0008
   90MOL   H19044868   7.106   2.583   3.469 -0.3601 -1.0586  0.9129
   90MOL   H19144869   7.173   2.643   3.630 -0.3224  2.1495  0.3567
   90MOL   H19244870   7.276   2.876   3.615 -0.8515 -0.3996 -0.2328
   90MOL   H19344871   7.423   2.850   3.517 -1.1366 -0.9747 -2.4121
   90MOL   H19444872   7.389   2.745   3.644 -1.5969 -0.6487  1.4691
   90MOL   H19544873   7.290   3.045   3.202 -2.3037  2.3810 -3.1306
   90MOL   H19644874   7.111   3.027   3.212 -0.0672 -0.3563  0.8681
   90MOL   H19744875   7.318   3.132   3.503 -1.4563 -1.6373 -1.5277
   90MOL   H19844876   7.287   3.354   3.627 -3.1326 -0.9966  1.0756
   90MOL   H19944877   7.157   3.534   3.512  0.4243  0.8395 -2.9959
   90MOL   H20044878   7.040   3.482   3.294  0.2915 -0.7807 -3.2761
   90MOL   H20144879   7.047   3.270   3.200  0.2626  1.7662 -0.4843
   90MOL   C20244880   7.345   2.596   3.435 -0.1999  0.1090 -0.0782
   90MOL   C20344881   7.481   2.588   3.357 -0.3640 -0.6530 -0.4399
   90MOL   C20444882   7.579   2.706   3.393  0.0575 -0.3171  0.2645
   90MOL   C20544883   7.450   2.598   3.207  0.3210  0.0085  0.1468
   90MOL   O20644884   7.515   2.661   3.127 -0.1821 -0.3378 -0.0099
   90MOL   O20744885   7.349   2.524   3.166 -0.1373 -0.4115  0.3010
   90MOL   C20844886   7.311   2.521   3.032 -0.7747  0.0664 -0.0605
   90MOL   C20944887   7.169   2.466   3.017  0.1646  0.1921  0.0658
   90MOL   C21044888   7.120   2.458   2.885  0.5604  0.4384 -0.5530
   90MOL   C21144889   6.985   2.425   2.866  0.4142  0.6995  0.5956
   90MOL   C21244890   6.900   2.384   2.975 -0.8988  0.4712 -0.2648
   90MOL   C21344891   6.949   2.397   3.104 -0.5884 -0.0307 -0.9592
   90MOL   C21444892   7.084   2.432   3.126 -0.2656  0.1607 -0.0134
   90MOL   H21544893   7.283   2.526   3.378  0.6954  0.6761 -1.7871
   90MOL   H21644894   7.359   2.549   3.532 -1.4550 -0.0540  0.0377
   90MOL   H21744895   7.678   2.702   3.348  0.7538  1.3033  1.5955
   90MOL   H21844896   7.595   2.714   3.500 -0.8426 -0.6672  0.4295
   90MOL   H21944897   7.533   2.796   3.351 -1.0360 -0.5330  0.9746
   90MOL   H22044898   7.319   2.616   2.979  2.7385  0.1106  0.4048
   90MOL   H22144899   7.391   2.459   2.992  0.2585 -0.6587  2.9892
   90MOL   H22244900   7.169   2.480   2.792 -1.2751  1.8068 -1.2389
   90MOL   H22344901   6.941   2.399   2.771 -0.6749  1.0290  1.0043
   90MOL   H22444902   6.799   2.349   2.958 -1.4950  1.6819  0.6810
   90MOL   H22544903   6.874   2.365   3.175  0.9920 -0.7772  0.4142
   90MOL   H22644904   7.110   2.437   3.230 -1.3600  2.3811  0.1882
   90MOL   C22744905   7.559   2.458   3.405 -0.2818 -0.0476  0.0387
   90MOL   C22844906   7.654   2.371   3.313  0.3800 -0.3339  0.3045
   90MOL   C22944907   7.772   2.458   3.270  0.6761 -0.5836  0.1289
   90MOL   C23044908   7.576   2.312   3.191  0.2551 -0.0122 -0.1903
   90MOL   O23144909   7.595   2.337   3.072  0.4263  0.5918 -0.5060
   90MOL   O23244910   7.472   2.238   3.240  0.2621 -0.1165 -0.4319
   90MOL   C23344911   7.396   2.170   3.141  0.0931 -0.0531 -0.5986
   90MOL   C23444912   7.278   2.090   3.207  0.1522 -0.0606  0.1991
   90MOL   C23544913   7.288   2.061   3.346  0.0584  0.6935  0.4287
   90MOL   C23644914   7.185   1.995   3.416  0.6726  0.4954 -0.1733
   90MOL   C23744915   7.075   1.935   3.341 -0.8856  0.1877  0.9988
   90MOL   C23844916   7.071   1.968   3.204  0.8065 -0.0449  0.4267
   90MOL   C23944917   7.168   2.046   3.139  0.7905  0.2571  0.0750
   90MOL   H24044918   7.488   2.383   3.440  0.7688 -0.1565  2.0500
   90MOL   H24144919   7.622   2.482   3.491  2.1956 -0.2069 -1.6663
   90MOL   H24244920   7.813   2.505   3.359 -1.1754 -0.6851  1.0396
   90MOL   H24344921   7.744   2.542   3.206 -1.2020 -0.5511  0.9615
   90MOL   H24444922   7.846   2.397   3.217 -0.1206 -0.8657 -0.6697
   90MOL   H24544923   7.344   2.241   3.076  2.4622  1.1798 -1.1929
   90MOL   H24644924   7.455   2.105   3.077  0.9536 -0.5736  0.6993
   90MOL   H24744925   7.371   2.098   3.404  1.7108 -2.7771  0.3686
   90MOL   H24844926   7.183   1.977   3.523 -0.1730  0.9473 -0.1126
   90MOL   H24944927   7.002   1.865   3.378 -0.2207 -1.2302 -0.3167
   90MOL   H25044928   6.983   1.933   3.151 -0.0588 -0.0526  1.8533
   90MOL   H25144929   7.158   2.079   3.036 -0.9369 -0.4832 -0.0095
   90MOL   C25244930   7.701   2.248   3.401 -0.6066 -0.4541  0.3473
   90MOL   C25344931   7.806   2.140   3.353  0.4891 -0.6818 -0.1628
   90MOL   C25444932   7.779   2.096   3.206 -0.1243  0.2339  0.7568
   90MOL   C25544933   7.788   2.018   3.446 -0.0325 -0.2020  0.1655
   90MOL   O25644934   7.760   1.909   3.406  0.1684  0.2941  0.0527
   90MOL   O25744935   7.797   2.052   3.576  0.0929 -0.2845 -0.4865
   90MOL   C25844936   7.747   1.965   3.675  0.3516 -0.1849 -0.2700
   90MOL   C25944937   7.821   1.973   3.812 -0.0469 -0.2107 -0.1419
   90MOL   C26044938   7.959   1.998   3.798  0.2715 -0.8332 -0.0292
   90MOL   C26144939   0.027   2.025   3.911 -0.4261  0.1674 -0.0350
   90MOL   C26244940   7.975   2.016   4.033  0.5053  0.1932 -0.5525
   90MOL   C26344941   7.840   1.977   4.051 -0.4558 -0.0459 -0.2567
   90MOL   C26444942   7.757   1.961   3.937  0.2600  0.5002 -0.2308
   90MOL   H26544943   7.610   2.194   3.428 -1.4767  0.7493 -0.0843
   90MOL   H26644944   7.741   2.294   3.491 -0.7591  2.1149 -0.8623
   90MOL   H26744945   7.675   2.068   3.190  0.3582 -1.4813  0.4963
   90MOL   H26844946   7.829   2.005   3.172 -1.8485 -1.0111  1.4834
   90MOL   H26944947   7.805   2.171   3.132 -2.6538 -0.9750 -1.4401
   90MOL   H27044948   7.641   1.983   3.691  0.2457 -0.3304 -0.8158
   90MOL   H27144949   7.751   1.863   3.635  0.9539 -0.8966  1.5463
   90MOL   H27244950   0.002   2.016   3.704  0.5695 -0.8682  0.1199
   90MOL   H27344951   0.132   2.052   3.903 -0.2349  1.5398  4.9933
   90MOL   H27444952   0.028   2.030   4.121  1.4495 -1.0154 -0.9864
   90MOL   H27544953   7.800   1.967   4.151  3.0930 -2.0868  1.0824
   90MOL   H27644954   7.652   1.940   3.949  0.5846 -1.2023 -0.2628
   90MOL   C27744955   7.959   2.194   3.367  0.1291  0.3559  0.3333
   90MOL   C27844956   0.087   2.129   3.310  0.0193 -0.4004 -0.0178
   90MOL   C27944957   0.068   1.976   3.322 -0.5615 -0.2643  0.4855
   90MOL   C28044958   0.202   2.179   3.408  0.9037 -0.6844  0.0449
   90MOL   O28144959   0.252   2.100   3.492  0.5456 -0.2037  0.2191
   90MOL   O28244960   0.241   2.309   3.395 -0.0760  0.5923  0.2300
   90MOL   C28344961   0.358   2.355   3.467  0.5129  0.4182  0.5296
   90MOL   C28444962   0.389   2.500   3.427 -0.7165 -0.1454  0.5693
   90MOL   C28544963   0.515   2.548   3.458 -0.0632  0.8166  0.0262
   90MOL   C28644964   0.549   2.677   3.420  0.0230  0.3206 -0.2525
   90MOL   C28744965   0.467   2.758   3.347 -0.3004 -0.5063  0.0358
   90MOL   C28844966   0.339   2.713   3.316  0.2623 -1.3166  0.5910
   90MOL   C28944967   0.302   2.580   3.353 -0.9055 -0.1708  0.3768
   90MOL   H29044968   7.967   2.198   3.475 -1.2187 -0.7163  0.4850
   90MOL   H29144969   7.967   2.301   3.347  0.4386  0.1203 -0.8438
   90MOL   H29244970   0.045   1.944   3.424 -0.3908  0.1108  0.6447
   90MOL   H29344971   0.169   1.940   3.301 -0.7482 -0.3875 -0.2183
   90MOL   H29444972   8.004   1.929   3.254 -1.1130  1.5449 -0.2108
   90MOL   H29544973   0.322   2.369   3.568  0.6540  2.3104  0.3434
   90MOL   H29644974   0.439   2.283   3.475  1.3354  1.1694 -0.7863
   90MOL   H29744975   0.581   2.484   3.515 -0.1049  0.5219 -0.2516
   90MOL   H29844976   0.647   2.711   3.450 -0.0116  0.3965 -0.2260
   90MOL   H29944977   0.493   2.861   3.326 -0.2649 -0.1543  1.7586
   90MOL   H30044978   0.272   2.780   3.264  1.9492  1.1720  1.5376
   90MOL   H30144979   0.207   2.536   3.326 -0.7114  0.0421 -0.6475
   90MOL   C30244980   0.108   2.184   3.172 -0.1577 -0.5647  0.3740
   90MOL   C30344981   0.194   2.118   3.056 -0.5838 -0.2212  0.5328
   90MOL   C30444982   0.124   1.985   3.023  0.1555 -0.1408 -0.0864
   90MOL   C30544983   0.340   2.090   3.097  0.2434 -0.6179  0.5736
   90MOL   O30644984   0.400   2.168   3.166  0.1394 -0.2947 -0.4096
   90MOL   O30744985   0.395   1.993   3.023 -0.0967  0.0580  0.1233
   90MOL   C30844986   0.538   1.972   3.016 -0.1877  0.5023  0.1011
   90MOL   C30944987   0.574   1.837   2.946  0.5138 -0.2071 -0.0148
   90MOL   C31044988   0.493   1.791   2.842  0.2880 -0.2759  0.8763
   90MOL   C31144989   0.540   1.678   2.766  0.4591 -0.3959 -0.6186
   90MOL   C31244990   0.665   1.617   2.797 -0.3656 -0.4591  0.3003
   90MOL   C31344991   0.727   1.652   2.915  0.3755 -0.0389  0.4159
   90MOL   C31444992   0.684   1.760   2.993 -0.6691  1.0011 -0.2288
   90MOL   H31544993   0.153   2.283   3.178 -0.4507 -0.4019 -0.0872
   90MOL   H31644994   0.008   2.206   3.134  0.5695  0.3955 -1.0168
   90MOL   H31744995   0.165   1.952   2.928  1.4067  1.1416 -0.0026
   90MOL   H31844996   0.015   1.989   3.016  0.0871  0.7481  1.2796
   90MOL   H31944997   0.157   1.903   3.086  0.8874 -0.6630 -1.1327
   90MOL   H32044998   0.593   2.062   2.989  2.1014 -0.3437  1.8352
   90MOL   H32144999   0.574   1.968   3.119  1.9355  0.3756 -0.6327
   90MOL   H32245000   0.404   1.841   2.809  2.4780  2.8510 -0.4939
   90MOL   H32345001   0.476   1.645   2.685 -0.5048  1.4370 -0.6319
   90MOL   H32445002   0.709   1.534   2.744 -0.2689 -0.2195  0.0003
   90MOL   H32545003   0.817   1.600   2.947 -0.5532 -2.3855 -0.6899
   90MOL   H32645004   0.739   1.784   3.083 -0.6572 -3.0618  0.9649
   90MOL   C32745005   0.186   2.196   2.917 -0.2390 -0.4362  0.3759
   90MOL   C32845006   0.231   2.347   2.896 -0.5182  0.2799  0.3823
   90MOL   C32945007   0.365   2.375   2.961 -0.3018  0.3512  0.1819
   90MOL   C33045008   0.124   2.443   2.948  0.2629 -0.3697  0.0487
   90MOL   O33145009   0.012   2.407   2.978 -0.2295  0.7067  0.4071
   90MOL   O33245010   0.164   2.568   2.943  0.2831  0.0142 -0.0306
   90MOL   C33345011   0.079   2.671   2.996 -0.8930  0.2360 -0.4338
   90MOL   C33445012   7.971   2.705   2.905  0.0439  0.2245  0.2090
   90MOL   C33545013   8.000   2.765   2.779  0.6455  0.4490 -0.0502
   90MOL   C33645014   7.896   2.773   2.686 -1.0380  0.3048 -0.0918
   90MOL   C33745015   7.762   2.738   2.725 -0.2691 -0.5133  0.0674
   90MOL   C33845016   7.733   2.713   2.860 -0.3101  0.3491  0.7955
   90MOL   C33945017   7.841   2.687   2.946 -0.0151 -0.1791  0.0207
   90MOL   H34045018   0.088   2.185   2.871 -0.9656 -3.2959  2.4391
   90MOL   H34145019   0.247   2.135   2.851  1.6464  0.2075  1.4718
   90MOL   H34245020   0.437   2.298   2.934 -0.8069  0.1936 -0.7702
   90MOL   H34345021   0.359   2.385   3.069 -1.5184 -1.6745  0.3489
   90MOL   H34445022   0.411   2.465   2.921  0.9337 -0.3238  0.0759
   90MOL   H34545023   0.038   2.633   3.089 -0.0774 -1.8349 -0.8851
   90MOL   H34645024   0.146   2.751   3.026 -0.1807 -0.3696 -0.3894
   90MOL   H34745025   0.089   2.794   2.738  0.0600  0.8506 -1.1634
   90MOL   H34845026   7.920   2.806   2.586  0.0390 -2.0362 -0.6634
   90MOL   H34945027   7.682   2.750   2.652 -1.1391 -1.5355  0.8288
   90MOL   H35045028   7.632   2.681   2.881 -0.3201 -1.5679 -1.8967
   90MOL   H35145029   7.824   2.653   3.047  0.0374 -2.1447 -0.6018
   90MOL   C35245030   0.250   2.371   2.739  0.3936 -0.4953 -0.0361
   90MOL   C35345031   0.155   2.322   2.618 -0.3900 -0.4539  0.5997
   90MOL   C35445032   8.007   2.342   2.648  0.1103  0.2335 -0.1799
   90MOL   C35545033   0.187   2.172   2.597  0.2022 -0.4820  0.1261
   90MOL   O35645034   0.304   2.123   2.606  0.0788  1.2292  0.2294
   90MOL   O35745035   0.082   2.099   2.555 -0.1031  0.8148 -0.2010
   90MOL   C35845036   0.105   1.962   2.524  0.2843  0.7128  0.0339
   90MOL   C35945037   7.988   1.883   2.488 -0.6195  0.1945  0.6387
   90MOL   C36045038   7.923   1.815   2.588  0.1557 -0.1962 -0.0809
   90MOL   C36145039   7.797   1.754   2.554  0.2298  0.1991  0.1149
   90MOL   C36245040   7.747   1.756   2.420  0.3389 -0.2379 -0.5060
   90MOL   C36345041   7.813   1.836   2.322 -0.0650  0.5554 -0.4600
   90MOL   C36445042   7.942   1.891   2.355 -0.7272  0.1951 -0.6007
   90MOL   H36545043   0.353   2.345   2.712 -0.0117 -0.9442 -1.1781
   90MOL   H36645044   0.258   2.479   2.721  1.2509  0.0373  3.2464
   90MOL   H36745045   7.938   2.347   2.564 -0.6144  0.9884  0.4524
   90MOL   H36845046   7.983   2.438   2.694  1.6463  0.2659  0.5729
   90MOL   H36945047   7.973   2.262   2.715 -1.0619  0.8225 -0.0632
   90MOL   H37045048   0.163   1.960   2.432 -1.0219  0.1028 -0.7945
   90MOL   H37145049   0.166   1.914   2.601  2.0135  2.1880 -0.3876
   90MOL   H37245050   7.960   1.813   2.690  2.5412 -2.0774 -0.9234
   90MOL   H37345051   7.738   1.707   2.632 -1.1953 -0.9049 -1.6017
   90MOL   H37445052   7.650   1.716   2.395  0.5060 -1.6217  1.0151
   90MOL   H37545053   7.773   1.841   2.222  1.9616 -3.7038 -1.6013
   90MOL   H37645054   7.981   1.963   2.285 -0.5713  1.8359  1.1218
   90MOL   C37745055   0.194   2.404   2.484 -0.2611 -0.1474 -0.2973
   90MOL   C37845056   0.184   2.360   2.332 -0.2280 -0.2638  0.6401
   90MOL   C37945057   0.042   2.301   2.302 -0.8456 -0.1595  0.2121
   90MOL   C38045058   0.299   2.255   2.299 -0.5855 -0.4251 -0.0989
   90MOL   O38145059   0.415   2.267   2.340  0.0072 -0.2212  0.5131
   90MOL   O38245060   0.259   2.179   2.199  0.1404  0.6917  0.2679
   90MOL   C38345061   0.351   2.083   2.149 -0.2607 -0.4798  0.1159
   90MOL   C38445062   0.369   1.964   2.243 -0.2279  0.6498 -0.4316
   90MOL   C38545063   0.280   1.856   2.234 -0.3941  0.1036 -0.4773
   90MOL   C38645064   0.289   1.741   2.320  0.4583  0.7127 -0.1189
   90MOL   C38745065   0.398   1.723   2.414 -0.9082  0.1508  0.3101
   90MOL   C38845066   0.489   1.835   2.420  0.4720 -0.0100 -0.4090
   90MOL   C38945067   0.478   1.946   2.331  1.1799  0.2604 -0.1210
   90MOL   H39045068   0.290   2.452   2.499 -1.3928  1.6198  1.5606
   90MOL   H39145069   0.123   2.487   2.494 -0.1616 -0.1784  0.6528
   90MOL   H39245070   0.044   2.196   2.332  0.6998 -0.0173  0.6444
   90MOL   H39345071   0.014   2.328   2.200 -0.4821  0.8505  0.3782
   90MOL   H39445072   7.981   2.363   2.361  1.7564  0.9281  2.1916
   90MOL   H39545073   0.317   2.054   2.050  2.0035  2.4954 -1.6252
   90MOL   H39645074   0.448   2.132   2.142 -0.4779  0.2144  1.5970
   90MOL   H39745075   0.191   1.862   2.172 -0.5125  0.7275 -0.2546
   90MOL   H39845076   0.211   1.668   2.308 -0.1523  0.5660  3.8690
   90MOL   H39945077   0.418   1.632   2.469  0.7325  0.2778 -0.0623
   90MOL   H40045078   0.579   1.832   2.480  0.3601  0.9123 -0.1903
   90MOL   H40145079   0.548   2.027   2.346 -1.4397  2.8349 -1.4566
   90MOL   C40245080   0.220   2.477   2.235  0.1443 -0.6543  0.3139
   90MOL   C40345081   0.165   2.633   2.249 -0.2805  0.1101  0.4388
   90MOL   C40445082   0.201   2.716   2.116 -0.4995  0.4348 -0.3983
   90MOL   C40545083   0.244   2.705   2.368  0.5728  0.1046  0.2315
   90MOL   O40645084   0.187   2.726   2.479  0.2963 -0.5719  0.3405
   90MOL   O40745085   0.376   2.713   2.355  0.4691 -0.1461  0.2795
   90MOL   C40845086   0.456   2.758   2.460  0.5730 -0.5159 -0.0933
   90MOL   C40945087   0.604   2.737   2.446  0.3031  0.3859 -0.3179
   90MOL   C41045088   0.657   2.747   2.317 -0.2146  0.4106  0.4491
   90MOL   C41145089   0.792   2.732   2.286  0.5457 -0.6205  0.4278
   90MOL   C41245090   0.885   2.724   2.390 -0.7141 -0.1487 -0.1619
   90MOL   C41345091   0.840   2.728   2.524 -0.5782  0.1005 -0.6423
   90MOL   C41445092   0.701   2.719   2.555 -0.3639 -0.3454 -0.1811
   90MOL   H41545093   0.203   2.447   2.132  2.5747 -2.1095  0.2915
   90MOL   H41645094   0.327   2.497   2.228  0.1023 -1.3540 -3.3866
   90MOL   H41745095   0.206   2.655   2.026  0.6472 -0.4041  0.2188
   90MOL   H41845096   0.304   2.750   2.123 -0.5571  0.4450  0.4617
   90MOL   H41945097   0.139   2.803   2.094  0.3964  1.1871 -0.0199
   90MOL   H42045098   0.419   2.850   2.506  1.4134 -0.8000  1.1974
   90MOL   H42145099   0.432   2.689   2.541  1.3653  0.1322  0.7020
   90MOL   H42245100   0.584   2.752   2.237 -1.1156 -1.1282  1.1319
   90MOL   H42345101   0.829   2.738   2.184 -1.4552 -2.7309 -0.4670
   90MOL   H42445102   0.989   2.723   2.362 -1.0468  0.2459 -1.4307
   90MOL   H42545103   0.913   2.718   2.604 -0.3519  0.0678 -0.8524
   90MOL   H42645104   0.680   2.723   2.661  0.8644 -0.8767  0.0939
   90MOL   C42745105   0.007   2.628   2.279 -0.3906  0.0757 -0.1966
   90MOL   C42845106   7.914   2.741   2.236 -0.5266 -0.2980  0.0506
   90MOL   C42945107   7.950   2.884   2.284  0.0105 -0.3844 -0.5678
   90MOL   C43045108   7.790   2.692   2.316  0.0123  0.7425  0.4700
   90MOL   O43145109   7.727   2.756   2.403  0.0878  0.1888  0.2800
   90MOL   O43245110   7.745   2.572   2.284  0.0784 -0.0162 -0.6174
   90MOL   C43345111   7.640   2.511   2.354 -0.3382  0.0773  0.5533
   90MOL   C43445112   7.592   2.381   2.289  0.1395 -1.2515  0.1814
   90MOL   C43545113   7.682   2.271   2.285 -0.1759 -0.0601 -0.5419
   90MOL   C43645114   7.640   2.150   2.224  0.1677 -0.3612 -0.2742
   90MOL   C43745115   7.510   2.141   2.170  0.0474  0.2703 -0.7151
   90MOL   C43845116   7.429   2.254   2.173 -0.1101  0.1276  0.1372
   90MOL   C43945117   7.470   2.378   2.222 -0.6633 -0.0687  0.4934
   90MOL   H44045118   0.000   2.600   2.384  0.2185  1.0809  0.1108
   90MOL   H44145119   7.971   2.542   2.226 -2.4171 -0.4706  2.2012
   90MOL   H44245120   0.034   2.931   2.248  0.6191 -2.2455 -1.5430
   90MOL   H44345121   7.975   2.866   2.388  2.2804  0.5914 -0.9272
   90MOL   H44445122   7.875   2.963   2.290 -1.4561 -1.8326  0.5190
   90MOL   H44545123   7.669   2.488   2.456  2.2256 -0.1177 -0.1885
   90MOL   H44645124   7.562   2.587   2.357  1.7693  2.4960 -2.4033
   90MOL   H44745125   7.777   2.283   2.333 -0.3741 -3.3687  0.8476
   90MOL   H44845126   7.700   2.061   2.236  0.8838  0.1192 -0.3214
   90MOL   H44945127   7.483   2.045   2.127 -0.1232  0.1092 -0.2539
   90MOL   H45045128   7.335   2.236   2.122 -0.0892 -1.4472  0.6293
   90MOL   H45145129   7.412   2.470   2.221 -0.1914  0.2186 -1.3099
   90MOL   C45245130   7.884   2.737   2.080 -1.1329  0.2139  0.2595
   90MOL   C45345131   7.803   2.840   1.992 -0.8301 -0.2226  0.7701
   90MOL   C45445132   7.865   2.982   2.011  0.3578  0.1515  0.5586
   90MOL   C45545133   7.652   2.841   2.007 -0.0844  0.1365  0.1903
   90MOL   O45645134   7.576   2.939   2.022 -0.0890  0.1148 -0.1108
   90MOL   O45745135   7.605   2.708   2.003  0.4525  0.0387 -0.5317
   90MOL   C45845136   7.467   2.679   2.007  0.0124 -0.3485 -0.0087
   90MOL   C45945137   7.415   2.711   1.867 -0.3359 -0.6251  0.2694
   90MOL   C46045138   7.477   2.661   1.749  0.2050  0.0054  0.7074
   90MOL   C46145139   7.425   2.698   1.621 -0.3539 -0.1285  0.9223
   90MOL   C46245140   7.321   2.793   1.612  0.4065 -0.2003  0.1889
   90MOL   C46345141   7.265   2.848   1.728  0.3303  0.2555  0.1266
   90MOL   C46445142   7.311   2.807   1.854  0.2219 -0.1061  0.6355
   90MOL   H46545143   7.834   2.642   2.063 -1.4748  0.2521  1.0293
   90MOL   H46645144   7.978   2.715   2.029 -1.6223 -0.4579 -0.3649
   90MOL   H46745145   7.811   3.031   2.092 -0.4713 -0.4670  0.3881
   90MOL   H46845146   7.848   3.048   1.926  0.7314  2.6450  2.3573
   90MOL   H46945147   7.971   2.985   2.035  0.5791 -1.6992 -0.1161
   90MOL   H47045148   7.455   2.574   2.033 -1.1789 -0.5310 -1.2407
   90MOL   H47145149   7.416   2.741   2.080 -0.6535  0.2863 -1.0007
   90MOL   H47245150   7.569   2.607   1.764  0.7995  0.6569 -0.5549
   90MOL   H47345151   7.481   2.661   1.536  0.9146  3.0646  0.3232
   90MOL   H47445152   7.311   2.842   1.516  0.2703  0.1948  0.4029
   90MOL   H47545153   7.195   2.930   1.721 -2.2952 -1.9791 -0.4346
   90MOL   H47645154   7.266   2.846   1.945  0.4589 -0.8674  1.0780
   90MOL   C47745155   7.824   2.798   1.843 -0.2301  0.1002 -0.9245
   90MOL   C47845156   7.964   2.830   1.783  0.1660 -0.0730  0.6495
   90MOL   C47945157   7.959   2.910   1.652 -0.3291  0.4629 -0.0819
   90MOL   C48045158   0.050   2.716   1.767 -0.3648  0.4852  0.4971
   90MOL   O48145159   0.172   2.725   1.746 -0.1195  0.0296  0.2653
   90MOL   O48245160   7.995   2.597   1.765  0.0996  0.5958 -0.1370
   90MOL   C48345161   0.063   2.480   1.764  0.5290  0.5614 -0.2152
   90MOL   C48445162   7.996   2.360   1.820  0.3304 -0.0239  0.4911
   90MOL   C48545163   0.058   2.256   1.890 -0.4631  0.0860  0.4497
   90MOL   C48645164   8.002   2.146   1.949  0.2927  0.3933 -0.2832
   90MOL   C48745165   7.866   2.139   1.940 -0.0238 -0.3183  0.6075
   90MOL   C48845166   7.792   2.245   1.874 -0.0221  0.6812  0.0020
   90MOL   C48945167   7.856   2.363   1.824 -0.6352 -0.7002 -0.4219
   90MOL   H49045168   7.745   2.828   1.774 -0.1859  0.1647 -0.9473
   90MOL   H49145169   7.798   2.693   1.839 -0.0148  0.0282 -0.5401
   90MOL   H49245170   7.891   2.849   1.592 -1.0688 -0.3831  1.5843
   90MOL   H49345171   0.046   2.920   1.598 -0.5040  2.3340 -0.0739
   90MOL   H49445172   7.909   3.006   1.669 -1.3686  0.0644 -0.7885
   90MOL   H49545173   0.097   2.463   1.662  0.4963 -3.4532  0.3584
   90MOL   H49645174   0.157   2.495   1.818 -0.3549  2.1306  0.9597
   90MOL   H49745175   0.165   2.251   1.903 -0.5398  0.4109  1.2639
   90MOL   H49845176   0.050   2.058   1.980  0.7202  0.2828 -1.3121
   90MOL   H49945177   7.810   2.053   1.973  0.9459 -1.1245  0.1610
   90MOL   H50045178   7.685   2.240   1.858  0.2219 -0.6250 -1.3338
   90MOL   H50145179   7.804   2.450   1.786  0.6917  0.1732 -0.2775
   90MOL   H50245180   0.010   2.888   1.859  0.6526 -1.2948  1.2521
   91MOL     C145181   5.087   3.498   1.970 -0.3443 -0.2628  0.7895
   91MOL     C245182   5.238   3.478   1.967  0.0759  0.0359  0.2079
   91MOL     C345183   5.311   3.613   1.953 -0.4458 -0.1236  0.5855
   91MOL     C445184   5.273   3.393   1.839 -0.1303  0.2034 -0.5014
   91MOL     O545185   5.367   3.418   1.764 -0.1328  0.1950  0.3677
   91MOL     O645186   5.188   3.285   1.827 -0.5704 -0.1401 -0.6204
   91MOL     C745187   5.207   3.192   1.721  0.7903 -0.2415 -0.0699
   91MOL     C845188   5.098   3.087   1.704 -0.4620 -1.0777  0.3228
   91MOL     C945189   4.983   3.086   1.787  0.0043 -0.1585 -0.1959
   91MOL    C1045190   4.882   2.991   1.757  0.0324  0.0522 -0.3013
   91MOL    C1145191   4.904   2.900   1.653 -0.6870 -0.3489  0.1290
   91MOL    C1245192   5.024   2.905   1.573 -0.1679  0.2744 -0.2414
   91MOL    C1345193   5.125   2.999   1.603 -0.1833 -0.3146  1.0602
   91MOL    H1445194   5.020   3.415   1.988  1.0769 -1.3055  1.3698
   91MOL    H1545195   5.057   3.594   2.012  0.0540  1.6194 -2.9847
   91MOL    H1645196   5.273   3.673   1.870 -2.6353 -0.6919  1.1465
   91MOL    H1745197   5.413   3.604   1.918 -0.5726 -0.5369  0.3135
   91MOL    H1845198   5.304   3.679   2.039  1.4028  0.9150 -0.0455
   91MOL    H1945199   5.228   3.252   1.632 -0.7469  2.2049  1.1761
   91MOL    H2045200   5.302   3.143   1.739  0.0232 -1.6006  0.3910
   91MOL    H2145201   4.963   3.164   1.859 -0.7274  0.4354 -1.0341
   91MOL    H2245202   4.794   2.994   1.820 -0.4076  0.4412 -0.9291
   91MOL    H2345203   4.835   2.820   1.628 -1.0139  0.3856 -1.4005
   91MOL    H2445204   5.032   2.836   1.490  0.5115 -2.2796  1.8786
   91MOL    H2545205   5.213   3.002   1.541 -2.5177 -0.8602 -2.4559
   91MOL    H2645206   5.062   3.533   1.869 -0.5712  0.7278  1.1757
   91MOL    C2745207   5.297   3.390   2.080 -0.4221 -0.9416 -0.9692
   91MOL    C2845208   5.318   3.434   2.222 -0.4686 -0.2486  0.1958
   91MOL    C2945209   5.183   3.513   2.267 -0.2503  0.5086  0.5166
   91MOL    C3045210   5.431   3.539   2.239 -0.2410 -1.0560  0.5919
   91MOL    O3145211   5.428   3.623   2.325  0.4768  0.0125 -0.1601
   91MOL    O3245212   5.529   3.537   2.154 -0.2585 -0.3419  0.1066
   91MOL    C3345213   5.646   3.619   2.170 -0.0222  0.1768 -0.6635
   91MOL    C3445214   5.769   3.544   2.219  0.9014  0.1360 -0.0112
   91MOL    C3545215   5.826   3.442   2.132 -0.1224  0.4963 -0.5601
   91MOL    C3645216   5.943   3.377   2.177  0.3946  0.7189  0.2337
   91MOL    C3745217   5.999   3.411   2.298  0.3321  0.0716 -0.9713
   91MOL    C3845218   5.948   3.513   2.380 -0.7886 -0.1063  0.0019
   91MOL    C3945219   5.822   3.571   2.346  0.0686 -0.6717 -0.0787
   91MOL    H4045220   5.390   3.342   2.052  0.0954 -0.2534 -0.4609
   91MOL    H4145221   5.235   3.304   2.103 -0.8387 -0.3467  0.1684
   91MOL    H4245222   5.101   3.462   2.217  0.6756 -0.4462 -0.0383
   91MOL    H4345223   5.184   3.617   2.234  0.5581 -0.2583 -2.0307
   91MOL    H4445224   5.182   3.531   2.375 -3.6139 -1.9017  0.9522
   91MOL    H4545225   5.659   3.660   2.070 -2.5921  1.3187 -0.5920
   91MOL    H4645226   5.626   3.700   2.239 -0.5514 -1.0711  0.6844
   91MOL    H4745227   5.778   3.409   2.041  0.5309  1.3868 -1.2385
   91MOL    H4845228   5.989   3.296   2.123 -2.4000  0.1764 -1.3786
   91MOL    H4945229   6.089   3.357   2.324  2.0506  1.8785 -2.9206
   91MOL    H5045230   5.987   3.545   2.475 -0.7749  1.5623 -0.5417
   91MOL    H5145231   5.775   3.633   2.420 -1.0335 -0.0598 -1.2748
   91MOL    C5245232   5.333   3.310   2.322  0.3770 -0.8431  0.2470
   91MOL    C5345233   5.434   3.189   2.302  0.1818 -0.3682  1.9535
   91MOL    C5445234   5.569   3.244   2.254 -0.2946 -0.1129 -0.5538
   91MOL    C5545235   5.378   3.094   2.194 -0.0838  0.6572 -0.3495
   91MOL    O5645236   5.417   3.097   2.077  0.8681 -0.0413  0.0733
   91MOL    O5745237   5.262   3.040   2.231 -0.5866 -0.5350 -0.1518
   91MOL    C5845238   5.167   2.980   2.144  0.0968  1.0422 -0.5349
   91MOL    C5945239   5.220   2.854   2.095  0.6412 -0.1859  0.4352
   91MOL    C6045240   5.250   2.842   1.964 -0.2935  0.2929  0.5534
   91MOL    C6145241   5.295   2.716   1.901  0.0987  1.3390 -0.5121
   91MOL    C6245242   5.323   2.612   1.995 -0.2968 -0.0703  0.5695
   91MOL    C6345243   5.284   2.619   2.136  0.8912 -0.0623  0.2022
   91MOL    C6445244   5.223   2.740   2.182 -0.1449 -0.0742 -0.2938
   91MOL    H6545245   5.233   3.269   2.333  1.1767 -2.4686  1.9703
   91MOL    H6645246   5.351   3.348   2.423  1.3796  1.9195 -0.9310
   91MOL    H6745247   5.645   3.167   2.240 -0.2121  0.2232 -2.0306
   91MOL    H6845248   5.591   3.319   2.330 -1.4714  0.0649 -0.3838
   91MOL    H6945249   5.566   3.296   2.158 -0.1139 -1.3857 -1.2690
   91MOL    H7045250   5.075   2.972   2.201  0.4996  1.1078  0.1345
   91MOL    H7145251   5.140   3.053   2.067  1.0146 -0.0410 -1.9119
   91MOL    H7245252   5.240   2.935   1.909  0.4317  0.4104  0.6161
   91MOL    H7345253   5.330   2.709   1.799  1.0890 -0.2556 -0.0865
   91MOL    H7445254   5.382   2.528   1.959  1.0013  0.5955  1.1328
   91MOL    H7545255   5.316   2.540   2.202  1.5025  1.5088  1.8374
   91MOL    H7645256   5.189   2.739   2.285  0.6913 -0.3552 -0.0129
   91MOL    C7745257   5.452   3.112   2.432 -0.9987 -0.5922 -0.2788
   91MOL    C7845258   5.559   2.996   2.472 -0.2486  0.5896  0.1303
   91MOL    C7945259   5.698   3.063   2.494 -0.0078 -0.3359 -0.0702
   91MOL    C8045260   5.563   2.883   2.373 -0.6319 -0.2275  0.1617
   91MOL    O8145261   5.477   2.791   2.369  0.5724  0.0115 -0.1621
   91MOL    O8245262   5.662   2.896   2.293 -0.6759 -1.2591 -0.0141
   91MOL    C8345263   5.662   2.807   2.184 -0.5956 -0.2487 -0.2686
   91MOL    C8445264   5.769   2.823   2.090 -0.2777  0.4352  0.5342
   91MOL    C8545265   5.776   2.735   1.981  0.9133 -0.3755 -0.5114
   91MOL    C8645266   5.877   2.759   1.887  0.4037  0.4001 -0.6092
   91MOL    C8745267   5.978   2.852   1.904 -0.0546 -0.0784 -0.6417
   91MOL    C8845268   5.975   2.927   2.019  0.3111  0.4478  0.5880
   91MOL    C8945269   5.870   2.920   2.112  0.0081 -0.0334  0.1150
   91MOL    H9045270   5.357   3.069   2.462 -0.7457  0.3695  2.0522
   91MOL    H9145271   5.470   3.186   2.511  0.4914  0.0518 -1.2121
   91MOL    H9245272   5.698   3.135   2.576  0.5812 -1.0138  0.5345
   91MOL    H9345273   5.749   3.109   2.410  1.3393 -1.9821 -0.2015
   91MOL    H9445274   5.771   2.989   2.526 -1.7414 -2.0920 -0.0488
   91MOL    H9545275   5.644   2.703   2.214 -0.8046 -0.2202 -0.2904
   91MOL    H9645276   5.576   2.818   2.117  0.7907  1.7313 -1.7838
   91MOL    H9745277   5.694   2.669   1.959  0.6675 -0.3195  0.2305
   91MOL    H9845278   5.883   2.689   1.805  0.6588  0.1127 -0.3458
   91MOL    H9945279   6.067   2.855   1.842 -0.5814 -0.4831 -1.4239
   91MOL   H10045280   6.054   2.999   2.035  0.9083 -0.1880  0.5627
   91MOL   H10145281   5.872   2.980   2.201  0.1336 -0.5464  0.4650
   91MOL   C10245282   5.510   2.945   2.615  0.2008  0.0139  0.6896
   91MOL   C10345283   5.587   2.856   2.725  0.9616  0.0841  0.3572
   91MOL   C10445284   5.489   2.785   2.821 -0.2259 -0.4648 -0.4995
   91MOL   C10545285   5.660   2.961   2.817  0.7032  0.7446  0.5755
   91MOL   O10645286   5.778   2.980   2.804 -0.1913 -0.7391  0.0725
   91MOL   O10745287   5.580   3.036   2.892  0.3456 -0.2704 -0.1997
   91MOL   C10845288   5.629   3.123   2.992  0.5847  0.0224 -0.0992
   91MOL   C10945289   5.632   3.056   3.127  0.0251  0.4361 -0.1136
   91MOL   C11045290   5.526   3.069   3.217 -0.6065 -0.7017 -0.0696
   91MOL   C11145291   5.539   3.012   3.348 -0.8299 -0.5083  0.2965
   91MOL   C11245292   5.656   2.939   3.378 -0.0314  0.3989  0.3056
   91MOL   C11345293   5.756   2.918   3.284  0.2479 -0.2868 -0.4737
   91MOL   C11445294   5.744   2.971   3.154  0.1205  0.0636 -0.7376
   91MOL   H11545295   5.412   2.897   2.608  0.1552  0.3253 -1.1254
   91MOL   H11645296   5.492   3.040   2.666  1.8439 -0.2618  1.7998
   91MOL   H11745297   5.540   2.756   2.913  0.7529  0.2438 -0.8132
   91MOL   H11845298   5.426   2.716   2.766 -2.1059  0.9679 -0.1974
   91MOL   H11945299   5.417   2.863   2.848  0.5407 -0.0333  0.3452
   91MOL   H12045300   5.731   3.162   2.982  0.1112  1.0900 -0.8895
   91MOL   H12145301   5.567   3.212   2.999  2.0272  0.9675  1.0214
   91MOL   H12245302   5.440   3.125   3.182  0.8401  1.1361 -0.7493
   91MOL   H12345303   5.457   3.011   3.419 -0.3740 -0.3753  0.8288
   91MOL   H12445304   5.653   2.902   3.479  0.7001  0.2475  0.2790
   91MOL   H12545305   5.837   2.851   3.310 -0.9547 -1.9547 -0.9057
   91MOL   H12645306   5.825   2.965   3.083  0.6063 -1.6249 -0.0733
   91MOL   C12745307   5.676   2.743   2.667  0.4099 -0.4276  0.5469
   91MOL   C12845308   5.730   2.608   2.737  0.4798  0.5465 -0.4894
   91MOL   C12945309   5.611   2.509   2.734 -0.3981 -0.2171  0.3266
   91MOL   C13045310   5.780   2.624   2.883 -0.0216  0.3959 -0.6092
   91MOL   O13145311   5.807   2.735   2.928 -0.5662  0.6782  0.5325
   91MOL   O13245312   5.796   2.506   2.948  0.6713 -0.0945  0.3765
   91MOL   C13345313   5.857   2.494   3.078  0.4769  0.0819  1.0081
   91MOL   C13445314   5.768   2.444   3.192 -0.7661  0.1112  0.0038
   91MOL   C13545315   5.742   2.517   3.307 -0.0857 -0.0341 -0.8909
   91MOL   C13645316   5.671   2.453   3.411 -0.5671  0.6657 -0.2318
   91MOL   C13745317   5.624   2.319   3.393 -0.4391  1.0021  0.0904
   91MOL   C13845318   5.648   2.256   3.272 -0.1850 -0.4660  0.6913
   91MOL   C13945319   5.725   2.317   3.172 -0.0845 -0.4300  0.5997
   91MOL   H14045320   5.771   2.792   2.644  0.4750 -1.2284 -0.9108
   91MOL   H14145321   5.635   2.717   2.570 -2.1059 -1.7835  1.9341
   91MOL   H14245322   5.548   2.525   2.647 -0.1226  0.7614  0.3006
   91MOL   H14345323   5.555   2.526   2.826  2.5397  2.3631  1.7422
   91MOL   H14445324   5.629   2.402   2.733  0.3615 -0.0817 -0.7057
   91MOL   H14545325   5.920   2.405   3.071 -1.0849 -1.0913  1.5749
   91MOL   H14645326   5.919   2.577   3.112  1.4388  0.1984 -0.9421
   91MOL   H14745327   5.772   2.621   3.315 -2.2407  0.8694 -3.6973
   91MOL   H14845328   5.656   2.502   3.506 -1.0625  0.4226 -0.1848
   91MOL   H14945329   5.571   2.271   3.473  1.6249 -0.5599  0.5599
   91MOL   H15045330   5.615   2.153   3.269 -1.6720  0.0276 -0.6378
   91MOL   H15145331   5.746   2.272   3.076 -0.3050 -0.0778  0.3840
   91MOL   C15245332   5.843   2.524   2.655  0.0791 -0.1718  0.2635
   91MOL   C15345333   5.978   2.583   2.611 -0.1702 -0.0634  0.3066
   91MOL   C15445334   6.039   2.671   2.731  0.1103 -0.0068 -0.6644
   91MOL   C15545335   5.962   2.679   2.495  0.0704  0.2438  0.0533
   91MOL   O15645336   5.863   2.670   2.424  0.0084 -0.2066 -0.0255
   91MOL   O15745337   6.071   2.753   2.479 -0.7437 -0.3865 -0.2608
   91MOL   C15845338   6.084   2.826   2.358  0.6114  0.3710  0.5623
   91MOL   C15945339   6.224   2.876   2.330  0.3030 -0.3323  0.6586
   91MOL   C16045340   6.333   2.811   2.398 -0.1629  0.3064  0.3896
   91MOL   C16145341   6.456   2.873   2.394  0.5982 -0.3859  0.4602
   91MOL   C16245342   6.478   2.997   2.330  0.1563 -0.6850  0.1910
   91MOL   C16345343   6.369   3.066   2.276  0.3433  0.9189 -0.8723
   91MOL   C16445344   6.245   3.006   2.271 -0.5556 -0.1945 -0.1053
   91MOL   H16545345   5.802   2.481   2.565  0.7427 -0.5010  0.1156
   91MOL   H16645346   5.869   2.440   2.719 -1.3969 -0.5673  0.3359
   91MOL   H16745347   6.048   2.601   2.814 -1.5807  0.8833  0.2901
   91MOL   H16845348   5.986   2.764   2.753 -1.1257 -0.3134 -2.2690
   91MOL   H16945349   6.141   2.706   2.717 -0.6040  3.0942  1.4669
   91MOL   H17045350   6.046   2.772   2.271 -0.2951  0.4096  0.9239
   91MOL   H17145351   6.021   2.914   2.371  0.5547 -0.0198  3.1789
   91MOL   H17245352   6.313   2.721   2.454  0.3015 -0.6327 -0.9367
   91MOL   H17345353   6.543   2.831   2.443 -0.9986 -0.2397  3.5210
   91MOL   H17445354   6.575   3.045   2.336 -0.8189  1.1916  1.4008
   91MOL   H17545355   6.375   3.162   2.226  0.5821  0.1325 -2.3936
   91MOL   H17645356   6.168   3.070   2.229  1.9230  2.3935 -0.8813
   91MOL   C17745357   6.092   2.482   2.580 -0.3469 -0.0407  0.1661
   91MOL   C17845358   6.088   2.365   2.469 -0.4386 -0.3962 -0.8719
   91MOL   C17945359   6.071   2.435   2.331 -0.5499 -0.1863  0.0569
   91MOL   C18045360   5.978   2.264   2.499 -0.3439 -0.8813  0.4365
   91MOL   O18145361   5.889   2.248   2.417 -0.0873 -0.0308 -0.6988
   91MOL   O18245362   5.983   2.196   2.618 -0.3575 -0.1388 -0.4588
   91MOL   C18345363   5.858   2.132   2.657  0.8350 -0.5723  0.4589
   91MOL   C18445364   5.870   2.079   2.798 -0.4637  0.3605 -0.2094
   91MOL   C18545365   5.756   2.062   2.877 -0.3105  0.1624  0.5685
   91MOL   C18645366   5.764   2.009   3.006  0.6357 -0.3689  0.8353
   91MOL   C18745367   5.884   1.966   3.052 -0.3300  0.1876  0.2800
   91MOL   C18845368   6.001   1.980   2.974 -0.4444 -0.0150  0.5704
   91MOL   C18945369   5.998   2.044   2.849 -0.5231  0.3029 -0.4519
   91MOL   H19045370   6.115   2.436   2.676 -1.9238 -1.8208 -0.2744
   91MOL   H19145371   6.174   2.546   2.545  0.0050 -2.0584 -2.9365
   91MOL   H19245372   6.140   2.519   2.322  1.5462 -1.7295  0.9940
   91MOL   H19345373   5.975   2.471   2.297  0.2085  1.3230 -0.5229
   91MOL   H19445374   6.099   2.358   2.259  0.2769  1.2680 -1.1923
   91MOL   H19545375   5.780   2.209   2.649  0.3236 -1.1086  0.2304
   91MOL   H19645376   5.824   2.052   2.593 -1.0508  1.3898 -1.0852
   91MOL   H19745377   5.661   2.098   2.841 -0.5418  0.0072  1.0131
   91MOL   H19845378   5.676   2.012   3.069 -0.6978  3.3366 -1.0524
   91MOL   H19945379   5.902   1.916   3.146 -1.1604 -2.2851 -0.8460
   91MOL   H20045380   6.100   1.943   2.996 -0.2346 -0.0403 -0.3635
   91MOL   H20145381   6.085   2.059   2.787 -0.9660 -0.2043 -1.2091
   91MOL   C20245382   6.220   2.273   2.474 -0.3950 -0.2635  0.7611
   91MOL   C20345383   6.374   2.315   2.469 -0.0059 -0.5725 -0.7249
   91MOL   C20445384   6.411   2.378   2.599 -0.1358 -0.3070 -0.6931
   91MOL   C20545385   6.397   2.429   2.363 -1.1774 -0.1353 -0.0115
   91MOL   O20645386   6.462   2.531   2.388 -0.2746  0.3307 -0.2696
   91MOL   O20745387   6.358   2.399   2.238 -0.0262 -0.5594 -0.5942
   91MOL   C20845388   6.392   2.486   2.127  0.2561  0.4532  0.0526
   91MOL   C20945389   6.315   2.446   2.001 -0.8485  0.3283 -0.1045
   91MOL   C21045390   6.201   2.518   1.958  0.2764  0.0074  0.6220
   91MOL   C21145391   6.131   2.476   1.836  0.3732  0.6679  0.4663
   91MOL   C21245392   6.176   2.357   1.771 -0.4394 -0.4403  0.0673
   91MOL   C21345393   6.296   2.291   1.815  0.6394 -0.4947 -0.3653
   91MOL   C21445394   6.358   2.333   1.929 -0.1455 -0.1446  0.5891
   91MOL   H21545395   6.192   2.196   2.402  0.2491 -0.4861  0.7460
   91MOL   H21645396   6.210   2.228   2.573 -0.8480  0.1320  0.8980
   91MOL   H21745397   6.373   2.319   2.683 -1.4421  0.9100 -0.4054
   91MOL   H21845398   6.370   2.478   2.610 -2.3437 -1.1540 -0.8710
   91MOL   H21945399   6.519   2.389   2.607 -0.2134 -0.0541 -0.0003
   91MOL   H22045400   6.338   2.575   2.160  1.2996  1.5991 -1.2688
   91MOL   H22145401   6.498   2.506   2.111  0.4256 -2.3982 -3.0730
   91MOL   H22245402   6.168   2.595   2.027  1.9703  1.5917 -0.2959
   91MOL   H22345403   6.045   2.529   1.798  0.5952 -1.1688 -2.7519
   91MOL   H22445404   6.131   2.323   1.679 -1.5910  1.5116 -0.1005
   91MOL   H22545405   6.330   2.206   1.757 -1.2734  0.4027 -2.9066
   91MOL   H22645406   6.448   2.278   1.955  0.0047  0.9776  2.5187
   91MOL   C22745407   6.462   2.191   2.431  0.0417 -0.4783 -0.2021
   91MOL   C22845408   6.500   2.066   2.517 -0.3443  0.5232  0.5712
   91MOL   C22945409   6.559   1.954   2.421 -0.5267 -0.5309  0.5833
   91MOL   C23045410   6.373   2.010   2.577 -0.2373 -0.3163 -0.7846
   91MOL   O23145411   6.334   2.020   2.699  0.0695 -0.2985  0.1574
   91MOL   O23245412   6.298   1.952   2.492  0.2088  0.1454 -0.2132
   91MOL   C23345413   6.181   1.888   2.534  0.1817 -0.6615  0.6641
   91MOL   C23445414   6.199   1.746   2.589  0.2949  0.6044  0.1381
   91MOL   C23545415   6.210   1.725   2.729 -0.1064  0.2882  0.3585
   91MOL   C23645416   6.230   1.589   2.768 -0.3984  0.4473  0.2728
   91MOL   C23745417   6.258   1.485   2.675  0.2548  0.5583 -0.2631
   91MOL   C23845418   6.264   1.518   2.538  0.1460 -0.2119 -0.6085
   91MOL   C23945419   6.225   1.648   2.496  0.4805  0.0326 -0.1333
   91MOL   H24045420   6.559   2.237   2.414 -0.8107  0.5580 -2.4066
   91MOL   H24145421   6.427   2.161   2.332 -0.8934  1.1204 -0.3620
   91MOL   H24245422   6.562   1.852   2.460 -1.5472 -0.0133  2.0264
   91MOL   H24345423   6.662   1.982   2.399 -1.6428  2.8967 -0.6213
   91MOL   H24445424   6.506   1.956   2.326  0.9628  0.4423 -0.2486
   91MOL   H24545425   6.124   1.955   2.599 -0.9260 -0.3387 -0.5981
   91MOL   H24645426   6.126   1.879   2.441  0.7627 -0.9324  0.3468
   91MOL   H24745427   6.204   1.806   2.799  0.5677  0.4249  0.2585
   91MOL   H24845428   6.243   1.560   2.871 -0.9004 -0.7352  0.0125
   91MOL   H24945429   6.280   1.383   2.702 -0.1558  0.1811 -1.3208
   91MOL   H25045430   6.297   1.446   2.465 -1.7585  0.7929 -2.5322
   91MOL   H25145431   6.222   1.669   2.391  1.4474 -0.2754 -0.2247
   91MOL   C25245432   6.615   2.104   2.626 -0.0089  0.0467  0.2507
   91MOL   C25345433   6.701   2.003   2.711  0.4028 -0.0235  0.2764
   91MOL   C25445434   6.748   2.084   2.835 -0.3191  0.5729  0.7061
   91MOL   C25545435   6.826   1.969   2.623  0.1205 -0.5565 -0.1200
   91MOL   O25645436   6.849   1.862   2.567  0.2069 -0.0389 -0.8274
   91MOL   O25745437   6.899   2.075   2.593  0.1555 -0.3962 -0.4974
   91MOL   C25845438   7.019   2.055   2.518  0.2288  0.0497 -0.2695
   91MOL   C25945439   7.086   2.186   2.487  1.0036 -0.3869 -0.4709
   91MOL   C26045440   7.198   2.229   2.561  0.0660  0.1001  0.4758
   91MOL   C26145441   7.259   2.353   2.536  0.3636 -0.1721 -0.0223
   91MOL   C26245442   7.207   2.436   2.437 -0.1417  0.8194 -0.0727
   91MOL   C26345443   7.101   2.386   2.360 -0.1700  0.1137  1.1604
   91MOL   C26445444   7.040   2.265   2.384  0.7569  0.7958  0.6598
   91MOL   H26545445   6.555   2.161   2.697 -0.8900 -1.2666  0.5789
   91MOL   H26645446   6.683   2.181   2.588 -0.6838  0.3813 -0.3036
   91MOL   H26745447   6.791   2.184   2.828  2.2565 -0.6090 -0.7372
   91MOL   H26845448   6.829   2.022   2.874  0.9851  0.2783 -2.4035
   91MOL   H26945449   6.683   2.100   2.921 -0.5986  0.7452  0.4625
   91MOL   H27045450   7.087   1.991   2.575 -0.4014  1.7831  2.5106
   91MOL   H27145451   6.986   2.007   2.426 -1.0175  1.8615 -0.7926
   91MOL   H27245452   7.235   2.172   2.645  0.7923  0.0723  0.1355
   91MOL   H27345453   7.343   2.383   2.597 -0.7034 -2.6853  2.8116
   91MOL   H27445454   7.254   2.532   2.425 -0.1870  0.7461 -0.8210
   91MOL   H27545455   7.050   2.442   2.283 -0.2428 -1.3663  0.1127
   91MOL   H27645456   6.954   2.230   2.330  1.1592 -0.6278  0.9269
   91MOL   C27745457   6.625   1.869   2.752  1.1141 -0.1891 -0.3940
   91MOL   C27845458   6.656   1.780   2.874 -0.4196 -0.1741 -0.5097
   91MOL   C27945459   6.565   1.657   2.860  0.8227 -0.3737  0.2400
   91MOL   C28045460   6.611   1.847   3.005  0.1852  0.1287 -0.1351
   91MOL   O28145461   6.684   1.863   3.102 -0.9140  0.8216 -0.4357
   91MOL   O28245462   6.479   1.884   3.002 -0.4664 -0.3002  0.1551
   91MOL   C28345463   6.420   1.961   3.106  0.0951 -0.4181 -0.4727
   91MOL   C28445464   6.309   1.881   3.179  0.2063  0.2530  0.0053
   91MOL   C28545465   6.236   1.946   3.279  0.1061 -0.0576 -0.3050
   91MOL   C28645466   6.130   1.876   3.344  0.1239  0.1687  0.0285
   91MOL   C28745467   6.096   1.742   3.316  0.2816  0.5265  0.6860
   91MOL   C28845468   6.168   1.679   3.209 -0.2659  0.0323 -0.9080
   91MOL   C28945469   6.275   1.747   3.145 -0.0800  0.6128 -0.5588
   91MOL   H29045470   6.615   1.809   2.662 -0.1559 -0.3107 -0.1748
   91MOL   H29145471   6.521   1.898   2.766  0.4408 -2.2621 -0.9454
   91MOL   H29245472   6.563   1.589   2.945 -1.4264 -1.0001 -0.2823
   91MOL   H29345473   6.594   1.595   2.775 -0.8915 -0.9619  0.0633
   91MOL   H29445474   6.461   1.687   2.843  1.2084  1.6959  1.4227
   91MOL   H29545475   6.492   2.007   3.173  0.1166  0.6499 -1.2019
   91MOL   H29645476   6.365   2.037   3.050  1.1505 -0.3225 -1.4044
   91MOL   H29745477   6.275   2.038   3.322 -0.6614 -0.0186  0.3244
   91MOL   H29845478   6.082   1.931   3.423 -3.0643 -3.4739  0.7892
   91MOL   H29945479   6.020   1.698   3.379  0.6696 -0.5283  0.4302
   91MOL   H30045480   6.134   1.580   3.182  2.5899 -0.3895 -3.2862
   91MOL   H30145481   6.327   1.686   3.074 -0.4434 -0.0656 -0.2510
   91MOL   C30245482   6.812   1.744   2.881  1.1806 -0.0668 -0.0144
   91MOL   C30345483   6.867   1.606   2.940  0.2018 -0.1450 -0.1836
   91MOL   C30445484   6.836   1.488   2.844 -0.0911  0.0240  0.0357
   91MOL   C30545485   6.818   1.571   3.080  0.3638  0.0330 -0.5720
   91MOL   O30645486   6.724   1.486   3.098  0.0434 -0.1748 -0.0426
   91MOL   O30745487   6.895   1.628   3.181  0.7141 -0.2771 -0.0449
   91MOL   C30845488   6.871   1.600   3.315 -0.1877 -0.2720 -0.3350
   91MOL   C30945489   6.979   1.522   3.391  0.2609  0.8011 -0.1361
   91MOL   C31045490   6.938   1.403   3.453 -0.3196 -0.3874  0.2024
   91MOL   C31145491   7.028   1.345   3.548  0.6456  0.2314 -0.8531
   91MOL   C31245492   7.153   1.403   3.582 -0.3626  0.1924  0.1919
   91MOL   C31345493   7.195   1.516   3.515 -0.2498  0.2150  0.0595
   91MOL   C31445494   7.106   1.577   3.420 -0.1623 -0.7974  0.3399
   91MOL   H31545495   6.854   1.826   2.940  0.0358 -0.4134  1.3253
   91MOL   H31645496   6.860   1.756   2.784  0.4952  1.5243 -0.1672
   91MOL   H31745497   6.858   1.520   2.742 -2.0125 -0.5999 -0.5966
   91MOL   H31845498   6.731   1.459   2.847 -0.8545  1.9041 -4.1500
   91MOL   H31945499   6.884   1.394   2.868  0.6190  1.0616  2.9244
   91MOL   H32045500   6.863   1.694   3.367 -1.9362 -1.5604  1.7873
   91MOL   H32145501   6.776   1.548   3.325 -0.2639 -0.1089 -0.2254
   91MOL   H32245502   6.843   1.354   3.441  0.4887 -1.8166 -0.5567
   91MOL   H32345503   6.987   1.261   3.601 -0.0100  2.1442  1.7729
   91MOL   H32445504   7.221   1.356   3.652  0.3111 -0.9726 -1.1993
   91MOL   H32545505   7.294   1.556   3.532  0.0912 -1.0226  1.0678
   91MOL   H32645506   7.131   1.672   3.374 -2.5862 -0.1329  0.3044
   91MOL   C32745507   7.025   1.640   2.941 -0.5304 -0.0354  0.5742
   91MOL   C32845508   7.139   1.526   2.960  0.9501 -0.4044  0.5270
   91MOL   C32945509   7.108   1.425   3.072  0.5741 -0.0023 -0.3102
   91MOL   C33045510   7.267   1.606   3.004 -0.2818  0.6487  0.2282
   91MOL   O33145511   7.327   1.588   3.107 -0.2793 -0.3584  0.0298
   91MOL   O33245512   7.296   1.702   2.919  0.0009  0.1495 -0.4445
   91MOL   C33345513   7.396   1.798   2.950 -0.0647  0.3004  0.0946
   91MOL   C33445514   7.449   1.877   2.834  0.6892 -0.3344 -0.3767
   91MOL   C33545515   7.558   1.969   2.843  0.4850 -0.6904 -0.0035
   91MOL   C33645516   7.590   2.054   2.738 -0.4215  0.9197 -0.9963
   91MOL   C33745517   7.517   2.054   2.618  0.0405  0.1000  0.7676
   91MOL   C33845518   7.420   1.955   2.596 -0.5771 -0.1140 -0.5935
   91MOL   C33945519   7.393   1.868   2.701 -0.6480  0.8270  0.2800
   91MOL   H34045520   7.039   1.715   3.018 -1.0766 -1.3362  1.9646
   91MOL   H34145521   7.039   1.699   2.851 -1.8855 -0.0102  0.3769
   91MOL   H34245522   7.177   1.341   3.074  1.5905  0.8306 -0.1303
   91MOL   H34345523   7.009   1.383   3.054  0.7325 -1.1250  1.3608
   91MOL   H34445524   7.112   1.472   3.170 -3.5128 -1.9749  0.9170
   91MOL   H34545525   7.346   1.854   3.029 -2.0449 -1.1993 -0.0632
   91MOL   H34645526   7.478   1.734   2.983 -0.7272 -0.2185  0.7554
   91MOL   H34745527   7.606   1.987   2.938  1.7890  1.9224 -1.1290
   91MOL   H34845528   7.669   2.125   2.758  1.7807 -1.8275  0.3809
   91MOL   H34945529   7.544   2.125   2.540  0.8951 -2.0109 -0.9019
   91MOL   H35045530   7.369   1.951   2.502  0.7716  1.0969 -1.4045
   91MOL   H35145531   7.308   1.804   2.681  0.8446 -1.4147  0.8956
   91MOL   C35245532   7.166   1.453   2.822  0.3535 -0.1420  0.1864
   91MOL   C35345533   7.213   1.304   2.799  1.0074  0.0349  0.0278
   91MOL   C35445534   7.089   1.210   2.827 -0.3621  0.2151 -0.5189
   91MOL   C35545535   7.326   1.263   2.886 -0.6989 -0.4155 -0.1545
   91MOL   O35645536   7.333   1.154   2.936 -0.2737  0.9424  0.2226
   91MOL   O35745537   7.420   1.359   2.905 -0.6534 -0.2723 -0.0577
   91MOL   C35845538   7.536   1.331   2.984 -0.4228 -0.3706 -0.0041
   91MOL   C35945539   7.628   1.449   2.996 -0.0065 -0.6363 -0.1941
   91MOL   C36045540   7.632   1.514   3.120 -0.0447 -0.5170 -0.5025
   91MOL   C36145541   7.714   1.625   3.144  0.2474 -0.3695 -0.4529
   91MOL   C36245542   7.795   1.663   3.037 -0.3083 -0.1883  0.3611
   91MOL   C36345543   7.791   1.593   2.913  0.0498  0.2934 -0.8885
   91MOL   C36445544   7.707   1.487   2.888 -0.0983 -0.3268 -0.1931
   91MOL   H36545545   7.234   1.515   2.764 -0.0512 -1.3894 -1.6856
   91MOL   H36645546   7.073   1.471   2.767  0.6077  0.7384  0.0482
   91MOL   H36745547   7.064   1.211   2.933  0.8466  0.6244 -0.2282
   91MOL   H36845548   7.108   1.104   2.812  2.4162  0.1392  2.8291
   91MOL   H36945549   7.006   1.244   2.766 -0.1234 -2.6411 -2.4979
   91MOL   H37045550   7.498   1.299   3.081 -0.8076  0.5831  0.1715
   91MOL   H37145551   7.584   1.247   2.934 -0.8842 -0.8350  0.3298
   91MOL   H37245552   7.564   1.492   3.201  0.2491 -0.5494 -0.2637
   91MOL   H37345553   7.710   1.682   3.235 -1.6336 -1.1420 -0.0444
   91MOL   H37445554   7.855   1.753   3.033 -1.1743  0.3319 -1.4111
   91MOL   H37545555   7.856   1.626   2.833 -0.9340 -0.1689 -1.8987
   91MOL   H37645556   7.714   1.453   2.786  4.0756 -0.7166  0.1644
   91MOL   C37745557   7.249   1.274   2.648  0.2062 -0.0803 -0.5723
   91MOL   C37845558   7.311   1.379   2.552  0.2170 -0.9204  0.0511
   91MOL   C37945559   7.441   1.448   2.602 -1.1521 -0.3528 -0.1158
   91MOL   C38045560   7.203   1.485   2.511 -0.5103 -0.7360  0.7086
   91MOL   O38145561   7.235   1.597   2.482 -0.6462  0.2359 -0.3667
   91MOL   O38245562   7.082   1.439   2.510 -0.1214  0.0927  0.4591
   91MOL   C38345563   6.983   1.512   2.445 -0.5567 -0.1880 -1.4014
   91MOL   C38445564   6.851   1.436   2.458  0.2001 -0.1302 -0.7149
   91MOL   C38545565   6.845   1.311   2.395 -0.5931 -0.2170  0.1572
   91MOL   C38645566   6.721   1.236   2.391  0.0937  0.3560  0.0386
   91MOL   C38745567   6.609   1.284   2.448 -0.6883  0.8405 -0.4599
   91MOL   C38845568   6.612   1.415   2.499 -0.7330  0.2968  0.1784
   91MOL   C38945569   6.732   1.489   2.511  0.4933  0.4598  0.2877
   91MOL   H39045570   7.160   1.238   2.597 -0.3277  1.1130 -0.4998
   91MOL   H39145571   7.313   1.186   2.644 -1.2704 -1.1374 -1.6840
   91MOL   H39245572   7.423   1.495   2.699 -1.1822 -0.5576 -0.0222
   91MOL   H39345573   7.474   1.535   2.545 -2.4550  1.0625  1.2142
   91MOL   H39445574   7.526   1.381   2.603 -0.6001  0.3466  0.7593
   91MOL   H39545575   6.967   1.610   2.490 -0.3150 -0.4548 -0.7263
   91MOL   H39645576   7.001   1.520   2.338 -1.1960 -2.5463 -1.7135
   91MOL   H39745577   6.935   1.265   2.356 -0.2438  0.2953  0.3534
   91MOL   H39845578   6.723   1.138   2.346  0.2793 -0.5367  1.9447
   91MOL   H39945579   6.517   1.231   2.430 -1.4405  1.8906  0.2333
   91MOL   H40045580   6.520   1.457   2.535 -0.1091  1.1853  0.7667
   91MOL   H40145581   6.733   1.593   2.540  0.4519  0.6753 -0.4624
   91MOL   C40245582   7.356   1.282   2.430 -0.1528  0.3123  0.2716
   91MOL   C40345583   7.402   1.322   2.289  0.8438 -0.0038 -0.2237
   91MOL   C40445584   7.508   1.432   2.302  0.3703  0.0560  0.0963
   91MOL   C40545585   7.281   1.378   2.202 -0.6074  0.3328  0.3858
   91MOL   O40645586   7.169   1.349   2.231  0.3893 -0.3983 -0.0538
   91MOL   O40745587   7.324   1.456   2.095 -0.0566  0.7974 -0.0078
   91MOL   C40845588   7.240   1.511   1.993  0.5759 -0.3241  0.0127
   91MOL   C40945589   7.234   1.666   2.016 -0.1753  0.0172 -0.5170
   91MOL   C41045590   7.163   1.740   1.919  0.2154  0.2582 -0.3889
   91MOL   C41145591   7.141   1.877   1.943 -0.4115  1.3482 -0.2043
   91MOL   C41245592   7.207   1.940   2.047 -0.5687 -0.1493 -0.4613
   91MOL   C41345593   7.267   1.865   2.152  0.0046  0.3064 -0.3920
   91MOL   C41445594   7.281   1.728   2.134  0.0660  0.1449  0.4198
   91MOL   H41545595   7.278   1.210   2.406 -1.9356  1.1112  3.3553
   91MOL   H41645596   7.425   1.206   2.467 -1.1848  0.1933  1.9965
   91MOL   H41745597   7.575   1.413   2.385  2.3036  0.6655 -1.2909
   91MOL   H41845598   7.454   1.525   2.320  0.4164 -0.1734  1.4609
   91MOL   H41945599   7.571   1.455   2.216 -1.7427 -0.8514 -1.7756
   91MOL   H42045600   7.283   1.490   1.895 -1.0064 -1.6469 -0.4140
   91MOL   H42145601   7.141   1.468   1.996  0.1252  0.7756  1.8779
   91MOL   H42245602   7.127   1.689   1.831  0.7018  0.3583 -0.6452
   91MOL   H42345603   7.095   1.930   1.861  0.8692 -0.3771 -2.0590
   91MOL   H42445604   7.201   2.048   2.049  2.2199  0.1051 -2.2470
   91MOL   H42545605   7.294   1.916   2.243  0.9021  0.4520 -0.7388
   91MOL   H42645606   7.319   1.671   2.218 -1.8778  0.6147  1.6493
   91MOL   C42745607   7.468   1.185   2.241  0.0552 -0.3590  0.4229
   91MOL   C42845608   7.525   1.156   2.098  0.4158  0.0146 -0.5938
   91MOL   C42945609   7.658   1.226   2.066 -0.1944 -0.4020 -0.1869
   91MOL   C43045610   7.425   1.187   1.985  0.0527 -0.4641 -0.2378
   91MOL   O43145611   7.451   1.252   1.883 -0.1775 -0.1000 -0.0371
   91MOL   O43245612   7.304   1.129   2.010  0.2306  0.2531  0.5116
   91MOL   C43345613   7.190   1.155   1.929  0.1383 -0.2055  0.2363
   91MOL   C43445614   7.063   1.105   1.987  0.1930  0.3548  0.8372
   91MOL   C43545615   7.054   1.059   2.121  1.1233 -0.2560 -0.2637
   91MOL   C43645616   6.930   1.016   2.175 -0.1389  0.2266 -0.3526
   91MOL   C43745617   6.817   1.018   2.100 -0.1276  0.8766  0.2292
   91MOL   C43845618   6.822   1.052   1.962  0.8522 -0.3691 -0.5684
   91MOL   C43945619   6.946   1.099   1.905 -0.0492 -0.1104  0.5326
   91MOL   H44045620   7.388   1.113   2.253  0.4032 -0.7346  0.5022
   91MOL   H44145621   7.544   1.166   2.317  0.7356  3.1414  0.7137
   91MOL   H44245622   7.709   1.184   1.979  0.3246  0.2280 -0.1997
   91MOL   H44345623   7.729   1.215   2.147  0.1848  0.9121 -0.3134
   91MOL   H44445624   7.654   1.331   2.037  0.8229 -0.8546 -2.0911
   91MOL   H44545625   7.172   1.262   1.919 -1.3195 -0.2267  2.3178
   91MOL   H44645626   7.213   1.101   1.837  1.7966  1.9996 -0.7205
   91MOL   H44745627   7.144   1.059   2.181  0.6605  0.4166  0.4339
   91MOL   H44845628   6.913   0.991   2.278 -0.1818  2.7870  0.3024
   91MOL   H44945629   6.724   0.987   2.144 -0.7802  1.8889 -0.4296
   91MOL   H45045630   6.731   1.038   1.907  0.0293 -1.1084  0.9418
   91MOL   H45145631   6.944   1.128   1.801 -2.3420  1.3124  0.9177
   91MOL   C45245632   7.541   0.999   2.087  0.7351  0.5097  0.5542
   91MOL   C45345633   7.671   0.920   2.142  1.2724  0.1655 -0.3108
   91MOL   C45445634   7.691   0.968   2.296  0.3296  0.5192  0.6319
   91MOL   C45545635   7.801   0.936   2.060 -0.7305 -0.5310 -0.4187
   91MOL   O45645636   7.903   1.001   2.103 -0.0791  0.1223 -0.7854
   91MOL   O45745637   7.800   0.867   1.939  0.5603 -0.0518 -0.3059
   91MOL   C45845638   7.924   0.878   1.862  0.4222  0.6197  0.1331
   91MOL   C45945639   7.943   0.752   1.773 -0.9959  0.4438  0.0984
   91MOL   C46045640   7.845   0.648   1.781 -1.0844  0.0811  0.7606
   91MOL   C46145641   7.859   0.530   1.706  0.6317 -0.1589  0.0883
   91MOL   C46245642   7.963   0.518   1.610  0.9429  0.0504  0.1417
   91MOL   C46345643   0.055   0.622   1.598 -0.1133  0.5434  0.2254
   91MOL   C46445644   0.041   0.738   1.673  0.2631 -0.1731 -0.3038
   91MOL   H46545645   7.525   0.967   1.984 -3.4326  2.8320  0.4018
   91MOL   H46645646   7.457   0.950   2.134 -0.7425 -0.5961 -3.0338
   91MOL   H46745647   7.601   0.953   2.356 -1.3109 -0.7976 -2.0701
   91MOL   H46845648   7.726   1.071   2.304 -0.5743  0.7691  1.5056
   91MOL   H46945649   7.766   0.902   2.339 -0.1409  0.6811  1.7158
   91MOL   H47045650   7.929   0.972   1.808 -2.1166  1.1906  0.8320
   91MOL   H47145651   0.005   0.863   1.924 -1.2676 -3.6361  1.7342
   91MOL   H47245652   7.759   0.661   1.845 -1.1519  1.3933  0.4065
   91MOL   H47345653   7.782   0.456   1.717 -0.0569  0.6047  0.5000
   91MOL   H47445654   7.974   0.430   1.548  2.8264  0.2893  0.1139
   91MOL   H47545655   0.137   0.606   1.530 -1.3860 -0.4039 -1.1094
   91MOL   H47645656   0.104   0.825   1.662  0.7699 -0.3602  1.0861
   91MOL   C47745657   7.630   0.768   2.138  0.1472  0.4888  0.2333
   91MOL   C47845658   7.732   0.657   2.182 -0.2709 -0.1385 -0.1840
   91MOL   C47945659   7.724   0.526   2.105 -0.3006 -0.5682  0.5472
   91MOL   C48045660   7.740   0.619   2.334 -0.4367  0.4725  0.0245
   91MOL   O48145661   7.847   0.591   2.388 -0.1124 -0.0724 -1.0456
   91MOL   O48245662   7.626   0.627   2.405  0.2713 -0.1745  1.0324
   91MOL   C48345663   7.635   0.644   2.547  0.0103 -0.3091 -0.6702
   91MOL   C48445664   7.515   0.721   2.603 -0.2441 -0.0657  0.7001
   91MOL   C48545665   7.533   0.855   2.641 -0.2738  0.7077 -0.7005
   91MOL   C48645666   7.428   0.916   2.711  0.0116  0.3128  0.2350
   91MOL   C48745667   7.308   0.847   2.737  0.3404  0.1014 -0.0570
   91MOL   C48845668   7.289   0.722   2.687 -0.4852  0.4761 -0.2834
   91MOL   C48945669   7.394   0.657   2.623 -0.2547  0.2943 -0.7857
   91MOL   H49045670   7.602   0.744   2.035 -1.1887 -0.9525  0.9077
   91MOL   H49145671   7.540   0.742   2.193  0.7929  0.0992  1.1142
   91MOL   H49245672   7.624   0.481   2.105 -1.2168  1.3583  1.5559
   91MOL   H49345673   7.800   0.455   2.136 -0.7228 -1.1884  0.1702
   91MOL   H49445674   7.734   0.548   1.999  0.6478  0.5524  0.8674
   91MOL   H49545675   7.641   0.542   2.584 -1.2535  0.2413  1.1636
   91MOL   H49645676   7.729   0.685   2.584 -1.2579  0.7796  1.4440
   91MOL   H49745677   7.628   0.905   2.627 -1.0440  2.8356  1.3492
   91MOL   H49845678   7.442   1.015   2.751 -1.9835  0.9420 -0.5783
   91MOL   H49945679   7.230   0.898   2.791 -0.0901  1.0327 -1.5285
   91MOL   H50045680   7.200   0.661   2.695 -0.7095  0.5738 -1.8012
   91MOL   H50145681   7.379   0.556   2.587 -3.2372  0.2649  0.3626
   91MOL   H50245682   7.830   0.705   2.173 -1.5178  2.3125 -1.4778
   92MOL     C145683   2.983   7.954   5.662  0.0987 -0.5339  0.5351
   92MOL     C245684   2.863   7.886   5.726  0.0526 -0.2563  0.0681
   92MOL     C345685   2.772   0.002   5.758 -0.6057 -0.4735 -0.6174
   92MOL     C445686   2.907   7.817   5.861 -0.0804  0.4090  0.5554
   92MOL     O545687   3.026   7.808   5.894  0.1012 -0.1401 -0.6451
   92MOL     O645688   2.803   7.762   5.931 -0.0661 -0.6028  0.9733
   92MOL     C745689   2.845   7.701   6.050  0.2297  0.2095 -0.5829
   92MOL     C845690   2.847   7.802   6.169  0.5256 -0.0146  0.3621
   92MOL     C945691   2.736   7.872   6.207  0.9935 -0.4180  0.0496
   92MOL    C1045692   2.744   7.975   6.305 -0.1441  0.1348  0.3071
   92MOL    C1145693   2.867   8.003   6.364  0.1898 -0.2712  0.6476
   92MOL    C1245694   2.980   7.938   6.317  0.1802 -0.6918 -0.1552
   92MOL    C1345695   2.966   7.831   6.228 -0.1126 -0.1935  0.6738
   92MOL    H1445696   3.019   0.018   5.736  1.0022  0.1278 -0.5121
   92MOL    H1545697   3.054   7.874   5.642  0.1373 -1.0573  2.6889
   92MOL    H1645698   2.765   0.063   5.668 -5.2694 -2.5142 -1.8199
   92MOL    H1745699   2.826   0.056   5.836 -1.9297 -1.0260  0.6964
   92MOL    H1845700   2.677   7.966   5.790 -1.0448 -1.9191 -3.6040
   92MOL    H1945701   2.770   7.623   6.068  1.1674 -0.3518  0.9720
   92MOL    H2045702   2.934   7.639   6.043  0.3869  0.3491  0.1508
   92MOL    H2145703   2.646   7.853   6.151  1.6137  1.0515 -1.4946
   92MOL    H2245704   2.666   0.037   6.331 -0.4733  0.1958 -0.8126
   92MOL    H2345705   2.880   0.075   6.436 -3.2159 -1.0767  2.2648
   92MOL    H2445706   3.075   7.970   6.357 -0.1966  0.6604 -0.3184
   92MOL    H2545707   3.054   7.775   6.201 -0.1430 -0.3441  0.8904
   92MOL    H2645708   2.961   8.002   5.566  0.7218 -2.4096 -0.5836
   92MOL    C2745709   2.772   7.777   5.652 -0.2095  0.5662  0.9325
   92MOL    C2845710   2.829   7.671   5.554  0.5121  0.7083 -0.0279
   92MOL    C2945711   2.945   7.604   5.638 -0.2769  0.1743  0.6090
   92MOL    C3045712   2.893   7.744   5.433  0.2362  0.1041  0.9243
   92MOL    O3145713   2.995   7.706   5.386 -0.5140  0.4206  0.5034
   92MOL    O3245714   2.822   7.840   5.364 -0.2339  0.1371 -0.5684
   92MOL    C3345715   2.883   7.912   5.248 -0.8252  0.1230 -0.2693
   92MOL    C3445716   2.906   7.828   5.124  0.6200 -0.2198  0.2729
   92MOL    C3545717   2.797   7.781   5.052 -0.1779 -0.4168  1.0836
   92MOL    C3645718   2.821   7.708   4.934  0.5137 -0.5523  0.4991
   92MOL    C3745719   2.956   7.674   4.894 -0.6231  0.4872  0.0174
   92MOL    C3845720   3.066   7.731   4.958  0.0232 -0.6289 -0.2882
   92MOL    C3945721   3.039   7.809   5.073  0.0392 -0.4986  0.3520
   92MOL    H4045722   2.709   7.840   5.588 -0.2700 -0.0058  0.4215
   92MOL    H4145723   2.705   7.720   5.717 -2.0330 -0.3969 -1.6711
   92MOL    H4245724   2.985   7.513   5.593  0.6949  1.0758 -0.3825
   92MOL    H4345725   2.913   7.576   5.738  0.5520 -1.7176  0.3661
   92MOL    H4445726   3.036   7.663   5.650  1.3763 -2.0369 -0.6712
   92MOL    H4545727   2.827   8.005   5.234  0.8147  1.5559  2.2844
   92MOL    H4645728   2.982   7.947   5.278 -0.3263  0.4289 -2.2121
   92MOL    H4745729   2.691   7.792   5.071 -0.5021  0.5182 -1.0823
   92MOL    H4845730   2.745   7.654   4.879  1.7011 -1.7623  0.0262
   92MOL    H4945731   2.970   7.612   4.808 -2.3243  1.6703 -1.1581
   92MOL    H5045732   3.164   7.708   4.920 -0.5845 -1.7934 -1.2198
   92MOL    H5145733   3.125   7.853   5.122 -0.6431  0.7690  0.4216
   92MOL    C5245734   2.731   7.552   5.511 -0.3209 -0.3866 -0.6465
   92MOL    C5345735   2.600   7.561   5.424 -1.3321  0.0607 -0.6803
   92MOL    C5445736   2.624   7.594   5.273 -0.2222  0.1093  0.4819
   92MOL    C5545737   2.510   7.681   5.474 -0.7722 -0.1097 -0.4850
   92MOL    O5645738   2.480   7.774   5.401 -0.2271  0.0569  0.6726
   92MOL    O5745739   2.470   7.668   5.601 -0.2455  0.2168 -0.1124
   92MOL    C5845740   2.395   7.764   5.670  0.2970  0.3984  0.1271
   92MOL    C5945741   2.407   7.759   5.818  0.4226 -0.4234 -0.6798
   92MOL    C6045742   2.366   7.870   5.892  0.5249  0.1249  0.2027
   92MOL    C6145743   2.367   7.874   6.033  0.8057 -0.1631 -0.8189
   92MOL    C6245744   2.410   7.766   6.107 -0.0744  0.1415 -0.2122
   92MOL    C6345745   2.447   7.650   6.034 -0.1154 -0.1316  0.7598
   92MOL    C6445746   2.452   7.647   5.893 -0.1916  0.0895 -0.8075
   92MOL    H6545747   2.704   7.503   5.605 -2.1379 -0.7777 -1.3511
   92MOL    H6645748   2.797   7.472   5.475 -1.3635 -1.9337  0.7964
   92MOL    H6745749   2.650   7.698   5.253  1.4306 -0.3710 -0.0098
   92MOL    H6845750   2.539   7.568   5.210 -1.0691  1.0455  1.2353
   92MOL    H6945751   2.721   7.562   5.234 -0.3444  2.7296 -2.2330
   92MOL    H7045752   2.433   7.865   5.655  1.3824  0.0586  0.5781
   92MOL    H7145753   2.292   7.772   5.634  0.0358  0.9093  0.9890
   92MOL    H7245754   2.317   7.952   5.842 -3.0911  0.1170  3.5401
   92MOL    H7345755   2.334   7.971   6.068  1.4846 -0.1425 -0.2236
   92MOL    H7445756   2.425   7.774   6.214  3.4247 -2.1692 -0.4348
   92MOL    H7545757   2.476   7.559   6.084 -3.0975 -3.0091 -2.4444
   92MOL    H7645758   2.483   7.560   5.837 -1.9260  1.1973 -3.6220
   92MOL    C7745759   2.525   7.419   5.416 -0.3838 -0.5031  0.9489
   92MOL    C7845760   2.365   7.398   5.397 -0.3993 -0.0769 -0.7230
   92MOL    C7945761   2.304   7.496   5.293 -0.4833 -0.0538 -0.3599
   92MOL    C8045762   2.293   7.419   5.532  1.2256 -0.3403  0.2427
   92MOL    O8145763   2.353   7.408   5.633  0.0074 -0.4099 -0.4800
   92MOL    O8245764   2.156   7.416   5.519  0.5834  0.0426 -0.5128
   92MOL    C8345765   2.081   7.373   5.635  0.0150 -0.7299  0.7576
   92MOL    C8445766   1.996   7.476   5.697  0.2663 -0.4672 -0.4904
   92MOL    C8545767   2.060   7.555   5.797 -0.4451  0.0088 -0.2580
   92MOL    C8645768   1.980   7.656   5.859 -0.4130 -0.8596  0.2314
   92MOL    C8745769   1.848   7.678   5.814  0.2771 -0.3681 -0.4165
   92MOL    C8845770   1.795   7.609   5.705 -0.3281  0.7193 -0.7270
   92MOL    C8945771   1.866   7.508   5.642  0.8044  0.9154 -0.2495
   92MOL    H9045772   2.559   7.360   5.501  2.7147  0.1471  0.2369
   92MOL    H9145773   2.574   7.369   5.333  0.2161  1.9451 -0.2227
   92MOL    H9245774   2.198   7.484   5.272 -0.5076 -1.3895  0.4724
   92MOL    H9345775   2.346   7.486   5.193  0.6639 -0.2785  0.1455
   92MOL    H9445776   2.309   7.602   5.320  1.2064  0.1286 -1.2968
   92MOL    H9545777   2.002   7.308   5.598 -1.2159  1.5755 -0.7208
   92MOL    H9645778   2.136   7.315   5.709  0.9492 -0.4854  0.2644
   92MOL    H9745779   2.159   7.527   5.829  0.4444  1.7800 -1.3633
   92MOL    H9845780   2.025   7.722   5.931 -0.1874 -0.0212 -0.6596
   92MOL    H9945781   1.786   7.751   5.865 -0.1365 -1.3489  0.5073
   92MOL   H10045782   1.695   7.627   5.670 -0.9089 -2.0068 -0.5538
   92MOL   H10145783   1.819   7.448   5.565 -2.7926 -0.1093  2.5967
   92MOL   C10245784   2.326   7.255   5.334 -0.3277 -0.1058  0.3009
   92MOL   C10345785   2.342   7.114   5.397  0.5314  0.6310  0.1876
   92MOL   C10445786   2.270   7.111   5.536  0.2257  0.3468 -0.0260
   92MOL   C10545787   2.489   7.080   5.412 -0.2438  0.3514  0.1298
   92MOL   O10645788   2.536   7.039   5.515  0.0664 -0.4050  0.3668
   92MOL   O10745789   2.562   7.100   5.302 -0.5190  0.1305  0.0738
   92MOL   C10845790   2.701   7.065   5.302 -0.5325 -0.4360  0.5870
   92MOL   C10945791   2.792   7.186   5.285  0.5934  0.9905  0.4961
   92MOL   C11045792   2.883   7.214   5.383 -0.5301  0.0631 -0.1405
   92MOL   C11145793   2.977   7.317   5.368  0.2782  0.1658 -0.1311
   92MOL   C11245794   2.978   7.400   5.259 -1.0852  0.2252  0.6578
   92MOL   C11345795   2.883   7.382   5.158 -0.3590 -0.7715  0.4536
   92MOL   C11445796   2.792   7.274   5.170 -0.4095 -0.3631 -0.1569
   92MOL   H11545797   2.370   7.261   5.235 -1.4708  0.0836 -0.2018
   92MOL   H11645798   2.218   7.262   5.321 -0.3865  1.3933  1.4484
   92MOL   H11745799   2.270   7.010   5.578  2.0492 -0.4483 -1.8415
   92MOL   H11845800   2.167   7.140   5.517  0.6892  1.6524 -0.5937
   92MOL   H11945801   2.314   7.153   5.626 -1.1950 -0.5660  1.1170
   92MOL   H12045802   2.723   7.002   5.388  1.1557 -0.8643 -0.1378
   92MOL   H12145803   2.718   7.008   5.211 -2.7112  1.6575 -1.1878
   92MOL   H12245804   2.881   7.147   5.468 -0.6249  0.7362  0.3885
   92MOL   H12345805   3.046   7.332   5.449 -0.3469  1.4934  0.1689
   92MOL   H12445806   3.051   7.477   5.239 -0.7953 -0.5641 -1.4647
   92MOL   H12545807   2.888   7.455   5.080 -1.0937 -0.5387  0.6198
   92MOL   H12645808   2.724   7.256   5.088 -0.4086 -0.5710 -0.1133
   92MOL   C12745809   2.278   7.013   5.290  1.0769 -0.1867 -0.2733
   92MOL   C12845810   2.215   6.868   5.321 -0.1649 -0.2825  0.0014
   92MOL   C12945811   2.070   6.891   5.367  0.0900  0.1256  0.0886
   92MOL   C13045812   2.301   6.798   5.428  0.1913 -0.2045  1.0336
   92MOL   O13145813   2.247   6.759   5.533 -0.2999  1.0367 -0.2006
   92MOL   O13245814   2.439   6.790   5.400  0.3044  0.3052 -0.3116
   92MOL   C13345815   2.522   6.735   5.503 -0.5906  0.7374  0.2244
   92MOL   C13445816   2.669   6.739   5.478  0.2196 -0.5399  0.4940
   92MOL   C13545817   2.726   6.669   5.371 -0.0417 -0.1614  0.2063
   92MOL   C13645818   2.863   6.678   5.352  0.4546  0.3888 -0.0750
   92MOL   C13745819   2.944   6.758   5.441 -0.1933  0.3541 -0.2960
   92MOL   C13845820   2.894   6.828   5.543  0.5169 -0.0002 -0.4697
   92MOL   C13945821   2.756   6.823   5.554  0.2454  0.3119 -0.1894
   92MOL   H14045822   2.356   7.000   5.216 -0.3624 -2.7025 -1.3998
   92MOL   H14145823   2.200   7.065   5.234  1.6175  1.4854  0.4929
   92MOL   H14245824   2.054   6.936   5.465 -0.9268  0.2915 -0.1436
   92MOL   H14345825   2.019   6.794   5.363  1.3904 -0.5137 -1.5413
   92MOL   H14445826   2.014   6.957   5.301 -0.9307 -0.9037 -0.1006
   92MOL   H14545827   2.503   6.781   5.600  0.8582  2.6938 -0.3844
   92MOL   H14645828   2.477   6.637   5.510 -1.1704  1.1275  2.5385
   92MOL   H14745829   2.664   6.631   5.291 -0.4497 -0.8227  0.8354
   92MOL   H14845830   2.912   6.637   5.265  2.2061  1.0446  0.5664
   92MOL   H14945831   3.047   6.779   5.420 -0.2212  0.4307 -0.3565
   92MOL   H15045832   2.964   6.894   5.591  1.5976  0.2624 -2.3621
   92MOL   H15145833   2.717   6.892   5.628  2.2149  0.5014  0.6981
   92MOL   C15245834   2.220   6.784   5.183  0.9513  0.1789 -0.5474
   92MOL   C15345835   2.123   6.666   5.152 -0.2339  0.1185 -0.7087
   92MOL   C15445836   1.984   6.722   5.111  0.1677 -0.7327 -1.3726
   92MOL   C15545837   2.122   6.558   5.263  0.1620  0.4408  0.4680
   92MOL   O15645838   2.021   6.506   5.294 -0.0390 -0.2260 -0.0309
   92MOL   O15745839   2.240   6.530   5.305 -0.2309  0.7790  0.0861
   92MOL   C15845840   2.276   6.405   5.366  0.5760 -0.3793  0.3338
   92MOL   C15945841   2.366   6.326   5.279 -0.5695 -0.4536 -0.8633
   92MOL   C16045842   2.330   6.215   5.201 -0.1805  0.1624  0.2902
   92MOL   C16145843   2.423   6.148   5.118  0.1744 -0.0093 -1.0842
   92MOL   C16245844   2.551   6.206   5.107 -0.1987 -0.1286  0.3658
   92MOL   C16345845   2.594   6.309   5.191 -0.2104 -0.0377  0.0207
   92MOL   C16445846   2.497   6.366   5.276 -0.2586 -0.2612 -0.6876
   92MOL   H16545847   2.320   6.746   5.163  0.8832 -1.4329  1.9388
   92MOL   H16645848   2.199   6.857   5.105  0.4683 -0.0976 -0.6753
   92MOL   H16745849   1.915   6.718   5.195  2.4706 -1.8825  0.5207
   92MOL   H16845850   1.927   6.657   5.045 -1.2348  1.4888 -2.4006
   92MOL   H16945851   1.980   6.816   5.056 -1.3562 -0.2057 -0.3859
   92MOL   H17045852   2.333   6.424   5.456  1.2624  1.3838 -0.4574
   92MOL   H17145853   2.199   6.340   5.406 -0.6350  0.1146 -1.1384
   92MOL   H17245854   2.228   6.181   5.204  0.1937 -0.9442  0.8265
   92MOL   H17345855   2.389   6.068   5.053 -0.3773 -1.2163  0.6531
   92MOL   H17445856   2.633   6.156   5.059 -0.8090 -1.9880  1.1923
   92MOL   H17545857   2.689   6.359   5.197  0.2130 -0.8372  0.1517
   92MOL   H17645858   2.522   6.449   5.340 -1.1169 -2.0084  1.9743
   92MOL   C17745859   2.186   6.595   5.022 -0.4103  0.7006 -0.2149
   92MOL   C17845860   2.115   6.489   4.921 -0.7350 -0.1888  0.3779
   92MOL   C17945861   2.252   6.435   4.861  0.6400  0.5273  0.0523
   92MOL   C18045862   2.038   6.562   4.811  0.6869  0.4486 -0.2116
   92MOL   O18145863   1.996   6.674   4.821 -0.3631 -0.0833 -0.0712
   92MOL   O18245864   2.024   6.479   4.705  0.1171  0.6528  0.0674
   92MOL   C18345865   1.939   6.525   4.596  0.2965  0.6234  0.5623
   92MOL   C18445866   2.003   6.503   4.460 -0.1911 -0.5187  0.9377
   92MOL   C18545867   1.941   6.566   4.349  0.6655  0.6565  0.7344
   92MOL   C18645868   1.987   6.532   4.218  0.5560 -0.1143  0.3344
   92MOL   C18745869   2.105   6.460   4.201 -0.4205 -0.6476 -1.3267
   92MOL   C18845870   2.173   6.401   4.309  0.1462  0.4161  0.0135
   92MOL   C18945871   2.113   6.421   4.437  0.2722  0.0108  0.1209
   92MOL   H19045872   2.278   6.551   5.060 -0.7793 -0.9726 -1.1976
   92MOL   H19145873   2.224   6.673   4.957 -0.5559  1.7568  0.9568
   92MOL   H19245874   2.242   6.396   4.760  1.6464  0.8258 -0.1713
   92MOL   H19345875   2.305   6.355   4.913  0.8761  1.5264  1.3690
   92MOL   H19445876   2.329   6.511   4.845 -0.6340  1.6878 -0.5827
   92MOL   H19545877   1.858   6.453   4.606  0.6574  0.2189  0.5912
   92MOL   H19645878   1.883   6.618   4.596  0.6659  0.8665  2.0619
   92MOL   H19745879   1.852   6.626   4.358  0.0963 -0.0438 -0.0193
   92MOL   H19845880   1.941   6.574   4.130 -0.8132  0.4845  1.3069
   92MOL   H19945881   2.142   6.453   4.100  0.7228  1.6828 -1.1170
   92MOL   H20045882   2.268   6.353   4.293  0.0871  0.8824 -1.8560
   92MOL   H20145883   2.150   6.360   4.519 -0.9514 -3.5675 -1.8601
   92MOL   C20245884   2.041   6.378   4.997  0.1818  0.6815 -0.0269
   92MOL   C20345885   1.961   6.256   4.927 -0.9358 -0.5790  0.0637
   92MOL   C20445886   2.058   6.170   4.839  0.7042 -0.0929 -0.1142
   92MOL   C20545887   1.841   6.297   4.838 -0.6514  0.0335 -0.0049
   92MOL   O20645888   1.804   6.235   4.744  0.1985  0.1182 -0.9502
   92MOL   O20745889   1.770   6.406   4.889  0.5433 -0.3742  0.1179
   92MOL   C20845890   1.661   6.470   4.821 -0.5787  0.3710  0.3591
   92MOL   C20945891   1.543   6.380   4.810 -0.9087 -0.0083 -0.3269
   92MOL   C21045892   1.476   6.374   4.689 -0.1222  0.3720  0.4936
   92MOL   C21145893   1.352   6.316   4.683 -0.2318 -0.0903 -0.1795
   92MOL   C21245894   1.302   6.241   4.791  0.1411 -0.5534 -0.3837
   92MOL   C21345895   1.371   6.247   4.919  0.5880 -0.2706 -0.0220
   92MOL   C21445896   1.491   6.323   4.930 -0.5407 -0.2541  0.2361
   92MOL   H21545897   1.968   6.447   5.038  0.2119  0.3750  0.5508
   92MOL   H21645898   2.109   6.337   5.072  1.4849  2.2733 -0.3064
   92MOL   H21745899   2.020   6.070   4.821  0.9148  0.0076 -1.1901
   92MOL   H21845900   2.155   6.168   4.888  0.4589  0.3757  0.3981
   92MOL   H21945901   2.067   6.225   4.745 -0.3488  0.2782 -0.0090
   92MOL   H22045902   1.627   6.554   4.882  0.0585  0.6399  0.3439
   92MOL   H22145903   1.689   6.522   4.730  1.4881  0.1856  0.8738
   92MOL   H22245904   1.499   6.436   4.603 -1.6888 -1.5006 -1.3293
   92MOL   H22345905   1.301   6.321   4.588 -0.1595 -1.1841 -0.2825
   92MOL   H22445906   1.209   6.186   4.792 -0.4747  0.4683 -0.6107
   92MOL   H22545907   1.334   6.190   5.002  0.6687 -3.6317 -2.1760
   92MOL   H22645908   1.542   6.333   5.025  0.5337  0.2746 -0.3832
   92MOL   C22745909   1.896   6.171   5.046 -0.1869  0.4282  0.5450
   92MOL   C22845910   1.886   6.015   5.059 -0.3102  0.0322 -0.1456
   92MOL   C22945911   2.036   5.967   5.061 -0.6472 -0.2628  0.0149
   92MOL   C23045912   1.804   5.951   4.939 -0.1938 -0.4156 -0.6562
   92MOL   O23145913   1.842   5.854   4.869  0.5150 -0.2642 -0.1827
   92MOL   O23245914   1.685   6.024   4.921 -0.5169 -0.1294  0.6540
   92MOL   C23345915   1.590   5.976   4.824  0.0367  0.5240 -0.5223
   92MOL   C23445916   1.479   5.891   4.878 -0.4655 -0.0278  0.0092
   92MOL   C23545917   1.387   5.835   4.791 -0.2966 -1.5377  0.3302
   92MOL   C23645918   1.301   5.734   4.846 -0.1697 -0.3062  0.2172
   92MOL   C23745919   1.295   5.706   4.984  0.6704 -0.5386  0.2523
   92MOL   C23845920   1.365   5.787   5.065  0.1757  0.7145  0.1858
   92MOL   C23945921   1.464   5.872   5.017  0.1187 -0.3123  0.3411
   92MOL   H24045922   1.799   6.214   5.068 -0.4227 -0.4094  1.1721
   92MOL   H24145923   1.943   6.210   5.137  2.7865 -0.2385 -0.6481
   92MOL   H24245924   2.056   5.875   5.117 -0.9330  0.6433  1.6501
   92MOL   H24345925   2.103   6.046   5.095 -1.1174  0.6787 -1.2138
   92MOL   H24445926   2.080   5.937   4.967  0.7971 -1.7554  1.1407
   92MOL   H24545927   1.540   6.063   4.782 -2.0186 -0.2472  0.2786
   92MOL   H24645928   1.646   5.937   4.739 -1.5129 -0.6422 -1.0343
   92MOL   H24745929   1.376   5.854   4.685  0.6610  0.6934  0.5993
   92MOL   H24845930   1.225   5.689   4.784  1.2585 -1.6366 -0.5905
   92MOL   H24945931   1.228   5.632   5.024  0.2617  0.2443  1.0468
   92MOL   H25045932   1.340   5.789   5.170  2.2556 -1.2674  0.7705
   92MOL   H25145933   1.527   5.929   5.084 -0.3868 -1.4754  1.8201
   92MOL   C25245934   1.826   5.984   5.203 -0.7832 -0.0183 -0.5293
   92MOL   C25345935   1.833   5.844   5.275 -0.0357 -0.6164 -0.5095
   92MOL   C25445936   1.708   5.842   5.363  0.1900 -0.1816 -0.1933
   92MOL   C25545937   1.962   5.844   5.369  0.1151 -0.2437 -0.1166
   92MOL   O25645938   2.059   5.772   5.347 -1.0404 -0.7321 -0.5767
   92MOL   O25745939   1.959   5.928   5.468  0.3722 -0.2884  0.0126
   92MOL   C25845940   2.066   5.934   5.558  0.1219  0.1770 -1.1649
   92MOL   C25945941   2.069   6.071   5.623 -0.0462  0.5243  0.3615
   92MOL   C26045942   2.034   6.192   5.554 -0.6765  0.3966 -0.3332
   92MOL   C26145943   2.052   6.317   5.618  0.1500 -0.5890  0.2742
   92MOL   C26245944   2.111   6.316   5.747 -0.1062  0.2201  0.8056
   92MOL   C26345945   2.136   6.199   5.822 -0.1213  0.0002  0.0933
   92MOL   C26445946   2.113   6.077   5.754 -0.1621  0.0786  0.9262
   92MOL   H26545947   1.718   6.000   5.195 -0.6740  0.4310 -1.1496
   92MOL   H26645948   1.853   6.066   5.270 -2.4645  0.3093 -0.2136
   92MOL   H26745949   1.678   5.941   5.397  0.6968 -0.3887  0.8743
   92MOL   H26845950   1.724   5.782   5.452  0.0338 -0.4470 -0.3435
   92MOL   H26945951   1.611   5.822   5.318  0.2455 -1.7679  0.3671
   92MOL   H27045952   2.053   5.860   5.638  0.1828 -0.3227 -1.6151
   92MOL   H27145953   2.169   5.929   5.523  0.0444 -1.1689 -1.2442
   92MOL   H27245954   1.992   6.203   5.456 -2.3919  0.6480  0.4024
   92MOL   H27345955   2.023   6.415   5.584  1.6828  0.0786  0.8361
   92MOL   H27445956   2.147   6.409   5.788 -2.0439  1.6675 -0.6608
   92MOL   H27545957   2.171   6.209   5.924 -0.5103 -0.1714  0.2472
   92MOL   H27645958   2.141   5.984   5.801 -0.6645  0.2264  1.5274
   92MOL   C27745959   1.814   5.725   5.170 -0.2277 -0.2469 -0.3962
   92MOL   C27845960   1.814   5.569   5.201  0.7792  0.4806 -0.3438
   92MOL   C27945961   1.745   5.536   5.339 -0.0305 -0.2817  1.0896
   92MOL   C28045962   1.962   5.529   5.206 -0.1510 -0.5656  0.3059
   92MOL   O28145963   2.003   5.453   5.290 -0.4124 -0.0676  0.1769
   92MOL   O28245964   2.042   5.580   5.112  0.2034  0.0619 -0.5884
   92MOL   C28345965   2.180   5.568   5.119 -0.3250 -0.0195  0.7921
   92MOL   C28445966   2.237   5.499   4.996  0.3308  0.1847 -0.4238
   92MOL   C28545967   2.180   5.508   4.863 -0.0116  0.4696 -1.5731
   92MOL   C28645968   2.246   5.438   4.763  0.7175  0.0429 -0.1731
   92MOL   C28745969   2.366   5.367   4.786 -0.2486  0.3614 -0.2946
   92MOL   C28845970   2.427   5.371   4.912  0.4363 -0.5718  0.4706
   92MOL   C28945971   2.362   5.434   5.017 -0.3163 -0.1154 -0.6259
   92MOL   H29045972   1.885   5.743   5.089 -0.9553  0.6910 -0.8211
   92MOL   H29145973   1.720   5.753   5.125 -0.5629 -0.5315  0.1162
   92MOL   H29245974   1.781   5.591   5.425 -2.2583 -0.0701  1.9352
   92MOL   H29345975   1.751   5.432   5.373  0.3606  0.0400  2.0214
   92MOL   H29445976   1.637   5.554   5.340 -0.5842 -3.1047 -0.3429
   92MOL   H29545977   2.228   5.665   5.123  1.3025 -0.7190 -0.7267
   92MOL   H29645978   2.209   5.505   5.203 -0.2961 -0.3940  0.5015
   92MOL   H29745979   2.095   5.568   4.834 -0.6013 -0.7350 -2.4117
   92MOL   H29845980   2.201   5.436   4.665 -0.5565  0.0528  0.4038
   92MOL   H29945981   2.419   5.331   4.698 -0.2196 -0.4924  0.0705
   92MOL   H30045982   2.527   5.331   4.920  1.0258  0.7036 -0.3122
   92MOL   H30145983   2.406   5.435   5.116  0.2922 -1.0424 -0.8787
   92MOL   C30245984   1.742   5.494   5.080 -0.7114  0.0613  0.0080
   92MOL   C30345985   1.745   5.329   5.060 -0.6183 -0.7914 -0.5160
   92MOL   C30445986   1.648   5.308   4.943 -0.0079  0.1690 -0.4160
   92MOL   C30545987   1.684   5.259   5.185 -0.6933  0.5890  0.3760
   92MOL   O30645988   1.741   5.184   5.261  0.4843 -1.1361 -0.0382
   92MOL   O30745989   1.559   5.311   5.209  0.7339 -0.0261  0.9688
   92MOL   C30845990   1.475   5.240   5.293  0.4004  0.6015 -0.2391
   92MOL   C30945991   1.329   5.281   5.293 -0.7789  0.0819  0.5005
   92MOL   C31045992   1.244   5.262   5.411  0.2783  0.1228 -0.2858
   92MOL   C31145993   1.106   5.295   5.401 -1.0038  0.1862  0.0984
   92MOL   C31245994   1.062   5.359   5.286  0.3540  0.6323  0.0478
   92MOL   C31345995   1.145   5.381   5.174 -0.5996 -0.9428  0.1796
   92MOL   C31445996   1.277   5.339   5.180 -0.2012 -0.2554  0.1201
   92MOL   H31545997   1.771   5.552   4.993  0.8100 -0.5991  0.0709
   92MOL   H31645998   1.635   5.512   5.097 -1.1078  0.9839 -3.2688
   92MOL   H31745999   1.548   5.333   4.976 -0.6937 -1.8276 -0.9113
   92MOL   H31846000   1.636   5.204   4.912 -0.1786 -0.2802  1.1122
   92MOL   H31946001   1.662   5.363   4.850  1.2545 -1.0775 -0.9795
   92MOL   H32046002   1.471   5.133   5.274 -3.6929  0.4810  0.8202
   92MOL   H32146003   1.521   5.261   5.390 -0.5879  0.9188  0.1708
   92MOL   H32246004   1.283   5.233   5.508  0.8116 -0.6084 -0.7168
   92MOL   H32346005   1.031   5.279   5.478 -0.8962 -2.7998 -0.3303
   92MOL   H32446006   0.958   5.378   5.263  0.0641 -1.5872 -0.6443
   92MOL   H32546007   1.107   5.414   5.078  0.1977 -2.0230 -0.5069
   92MOL   H32646008   1.341   5.343   5.093  1.0000  0.9051  1.0570
   92MOL   C32746009   1.889   5.277   5.021  0.4422 -0.3216  0.4520
   92MOL   C32846010   1.918   5.160   4.922 -0.4939  0.9055 -0.4237
   92MOL   C32946011   2.075   5.146   4.918  0.0507  0.2206  0.0769
   92MOL   C33046012   1.882   5.196   4.779 -0.2522  0.2362  0.9367
   92MOL   O33146013   1.812   5.130   4.706  0.0688  0.1196  0.4370
   92MOL   O33246014   1.942   5.314   4.741 -0.1673  0.2787  0.0362
   92MOL   C33346015   1.926   5.369   4.613 -0.7197  0.1700  0.2659
   92MOL   C33446016   1.783   5.404   4.564  0.5414  0.2688 -0.6473
   92MOL   C33546017   1.730   5.532   4.587  0.2307  0.5454  0.2421
   92MOL   C33646018   1.599   5.563   4.549 -0.3555 -0.9422  0.3733
   92MOL   C33746019   1.520   5.469   4.478  0.1879 -0.2405 -0.0595
   92MOL   C33846020   1.583   5.348   4.439 -0.3008 -1.0927  0.0813
   92MOL   C33946021   1.709   5.313   4.484 -0.2467  0.0617  0.3793
   92MOL   H34046022   1.940   5.253   5.115 -0.7923 -0.5858  1.0641
   92MOL   H34146023   1.939   5.368   4.988  0.4803 -1.2913 -2.2743
   92MOL   H34246024   2.126   5.242   4.922  1.0258 -0.2753 -0.3526
   92MOL   H34346025   2.124   5.089   4.839  1.6675 -0.2578  1.4253
   92MOL   H34446026   2.101   5.104   5.015 -1.0960 -0.1863  0.2249
   92MOL   H34546027   1.980   5.464   4.608 -1.2386  0.6166  2.5298
   92MOL   H34646028   1.953   5.290   4.543  1.1926 -1.6253  2.9186
   92MOL   H34746029   1.783   5.605   4.646  0.4505 -0.5599  1.4221
   92MOL   H34846030   1.555   5.657   4.578  0.7576 -0.8860  2.0128
   92MOL   H34946031   1.415   5.476   4.456  0.2111 -0.8911 -0.4154
   92MOL   H35046032   1.520   5.268   4.401 -0.5077 -0.5450 -0.7346
   92MOL   H35146033   1.760   5.219   4.466 -0.0706  0.0319  1.0064
   92MOL   C35246034   1.843   5.024   4.975 -0.3088 -0.1022  0.6049
   92MOL   C35346035   1.834   4.879   4.908 -0.4535  0.2900  0.4071
   92MOL   C35446036   1.972   4.848   4.830 -0.1910  0.1027 -0.2714
   92MOL   C35546037   1.723   4.864   4.800  0.1165  1.3195  0.2271
   92MOL   O35646038   1.739   4.796   4.702 -0.1084  0.3120  0.2234
   92MOL   O35746039   1.607   4.925   4.832 -0.4170  0.3892 -0.3067
   92MOL   C35846040   1.497   4.929   4.750 -0.3251  0.5585  0.1150
   92MOL   C35946041   1.404   5.048   4.781 -1.2680  0.4188  0.3215
   92MOL   C36046042   1.301   5.039   4.877 -0.3642  0.1217  0.1586
   92MOL   C36146043   1.221   5.147   4.907 -0.1095 -0.2346 -0.1532
   92MOL   C36246044   1.231   5.270   4.838  0.2891 -0.0129 -0.5967
   92MOL   C36346045   1.337   5.282   4.746  0.5691 -0.0164  0.0380
   92MOL   C36446046   1.420   5.173   4.716 -0.1477  0.2549 -0.4778
   92MOL   H36546047   1.746   5.058   5.011  0.2604  1.8062  0.4138
   92MOL   H36646048   1.893   5.009   5.070  0.3502 -2.5560 -0.1000
   92MOL   H36746049   1.969   4.900   4.735 -0.8738 -0.8119 -0.7539
   92MOL   H36846050   1.977   4.740   4.817  1.0358  0.2498 -1.0771
   92MOL   H36946051   2.071   4.871   4.870 -1.1371  0.5652  1.8837
   92MOL   H37046052   1.534   4.938   4.648  1.0424 -3.6848  0.1651
   92MOL   H37146053   1.442   4.835   4.748 -1.8171  1.4490 -2.1154
   92MOL   H37246054   1.289   4.944   4.927 -1.1347 -0.4614 -1.1333
   92MOL   H37346055   1.142   5.118   4.974  0.5454  1.9703  1.6563
   92MOL   H37446056   1.158   5.348   4.853  2.3579  2.2347 -1.7425
   92MOL   H37546057   1.365   5.370   4.690 -1.1426  0.8151  0.4488
   92MOL   H37646058   1.493   5.197   4.640 -0.9874  2.4107 -0.6278
   92MOL   C37746059   1.800   4.757   5.006  0.6015 -0.4047 -0.0583
   92MOL   C37846060   1.833   4.741   5.156  0.1765  0.0750 -0.0849
   92MOL   C37946061   1.749   4.852   5.234  0.1022  0.2238  0.4413
   92MOL   C38046062   1.977   4.769   5.194 -0.2642 -0.1464 -0.1756
   92MOL   O38146063   2.013   4.769   5.315  0.0986  0.5599  0.3846
   92MOL   O38246064   2.061   4.766   5.088 -0.7070 -0.0765 -0.2714
   92MOL   C38346065   2.200   4.763   5.115 -0.8538  0.3114 -0.4538
   92MOL   C38446066   2.298   4.802   5.002  0.0239  0.1512  0.0569
   92MOL   C38546067   2.342   4.706   4.909  0.2978  0.8533  0.3573
   92MOL   C38646068   2.436   4.745   4.803  0.2436  0.7874  0.4436
   92MOL   C38746069   2.483   4.876   4.801 -0.7332 -0.1120  0.1152
   92MOL   C38846070   2.420   4.975   4.886  1.0143  0.4557  0.1247
   92MOL   C38946071   2.330   4.936   4.989  0.1153 -0.1064  0.2942
   92MOL   H39046072   1.852   4.671   4.963  1.3226 -0.5158  1.0114
   92MOL   H39146073   1.697   4.726   4.990  0.4504  0.9070 -1.7351
   92MOL   H39246074   1.668   4.896   5.175  0.5780  2.0144  1.0831
   92MOL   H39346075   1.804   4.944   5.251 -2.5610  1.7771  0.9185
   92MOL   H39446076   1.721   4.829   5.337 -1.3281 -0.6046 -0.1086
   92MOL   H39546077   2.222   4.840   5.190 -0.6555  0.2957 -0.4962
   92MOL   H39646078   2.234   4.666   5.150  0.1950  0.9979  0.4758
   92MOL   H39746079   2.301   4.606   4.914 -0.4073  1.0665 -1.0294
   92MOL   H39846080   2.461   4.671   4.728  0.3823  1.1165  0.1650
   92MOL   H39946081   2.541   4.925   4.724  0.3673  0.9310  1.5610
   92MOL   H40046082   2.452   5.078   4.885  2.7479 -0.0678 -0.1080
   92MOL   H40146083   2.277   5.006   5.050  1.2794  0.5185  0.5955
   92MOL   C40246084   1.787   4.594   5.210 -0.3551  0.5856  0.2330
   92MOL   C40346085   1.839   4.456   5.149 -0.2723 -0.2858 -0.7242
   92MOL   C40446086   1.994   4.461   5.129 -0.0277  0.3733 -0.5810
   92MOL   C40546087   1.777   4.421   5.010  0.6428  0.0758 -0.1406
   92MOL   O40646088   1.657   4.429   4.990  0.3813 -0.0560  0.0574
   92MOL   O40746089   1.866   4.352   4.927  0.4222  0.2823  0.2650
   92MOL   C40846090   1.815   4.304   4.805 -1.1453  0.0125 -0.5264
   92MOL   C40946091   1.733   4.174   4.828  0.1501 -0.4146  0.5647
   92MOL   C41046092   1.778   4.074   4.919 -0.3769 -0.3300 -0.6422
   92MOL   C41146093   1.705   3.955   4.932 -0.7377 -0.5933 -0.0370
   92MOL   C41246094   1.581   3.936   4.865 -0.3308 -0.6489 -0.5145
   92MOL   C41346095   1.529   4.044   4.785  0.7047  0.1984 -0.4885
   92MOL   C41446096   1.610   4.159   4.765 -0.0954 -0.0974  0.2233
   92MOL   H41546097   1.683   4.592   5.175 -0.7469 -0.7092  1.4035
   92MOL   H41646098   1.773   4.601   5.318  2.2418  2.4479  0.4796
   92MOL   H41746099   2.034   4.531   5.056 -2.3747 -2.0314 -4.3351
   92MOL   H41846100   2.047   4.368   5.106 -1.6106 -1.1383  1.6698
   92MOL   H41946101   2.039   4.478   5.227 -0.6805  0.8210 -0.3551
   92MOL   H42046102   1.765   4.380   4.746  0.0093  0.4278 -0.9978
   92MOL   H42146103   1.907   4.276   4.752 -1.6994 -1.4617 -0.7334
   92MOL   H42246104   1.869   4.089   4.975 -1.1157  1.2338  0.1742
   92MOL   H42346105   1.750   3.880   4.996 -0.0038  0.2518  0.4397
   92MOL   H42446106   1.529   3.841   4.865  0.0875 -0.8950  1.1076
   92MOL   H42546107   1.436   4.041   4.729 -0.0779  2.2185  0.6741
   92MOL   H42646108   1.575   4.236   4.698  2.0663  1.2316  0.5734
   92MOL   C42746109   1.783   4.345   5.255  0.6508 -0.0601 -0.0787
   92MOL   C42846110   1.843   4.303   5.396  0.1590  0.2149  0.1283
   92MOL   C42946111   1.882   4.426   5.474  0.5071  0.8574  0.5252
   92MOL   C43046112   1.979   4.224   5.381  0.6092  0.1055  0.3768
   92MOL   O43146113   2.020   4.192   5.273 -0.2301 -0.1731  0.3047
   92MOL   O43246114   2.051   4.188   5.498  0.0656 -0.2270  1.0004
   92MOL   C43346115   2.155   4.090   5.490  0.5266 -0.3511  0.3611
   92MOL   C43446116   2.212   4.053   5.624 -0.5243 -0.7144  0.3376
   92MOL   C43546117   2.350   4.082   5.647  0.1603  0.3717  0.1252
   92MOL   C43646118   2.404   4.063   5.773  0.1949  0.2207 -0.5881
   92MOL   C43746119   2.319   4.005   5.872 -0.4189  0.5906 -0.0044
   92MOL   C43846120   2.186   3.973   5.847  0.1949  0.6700 -0.0548
   92MOL   C43946121   2.128   4.002   5.725 -0.0784 -0.5916 -0.2658
   92MOL   H44046122   1.772   4.254   5.196 -1.7669 -0.2869  0.6653
   92MOL   H44146123   1.680   4.373   5.277  0.9966  1.7889 -0.7644
   92MOL   H44246124   1.949   4.489   5.416  1.2302 -0.3870 -0.0143
   92MOL   H44346125   1.932   4.408   5.569  1.1371 -0.6717 -0.0769
   92MOL   H44446126   1.792   4.486   5.489  0.0556  0.1529  0.6788
   92MOL   H44546127   2.118   4.000   5.441 -2.7473  0.9885  0.1782
   92MOL   H44646128   2.237   4.134   5.434 -0.8596  0.0499 -1.4244
   92MOL   H44746129   2.410   4.130   5.571  1.7350  0.0609  1.1519
   92MOL   H44846130   2.508   4.082   5.795  0.4598 -0.1447 -1.5373
   92MOL   H44946131   2.362   3.980   5.968 -0.9356 -1.4934 -0.3014
   92MOL   H45046132   2.120   3.944   5.928  1.3512 -0.0139  0.6653
   92MOL   H45146133   2.021   3.993   5.717 -0.2767  0.1822  1.4700
   92MOL   C45246134   1.740   4.227   5.481  0.7387 -0.7330  0.1816
   92MOL   C45346135   1.688   4.080   5.457  0.2041 -0.2059  0.1886
   92MOL   C45446136   1.803   3.982   5.461 -0.1521 -0.1186 -0.5925
   92MOL   C45546137   1.627   4.077   5.313 -0.3647 -0.0958 -0.1231
   92MOL   O45646138   1.671   4.000   5.227  0.0544  0.0737 -0.2231
   92MOL   O45746139   1.520   4.163   5.294  0.6087  0.3817  0.1403
   92MOL   C45846140   1.474   4.170   5.160 -0.6642  0.0363  0.4080
   92MOL   C45946141   1.329   4.198   5.148 -0.0956 -0.4711 -0.1452
   92MOL   C46046142   1.260   4.258   5.252  0.1528 -0.2820 -0.8673
   92MOL   C46146143   1.119   4.271   5.241  0.7647  0.0926  0.0744
   92MOL   C46246144   1.056   4.215   5.131 -0.1864  0.3438  0.0775
   92MOL   C46346145   1.124   4.160   5.025 -0.6049 -0.1123 -0.0807
   92MOL   C46446146   1.263   4.157   5.030 -0.1426  0.7362 -0.2033
   92MOL   H46546147   1.659   4.297   5.463  0.6450 -0.5285  1.3957
   92MOL   H46646148   1.768   4.244   5.585  0.6748  2.0682 -0.2365
   92MOL   H46746149   1.791   3.879   5.493 -1.3702  0.1914 -0.0440
   92MOL   H46846150   1.863   4.024   5.542 -0.0684  0.0160 -0.7229
   92MOL   H46946151   1.873   3.970   5.378  2.1038 -1.6601  1.4441
   92MOL   H47046152   1.522   4.244   5.096 -1.8394 -0.8548 -1.5552
   92MOL   H47146153   1.484   4.074   5.109  0.8511 -0.7481  2.1033
   92MOL   H47246154   1.297   4.285   5.350  0.2396 -2.3087 -0.3186
   92MOL   H47346155   1.064   4.312   5.324  1.8947  0.7432  0.5166
   92MOL   H47446156   0.950   4.228   5.115  0.2311  0.0900 -3.2136
   92MOL   H47546157   1.060   4.123   4.947 -0.2378 -0.2700 -0.3073
   92MOL   H47646158   1.324   4.122   4.948 -0.6515 -0.7655  0.0506
   92MOL   C47746159   1.593   4.053   5.571  0.2069  0.5002 -0.4270
   92MOL   C47846160   1.493   3.932   5.558  0.4041  0.3207  0.7378
   92MOL   C47946161   1.350   3.967   5.523  0.2299  0.6250  0.2580
   92MOL   C48046162   1.506   3.835   5.674  0.3041  0.0290  0.6524
   92MOL   O48146163   1.431   3.838   5.772 -0.4102  0.2830  0.2948
   92MOL   O48246164   1.616   3.752   5.654  0.1157 -0.1867 -0.1368
   92MOL   C48346165   1.650   3.648   5.747  0.1281  0.3976  1.1009
   92MOL   C48446166   1.726   3.690   5.863  0.6718 -0.0895 -0.0230
   92MOL   C48546167   1.659   3.745   5.979  0.3305 -0.3162  0.2733
   92MOL   C48646168   1.725   3.759   6.105 -0.3132 -0.0601  0.2229
   92MOL   C48746169   1.862   3.721   6.107  0.0019 -0.8483 -0.2543
   92MOL   C48846170   1.928   3.668   5.997 -0.0420  0.6389  0.0361
   92MOL   C48946171   1.859   3.643   5.874  0.0320 -0.3789  0.8858
   92MOL   H49046172   1.528   4.140   5.570 -1.3213 -0.6252 -0.3248
   92MOL   H49146173   1.639   4.044   5.669 -0.4634 -0.4121 -0.1882
   92MOL   H49246174   1.309   4.023   5.607  0.7802 -2.2689  2.5532
   92MOL   H49346175   1.298   3.871   5.518  0.8192  0.2339  1.6084
   92MOL   H49446176   1.339   4.023   5.430  2.1474 -0.8036 -0.8776
   92MOL   H49546177   1.556   3.613   5.790 -1.0461  1.9730 -0.1068
   92MOL   H49646178   1.687   3.558   5.699 -3.2818 -0.7959  0.5956
   92MOL   H49746179   1.555   3.768   5.966  0.4405 -0.4876 -0.9317
   92MOL   H49846180   1.678   3.802   6.192 -1.3737 -1.3738  0.3104
   92MOL   H49946181   1.924   3.742   6.192  0.8566  1.9242 -1.5043
   92MOL   H50046182   2.028   3.631   6.009 -0.9157 -1.6539  0.6430
   92MOL   H50146183   1.899   3.579   5.796 -2.7038 -0.8884 -0.1719
   92MOL   H50246184   1.519   3.880   5.465  1.8668 -2.1205  2.4515
   93MOL     C146185   0.949   1.831   1.655  0.1705  0.3792 -0.3174
   93MOL     C246186   1.066   1.890   1.570 -0.2935 -0.0937 -0.4825
   93MOL     C346187   1.030   1.855   1.419  0.3252  0.5492  0.0182
   93MOL     C446188   1.197   1.826   1.615 -0.3635  0.1412 -0.1824
   93MOL     O546189   1.292   1.882   1.671  0.5457  0.2698 -0.0657
   93MOL     O646190   1.194   1.698   1.586  0.6963  0.1055  0.8267
   93MOL     C746191   1.308   1.622   1.628  0.2830 -0.3730  0.1704
   93MOL     C846192   1.255   1.480   1.654 -0.2074 -0.1409 -0.7917
   93MOL     C946193   1.134   1.459   1.725 -0.1167  0.0033 -0.2671
   93MOL    C1046194   1.094   1.332   1.765 -0.1908 -0.5504  0.2624
   93MOL    C1146195   1.159   1.217   1.718  0.2026  0.5233 -0.0942
   93MOL    C1246196   1.273   1.237   1.639 -0.8557  0.2088 -0.4529
   93MOL    C1346197   1.324   1.363   1.610  0.4945  0.6145 -0.2861
   93MOL    H1446198   0.958   1.863   1.759  0.8864  1.2881 -0.6548
   93MOL    H1546199   0.854   1.875   1.627 -0.8814 -1.4159  0.3718
   93MOL    H1646200   1.026   1.749   1.398 -1.7909  0.6906 -0.3807
   93MOL    H1746201   1.109   1.898   1.357  1.3290 -0.8850  0.2814
   93MOL    H1846202   0.927   1.886   1.400 -0.1384 -0.3981  0.9609
   93MOL    H1946203   1.396   1.635   1.566 -0.4083 -0.7820 -0.9080
   93MOL    H2046204   1.338   1.664   1.724  0.9788 -2.9380  1.1259
   93MOL    H2146205   1.079   1.545   1.760  1.1268  0.3284  0.9343
   93MOL    H2246206   1.012   1.324   1.835  1.4244 -0.0171  2.2490
   93MOL    H2346207   1.131   1.119   1.754  0.1206  1.3533  2.1099
   93MOL    H2446208   1.338   1.153   1.620 -0.0758  0.3312  1.5837
   93MOL    H2546209   1.417   1.364   1.554  1.8630 -0.5420  1.9107
   93MOL    H2646210   0.955   1.722   1.651  2.2939  0.4460  0.0905
   93MOL    C2746211   1.054   2.045   1.599  0.0207  0.6605  0.6627
   93MOL    C2846212   1.106   2.159   1.502 -0.4793  0.2094  0.7483
   93MOL    C2946213   1.015   2.168   1.376  0.4163 -0.3039 -0.3207
   93MOL    C3046214   1.248   2.124   1.443  0.5601  0.0971  0.3124
   93MOL    O3146215   1.266   2.108   1.322 -0.0331 -0.1408 -1.2311
   93MOL    O3246216   1.341   2.136   1.538 -0.4828  0.0771 -0.1475
   93MOL    C3346217   1.481   2.094   1.512 -0.0280  0.3889  0.0405
   93MOL    C3446218   1.588   2.174   1.583  0.0520  0.4838 -0.3368
   93MOL    C3546219   1.720   2.173   1.531  0.1131  1.2641 -0.3462
   93MOL    C3646220   1.824   2.250   1.589  0.1974 -0.2257 -0.5066
   93MOL    C3746221   1.791   2.331   1.700 -0.0422 -0.0631  0.0516
   93MOL    C3846222   1.659   2.341   1.752 -0.1639 -0.5318  0.4344
   93MOL    C3946223   1.560   2.257   1.699  0.4568 -0.3776  0.3019
   93MOL    H4046224   1.108   2.057   1.693  1.8287 -0.1485 -0.2486
   93MOL    H4146225   0.951   2.076   1.620  0.4238  0.0986  3.6586
   93MOL    H4246226   1.034   2.260   1.322  1.1915  0.4258  1.1646
   93MOL    H4346227   0.910   2.167   1.406  0.3364 -0.6904 -0.6064
   93MOL    H4446228   1.014   2.103   1.288 -1.0625  0.4122 -0.8582
   93MOL    H4546229   1.492   1.989   1.540 -2.0905  0.7926  2.5074
   93MOL    H4646230   1.497   2.112   1.405 -0.0540 -1.3016 -0.2737
   93MOL    H4746231   1.738   2.103   1.451  0.6059  0.2978  0.5900
   93MOL    H4846232   1.922   2.241   1.546  0.2047 -0.2435 -0.4865
   93MOL    H4946233   1.870   2.387   1.749 -1.1188 -0.5288  2.3990
   93MOL    H5046234   1.638   2.415   1.828  0.8822  0.0379  0.1737
   93MOL    H5146235   1.463   2.247   1.745  0.6322 -0.2615  0.6926
   93MOL    C5246236   1.114   2.296   1.584  0.0143  0.3803 -0.0277
   93MOL    C5346237   0.992   2.382   1.626 -0.4104  0.4908  0.1928
   93MOL    C5446238   0.942   2.333   1.762 -0.3654 -0.3808  0.0675
   93MOL    C5546239   0.870   2.396   1.529 -0.5871  0.5929  0.0267
   93MOL    O5646240   0.766   2.336   1.545  0.4142 -0.4178  0.1952
   93MOL    O5746241   0.905   2.466   1.421 -0.3826  0.0001 -0.4194
   93MOL    C5846242   0.806   2.490   1.318  0.1087 -1.1712 -0.5564
   93MOL    C5946243   0.818   2.399   1.195  0.3209  0.0761  0.4992
   93MOL    C6046244   0.911   2.435   1.089 -0.1492 -0.0429 -0.5609
   93MOL    C6146245   0.926   2.354   0.977  0.0018  0.1119  0.2032
   93MOL    C6246246   0.835   2.245   0.964 -0.1777 -0.2551  0.7883
   93MOL    C6346247   0.752   2.203   1.063  0.6600 -0.1199  0.6981
   93MOL    C6446248   0.749   2.276   1.186 -0.8791 -1.0126 -0.0600
   93MOL    H6546249   1.192   2.356   1.537  0.8579 -1.5697 -1.2047
   93MOL    H6646250   1.158   2.268   1.681  0.7352  3.1971  0.4930
   93MOL    H6746251   0.915   2.227   1.769 -1.3297 -0.2954 -1.9738
   93MOL    H6846252   0.849   2.375   1.799 -0.2286 -0.1051  0.1013
   93MOL    H6946253   1.016   2.358   1.838 -0.8049  0.0113  0.3611
   93MOL    H7046254   0.707   2.483   1.363 -0.1279 -2.6784 -1.2830
   93MOL    H7146255   0.816   2.590   1.276 -1.6471 -0.8831 -0.3343
   93MOL    H7246256   0.984   2.509   1.118 -0.6353 -0.1473  0.9616
   93MOL    H7346257   0.990   2.389   0.897  2.0665 -1.0528  1.3199
   93MOL    H7446258   0.840   2.191   0.870  5.0124 -1.5787  1.6706
   93MOL    H7546259   0.688   2.116   1.056 -0.2692  0.5346  0.8674
   93MOL    H7646260   0.682   2.254   1.267 -0.7481  2.1131  0.9814
   93MOL    C7746261   1.050   2.530   1.642 -0.0422 -0.1040  0.9419
   93MOL    C7846262   0.986   2.664   1.706 -0.4909  0.0236  0.0612
   93MOL    C7946263   1.091   2.776   1.665  0.5913  0.1474  0.2819
   93MOL    C8046264   0.986   2.630   1.861 -0.3594 -0.1843 -0.2526
   93MOL    O8146265   0.888   2.597   1.915 -0.0128  0.1717 -0.3300
   93MOL    O8246266   1.112   2.624   1.914 -0.2958 -0.0923 -0.1799
   93MOL    C8346267   1.119   2.625   2.050 -0.2213  0.1372 -0.5233
   93MOL    C8446268   1.261   2.636   2.108 -0.6530  0.1056  0.6862
   93MOL    C8546269   1.285   2.721   2.221  0.1526 -0.5279  0.3161
   93MOL    C8646270   1.417   2.735   2.271 -0.2608  0.6175  0.6419
   93MOL    C8746271   1.519   2.651   2.232  0.0371 -0.4228  0.2752
   93MOL    C8846272   1.495   2.563   2.123 -0.3529  0.0617 -0.7611
   93MOL    C8946273   1.369   2.564   2.057 -0.0472  0.2906  0.3918
   93MOL    H9046274   1.079   2.564   1.542  1.6772  1.7120  2.0309
   93MOL    H9146275   1.148   2.514   1.688  0.7543 -0.7163 -0.8795
   93MOL    H9246276   1.078   2.867   1.724  2.2026 -0.0428  0.9575
   93MOL    H9346277   1.067   2.805   1.563  0.6202  0.7410  0.4410
   93MOL    H9446278   1.191   2.734   1.677  0.0611 -0.1145  4.7012
   93MOL    H9546279   1.067   2.710   2.096  1.0963  0.9902 -0.5864
   93MOL    H9646280   1.081   2.538   2.104 -0.6949  0.0313 -1.0333
   93MOL    H9746281   1.205   2.778   2.264  1.0481  0.4995  0.6273
   93MOL    H9846282   1.425   2.809   2.349 -1.2891  1.4941 -0.0679
   93MOL    H9946283   1.617   2.658   2.276  1.5123 -0.4590 -2.8855
   93MOL   H10046284   1.576   2.502   2.088  0.2449 -0.4517  1.4678
   93MOL   H10146285   1.360   2.494   1.975  0.8985 -1.0870  1.4382
   93MOL   C10246286   0.837   2.691   1.648 -0.5010 -0.0817  0.3040
   93MOL   C10346287   0.768   2.833   1.659  0.2661 -0.0760 -0.3932
   93MOL   C10446288   0.616   2.804   1.615  0.6288  0.8258  0.2616
   93MOL   C10546289   0.828   2.927   1.544  0.2410 -0.2413  0.0650
   93MOL   O10646290   0.912   3.013   1.574 -0.0805  0.2950 -0.3021
   93MOL   O10746291   0.771   2.916   1.422  0.3907  0.7351 -0.1356
   93MOL   C10846292   0.768   3.037   1.355  0.3548  0.3178 -0.3608
   93MOL   C10946293   0.697   3.025   1.226 -0.0378  0.1403  0.1135
   93MOL   C11046294   0.581   2.944   1.213 -0.0814 -0.3159  0.2066
   93MOL   C11146295   0.506   2.946   1.091  0.8308  0.1229 -0.1894
   93MOL   C11246296   0.551   3.020   0.979  0.1833 -0.7412 -0.1240
   93MOL   C11346297   0.671   3.097   0.994 -0.2185  0.5188  0.0941
   93MOL   C11446298   0.741   3.101   1.116  0.0619  0.1237  0.1786
   93MOL   H11546299   0.771   2.618   1.694  1.0230 -1.7302 -0.0559
   93MOL   H11646300   0.824   2.659   1.545  2.4193  0.3800 -0.2646
   93MOL   H11746301   0.559   2.890   1.577  1.5273  0.5600 -1.7456
   93MOL   H11846302   0.559   2.758   1.696 -0.1919  1.2164 -0.0865
   93MOL   H11946303   0.601   2.728   1.538  2.0677  1.0880 -0.2863
   93MOL   H12046304   0.721   3.121   1.407  2.0986  0.6345  0.7657
   93MOL   H12146305   0.872   3.064   1.334 -0.1176  2.0637 -0.5833
   93MOL   H12246306   0.551   2.880   1.294 -1.2923 -0.2092 -0.1399
   93MOL   H12346307   0.422   2.878   1.089 -0.7042  1.8193  2.6675
   93MOL   H12446308   0.496   3.007   0.887 -0.0501 -1.9161  0.1699
   93MOL   H12546309   0.715   3.140   0.906 -2.6040  0.4773 -1.1454
   93MOL   H12646310   0.829   3.164   1.119  0.6536 -0.6479 -0.6451
   93MOL   C12746311   0.766   2.888   1.801 -0.2735 -0.1277 -0.4281
   93MOL   C12846312   0.680   3.007   1.849 -0.5188 -1.2848  0.0473
   93MOL   C12946313   0.746   3.034   1.987 -0.2692  0.0670  0.5941
   93MOL   C13046314   0.540   2.953   1.884  0.3901  0.4117  0.2924
   93MOL   O13146315   0.536   2.856   1.961  0.1543  0.4919 -0.2020
   93MOL   O13246316   0.432   3.009   1.824 -0.3402 -0.2054 -0.3308
   93MOL   C13346317   0.310   2.978   1.873  0.1207 -0.1546  0.1939
   93MOL   C13446318   0.259   3.070   1.980 -0.1341 -0.4958  0.6105
   93MOL   C13546319   0.178   3.177   1.948  0.1061 -0.1878 -0.3681
   93MOL   C13646320   0.129   3.262   2.050 -0.8899  0.0979  0.1068
   93MOL   C13746321   0.159   3.233   2.190  0.1008  0.5006  0.0787
   93MOL   C13846322   0.249   3.121   2.224  0.0532 -0.0197  0.5829
   93MOL   C13946323   0.302   3.043   2.119  0.0602  0.0365  0.7504
   93MOL   H14046324   0.869   2.920   1.820 -0.1259 -0.1987 -1.0926
   93MOL   H14146325   0.748   2.801   1.864 -2.8781 -1.1135 -2.4463
   93MOL   H14246326   0.709   3.119   2.044  1.1179 -0.3333  2.1508
   93MOL   H14346327   0.850   3.065   1.974 -0.7059  0.9861 -0.8204
   93MOL   H14446328   0.738   2.944   2.049 -0.2517 -1.1384 -1.1152
   93MOL   H14546329   0.236   2.977   1.793  0.1814  3.8427 -0.0152
   93MOL   H14646330   0.297   2.874   1.902 -0.0847  0.1926  1.3378
   93MOL   H14746331   0.168   3.208   1.844 -0.7110 -1.9293 -0.8198
   93MOL   H14846332   0.061   3.342   2.026 -0.4939  1.3967  3.0744
   93MOL   H14946333   0.118   3.289   2.273  0.6206  2.2962 -0.8388
   93MOL   H15046334   0.273   3.109   2.328  0.7914 -0.5558  0.3560
   93MOL   H15146335   0.368   2.959   2.138  0.0503 -0.7065 -2.1894
   93MOL   C15246336   0.674   3.141   1.758 -0.2323 -0.6637  0.0228
   93MOL   C15346337   0.625   3.291   1.796 -0.8714 -0.7297 -0.4879
   93MOL   C15446338   0.481   3.284   1.853 -0.5457  0.0383  0.2021
   93MOL   C15546339   0.623   3.370   1.657 -0.8383  0.5091  0.4579
   93MOL   O15646340   0.521   3.421   1.617 -0.3870  0.6623 -0.5660
   93MOL   O15746341   0.737   3.360   1.590  0.6340 -0.0413 -0.1044
   93MOL   C15846342   0.750   3.429   1.467 -0.1314  0.0679 -0.5650
   93MOL   C15946343   0.856   3.375   1.378 -0.5124  0.2710  0.2680
   93MOL   C16046344   0.965   3.306   1.434  0.4687  0.0105  0.7883
   93MOL   C16146345   1.082   3.281   1.352  0.0500 -0.1014 -0.1835
   93MOL   C16246346   1.076   3.323   1.219 -0.4392 -0.7888 -0.0623
   93MOL   C16346347   0.965   3.390   1.167 -0.4895  0.6824  0.5353
   93MOL   C16446348   0.852   3.413   1.242 -0.2417  0.0709 -0.2761
   93MOL   H16546349   0.624   3.120   1.663 -0.4307  0.7322 -0.1923
   93MOL   H16646350   0.778   3.164   1.734 -0.0716 -0.3120  1.0527
   93MOL   H16746351   0.478   3.211   1.933  0.3273  1.2302  1.3453
   93MOL   H16846352   0.399   3.265   1.783 -1.1000  3.4602 -0.1915
   93MOL   H16946353   0.454   3.379   1.899  0.4179  1.2577 -1.6762
   93MOL   H17046354   0.658   3.421   1.410  0.0239 -1.5626 -0.6145
   93MOL   H17146355   0.777   3.533   1.484 -0.5882  0.1748 -0.4911
   93MOL   H17246356   0.974   3.276   1.538 -0.8565 -1.7343  0.4191
   93MOL   H17346357   1.172   3.241   1.394  0.3272 -0.0666 -0.7414
   93MOL   H17446358   1.168   3.318   1.163 -0.5096  1.4323 -0.4479
   93MOL   H17546359   0.970   3.422   1.064  0.1605 -2.3935 -0.4398
   93MOL   H17646360   0.766   3.463   1.199 -0.3351 -0.9631 -1.3409
   93MOL   C17746361   0.720   3.361   1.899  0.0592 -0.6622 -0.0836
   93MOL   C17846362   0.746   3.516   1.907  0.1502  0.9262 -0.1030
   93MOL   C17946363   0.616   3.600   1.918  0.6543  0.0030 -0.3137
   93MOL   C18046364   0.835   3.569   1.792  0.6582 -0.3162  0.4111
   93MOL   O18146365   0.790   3.660   1.719 -0.3132  0.3042 -0.1233
   93MOL   O18246366   0.948   3.500   1.783  0.2601  0.4315 -0.2230
   93MOL   C18346367   1.047   3.548   1.688 -0.4372 -0.3528 -0.2841
   93MOL   C18446368   1.166   3.460   1.680 -0.3619 -0.3562  0.1324
   93MOL   C18546369   1.262   3.483   1.582 -0.7433 -0.5969 -0.1242
   93MOL   C18646370   1.376   3.397   1.558  0.6872 -0.0811  0.7685
   93MOL   C18746371   1.390   3.282   1.636 -0.0220 -0.0857 -0.1197
   93MOL   C18846372   1.306   3.263   1.749 -0.1103  0.8541 -0.0489
   93MOL   C18946373   1.194   3.349   1.765  0.2818  0.0178  0.3112
   93MOL   H19046374   0.822   3.324   1.888 -0.2060 -1.8398  1.3363
   93MOL   H19146375   0.678   3.330   1.994  0.8783  0.0003  0.4979
   93MOL   H19246376   0.549   3.571   1.837  0.5671 -0.2751 -0.1377
   93MOL   H19346377   0.633   3.707   1.904 -2.2753  0.9435  2.7935
   93MOL   H19446378   0.567   3.590   2.014  1.2117  1.1342  0.1026
   93MOL   H19546379   1.012   3.549   1.585  1.1364  0.6160 -0.8136
   93MOL   H19646380   1.087   3.644   1.720 -0.5932 -0.1995 -0.5569
   93MOL   H19746381   1.254   3.572   1.521  1.4293 -1.0528 -1.1041
   93MOL   H19846382   1.438   3.427   1.474 -0.0397  0.1384  0.2978
   93MOL   H19946383   1.466   3.208   1.618 -0.6796 -0.4668 -1.3580
   93MOL   H20046384   1.313   3.168   1.799  0.5596  0.3940 -0.9978
   93MOL   H20146385   1.118   3.318   1.835 -1.2991  4.0951  0.5437
   93MOL   C20246386   0.824   3.525   2.051  0.9715 -0.1482  1.7098
   93MOL   C20346387   0.885   3.654   2.111 -0.3361  0.5920  0.6158
   93MOL   C20446388   0.784   3.774   2.084 -0.1571 -0.4735 -0.6754
   93MOL   C20546389   1.019   3.669   2.029 -0.2239  1.0290  0.0035
   93MOL   O20646390   1.100   3.577   2.028  1.1506  1.0264  0.0720
   93MOL   O20746391   1.038   3.783   1.965  0.3898 -0.4747 -0.2119
   93MOL   C20846392   1.167   3.817   1.913 -0.0174 -0.3373  0.2072
   93MOL   C20946393   1.140   3.911   1.796  0.0381 -0.4669 -0.2946
   93MOL   C21046394   1.259   3.964   1.745 -0.4834 -0.3827  0.2246
   93MOL   C21146395   1.252   4.049   1.634 -0.4610 -0.1700  0.0563
   93MOL   C21246396   1.129   4.082   1.576  0.1024 -0.7654  0.1530
   93MOL   C21346397   1.013   4.030   1.627  0.4013  0.1961 -0.1608
   93MOL   C21446398   1.015   3.932   1.728  1.1993  0.4487 -0.0561
   93MOL   H21546399   0.897   3.444   2.061  1.3922 -0.5617 -3.3698
   93MOL   H21646400   0.746   3.500   2.122 -0.4414  2.9678  1.3583
   93MOL   H21746401   0.786   3.815   1.983  3.7713  0.2011 -0.4302
   93MOL   H21846402   0.825   3.856   2.143  0.2937 -1.4602  0.4133
   93MOL   H21946403   0.680   3.747   2.102 -0.4894 -0.0547 -1.9324
   93MOL   H22046404   1.225   3.867   1.991  1.5208  0.8977 -1.7092
   93MOL   H22146405   1.221   3.730   1.874 -0.3725 -1.1444  1.4806
   93MOL   H22246406   1.350   3.948   1.800  0.4083  1.3729 -0.6833
   93MOL   H22346407   1.343   4.094   1.599 -0.9604 -0.5942 -1.8641
   93MOL   H22446408   1.117   4.153   1.495 -0.7526  0.0735  1.0052
   93MOL   H22546409   0.928   4.062   1.569  0.5998 -1.4594 -1.4235
   93MOL   H22646410   0.926   3.883   1.764  2.2636 -0.5020  1.3491
   93MOL   C22746411   0.891   3.638   2.277 -0.4378  0.0847  0.0350
   93MOL   C22846412   1.010   3.700   2.360  0.5694  0.0886 -0.0787
   93MOL   C22946413   1.014   3.855   2.327 -0.4177  0.6906  0.0109
   93MOL   C23046414   1.142   3.622   2.314 -0.0742  0.0089 -0.2939
   93MOL   O23146415   1.239   3.686   2.286 -0.2861  0.7533  0.7914
   93MOL   O23246416   1.116   3.498   2.317 -0.0027  0.1565  0.1194
   93MOL   C23346417   1.223   3.420   2.263 -0.2006 -0.4119 -0.2872
   93MOL   C23446418   1.169   3.288   2.223  1.2348 -0.0379  0.5445
   93MOL   C23546419   1.187   3.241   2.090 -0.4816  0.3342  0.3340
   93MOL   C23646420   1.135   3.104   2.060  0.4830 -0.0073 -0.2536
   93MOL   C23746421   1.078   3.025   2.164  0.0193 -0.0005 -0.3681
   93MOL   C23846422   1.073   3.072   2.298 -0.1118  0.1404 -0.1389
   93MOL   C23946423   1.109   3.207   2.322 -0.0202 -0.3736  0.3216
   93MOL   H24046424   0.883   3.530   2.292  2.4381 -0.6598 -3.2637
   93MOL   H24146425   0.804   3.689   2.319  1.0937  0.9826  2.2020
   93MOL   H24246426   0.919   3.908   2.342 -0.7494  1.7816 -5.2691
   93MOL   H24346427   1.042   3.880   2.225 -1.0919  4.1714  0.5863
   93MOL   H24446428   1.088   3.903   2.392 -0.0131  1.4136 -0.9784
   93MOL   H24546429   1.275   3.467   2.180 -1.3567 -0.1828 -0.8931
   93MOL   H24646430   1.289   3.407   2.349 -2.2209 -1.4085  1.1571
   93MOL   H24746431   1.233   3.304   2.015 -0.8170 -0.2754 -0.3870
   93MOL   H24846432   1.140   3.059   1.962  0.0441 -0.5733 -0.0238
   93MOL   H24946433   1.038   2.929   2.135 -0.7670  0.1759  0.1006
   93MOL   H25046434   1.018   3.013   2.370  1.4115 -0.3129  0.6680
   93MOL   H25146435   1.096   3.253   2.419 -0.3121  0.0885  0.0622
   93MOL   C25246436   0.971   3.689   2.512 -0.4290 -0.0044 -0.1082
   93MOL   C25346437   1.062   3.707   2.639  0.2482  0.3216 -0.6712
   93MOL   C25446438   1.146   3.837   2.638 -0.3937 -0.2830  0.2640
   93MOL   C25546439   1.158   3.584   2.644 -0.5750 -0.6333  0.8299
   93MOL   O25646440   1.268   3.594   2.594 -0.9237  0.1690  0.1280
   93MOL   O25746441   1.102   3.464   2.682 -0.1456  0.4320 -0.2879
   93MOL   C25846442   1.190   3.352   2.675  0.9909  0.2482  0.2028
   93MOL   C25946443   1.115   3.223   2.716 -0.8066  0.3694 -0.0491
   93MOL   C26046444   1.154   3.090   2.664  0.0178  1.0424  0.2980
   93MOL   C26146445   1.074   2.977   2.697 -1.1217  0.6016  0.0170
   93MOL   C26246446   0.965   2.990   2.788 -0.5427 -0.5410  0.2082
   93MOL   C26346447   0.924   3.114   2.832  0.3208  0.4273  0.0914
   93MOL   C26446448   0.999   3.230   2.796 -0.3276 -0.0094 -0.2836
   93MOL   H26546449   0.925   3.592   2.530 -0.3551  0.1371  0.8783
   93MOL   H26646450   0.889   3.762   2.516  0.1253  0.5584  1.1151
   93MOL   H26746451   1.211   3.837   2.551  0.6331 -2.0354  1.0151
   93MOL   H26846452   1.210   3.845   2.726  1.9843 -0.4931 -1.4070
   93MOL   H26946453   1.091   3.932   2.635 -0.4331 -0.1687  3.1991
   93MOL   H27046454   1.234   3.338   2.576 -0.2605 -2.1155 -0.0603
   93MOL   H27146455   1.264   3.358   2.755  1.8215 -1.1926 -0.4243
   93MOL   H27246456   1.246   3.081   2.608 -1.0408 -0.7259 -1.2035
   93MOL   H27346457   1.106   2.883   2.653  0.2809  0.1395  1.9775
   93MOL   H27446458   0.914   2.903   2.828 -0.3430 -0.9322 -0.3870
   93MOL   H27546459   0.847   3.119   2.908  1.6674 -0.4504  1.5464
   93MOL   H27646460   0.960   3.326   2.827 -2.5250 -0.5981 -1.1250
   93MOL   C27746461   0.992   3.706   2.783 -0.1927 -0.7834  0.0216
   93MOL   C27846462   0.857   3.776   2.824 -0.2924  0.5938 -0.9377
   93MOL   C27946463   0.736   3.718   2.742  0.1600 -0.7666  0.2239
   93MOL   C28046464   0.857   3.927   2.798  0.3908  0.4692 -1.1254
   93MOL   O28146465   0.760   3.986   2.752 -0.0587 -0.3948  0.4268
   93MOL   O28246466   0.967   3.989   2.844 -0.1902  0.0974  0.3147
   93MOL   C28346467   0.967   4.133   2.850  0.2532  0.3144  0.0089
   93MOL   C28446468   0.947   4.176   2.994 -0.5640 -0.4185 -0.5399
   93MOL   C28546469   0.817   4.182   3.044  0.1640  0.3195  0.4905
   93MOL   C28646470   0.801   4.222   3.177 -0.6241  0.6529 -0.0874
   93MOL   C28746471   0.909   4.248   3.261 -0.4415 -0.3142  0.7004
   93MOL   C28846472   1.038   4.234   3.212 -0.9586 -0.3548  0.4898
   93MOL   C28946473   1.061   4.202   3.074  0.0226  0.3951 -0.2922
   93MOL   H29046474   1.072   3.726   2.854  0.7707  0.8883 -1.4850
   93MOL   H29146475   0.964   3.603   2.802 -0.6779 -0.6169  0.2128
   93MOL   H29246476   0.640   3.750   2.783  0.1196  2.5702 -2.2876
   93MOL   H29346477   0.727   3.609   2.746 -1.8193 -0.6135  0.4501
   93MOL   H29446478   0.733   3.750   2.638  0.1409  0.5820  0.6330
   93MOL   H29546479   1.066   4.163   2.816 -1.0640  2.3554 -2.2725
   93MOL   H29646480   0.901   4.180   2.777 -0.5848  2.4424  2.0709
   93MOL   H29746481   0.730   4.147   2.991  0.6149  0.0565 -0.0752
   93MOL   H29846482   0.705   4.225   3.226 -0.3587  1.5392  0.4034
   93MOL   H29946483   0.879   4.261   3.364  1.9541 -0.8554  1.4801
   93MOL   H30046484   1.124   4.255   3.274 -1.7498  1.4786  0.9976
   93MOL   H30146485   1.161   4.196   3.033 -0.6460 -0.9945 -1.7946
   93MOL   C30246486   0.825   3.774   2.982 -0.6635 -0.1207  0.8330
   93MOL   C30346487   0.834   3.653   3.076 -0.0597 -0.3815 -0.4944
   93MOL   C30446488   0.784   3.706   3.212 -0.1825  0.5975  0.2006
   93MOL   C30546489   0.985   3.611   3.079  0.0761 -0.3497  0.4794
   93MOL   O30646490   1.020   3.507   3.027 -0.6724  0.4249  0.0038
   93MOL   O30746491   1.057   3.691   3.147 -0.0926  0.4324 -0.4439
   93MOL   C30846492   1.191   3.662   3.181 -0.0291  0.2617 -0.6441
   93MOL   C30946493   1.295   3.703   3.070 -0.2744  0.2510 -0.1357
   93MOL   C31046494   1.327   3.614   2.963  0.4578  0.0051 -0.4738
   93MOL   C31146495   1.408   3.661   2.859  0.0371  0.4809 -0.3565
   93MOL   C31246496   1.475   3.784   2.859 -0.2287 -0.6224  0.6511
   93MOL   C31346497   1.453   3.867   2.972  0.0160  0.2764  0.5761
   93MOL   C31446498   1.370   3.824   3.077  0.2074  0.0799 -0.2381
   93MOL   H31546499   0.726   3.818   2.994 -1.7596 -2.1477 -0.3993
   93MOL   H31646500   0.884   3.848   3.035 -0.1964  0.0063  0.1494
   93MOL   H31746501   0.853   3.789   3.232  0.7378 -0.3387  0.9611
   93MOL   H31846502   0.803   3.623   3.280  0.8770 -0.0635 -0.8665
   93MOL   H31946503   0.682   3.743   3.215 -0.9586 -0.8297 -4.3433
   93MOL   H32046504   1.221   3.714   3.272 -1.2539  0.0486 -0.1036
   93MOL   H32146505   1.202   3.556   3.204  0.7314  0.2721 -0.9416
   93MOL   H32246506   1.285   3.514   2.972  0.5283 -0.0593 -0.8533
   93MOL   H32346507   1.426   3.587   2.782 -0.6563 -0.8821  0.7647
   93MOL   H32446508   1.534   3.822   2.777  0.1144 -0.5276  0.9389
   93MOL   H32546509   1.493   3.967   2.976 -2.3238  1.4960 -3.4804
   93MOL   H32646510   1.349   3.883   3.165 -0.1047  0.9302 -0.8797
   93MOL   C32746511   0.741   3.536   3.018  0.1264 -0.3246  0.2308
   93MOL   C32846512   0.702   3.400   3.089  1.1555 -0.1860 -0.2285
   93MOL   C32946513   0.824   3.329   3.155 -0.8382  0.0203 -0.1445
   93MOL   C33046514   0.631   3.320   2.976 -0.8022  0.3566 -0.9682
   93MOL   O33146515   0.593   3.378   2.876  0.1898  0.1036 -0.4501
   93MOL   O33246516   0.615   3.194   3.010  0.6012 -0.2273  0.4213
   93MOL   C33346517   0.531   3.111   2.929  0.4960 -0.0500 -0.0927
   93MOL   C33446518   0.558   2.966   2.956 -0.2699 -0.0792  0.4774
   93MOL   C33546519   0.665   2.922   3.035 -0.4987 -0.1597  0.6090
   93MOL   C33646520   0.680   2.785   3.058 -0.3175 -0.2662 -0.3395
   93MOL   C33746521   0.591   2.692   2.995 -0.1669 -0.4675 -0.3803
   93MOL   C33846522   0.489   2.737   2.914  0.1202  0.2733  0.1033
   93MOL   C33946523   0.473   2.874   2.894 -0.4243 -0.2819  0.2426
   93MOL   H34046524   0.796   3.501   2.931 -0.3449 -0.0006 -0.2017
   93MOL   H34146525   0.649   3.586   2.986 -0.6078  0.6346  3.6753
   93MOL   H34246526   0.880   3.267   3.085  0.1255 -0.8056  1.3188
   93MOL   H34346527   0.798   3.243   3.217  0.0212 -1.1689 -1.4097
   93MOL   H34446528   0.892   3.396   3.208 -0.3466 -0.8748  0.3925
   93MOL   H34546529   0.429   3.127   2.965  1.1113  0.4362  1.4707
   93MOL   H34646530   0.549   3.134   2.824 -1.9806 -0.7744 -0.7247
   93MOL   H34746531   0.726   2.991   3.091  0.0294 -0.6805  0.6930
   93MOL   H34846532   0.766   2.758   3.118 -0.3370  3.0687  1.3352
   93MOL   H34946533   0.607   2.587   3.016 -0.2912 -0.3524  0.2999
   93MOL   H35046534   0.422   2.662   2.874  0.7789 -0.0865 -0.3492
   93MOL   H35146535   0.390   2.905   2.833 -0.0781  1.9305  0.8474
   93MOL   C35246536   0.597   3.439   3.197  0.6086 -0.1115  0.1138
   93MOL   C35346537   0.488   3.350   3.270  0.3721  0.3375  0.0867
   93MOL   C35446538   0.450   3.430   3.396  0.1458 -0.1565 -0.1569
   93MOL   C35546539   0.542   3.206   3.321 -0.5697 -0.8861  0.5469
   93MOL   O35646540   0.516   3.103   3.259 -0.0773 -0.4568  0.3435
   93MOL   O35746541   0.631   3.229   3.414 -0.2135 -0.1130  0.0795
   93MOL   C35846542   0.684   3.126   3.485  0.1049 -0.1209  0.5212
   93MOL   C35946543   0.783   3.187   3.583 -0.0473  0.6386  0.5732
   93MOL   C36046544   0.915   3.185   3.538  0.1814 -0.3713  0.4591
   93MOL   C36146545   1.022   3.231   3.619 -0.1193 -0.1687  0.2531
   93MOL   C36246546   0.989   3.278   3.745  0.8714  0.1657 -0.2358
   93MOL   C36346547   0.852   3.288   3.787  0.5168 -0.0063  0.0664
   93MOL   C36446548   0.748   3.239   3.709 -0.0640 -0.4957 -0.2165
   93MOL   H36546549   0.545   3.528   3.160  0.1069 -1.1726 -1.7836
   93MOL   H36646550   0.664   3.475   3.275  0.2454 -0.7202  0.7047
   93MOL   H36746551   0.527   3.433   3.472 -0.2000  3.4464  0.1459
   93MOL   H36846552   0.369   3.378   3.447 -2.1867 -0.2436 -3.7289
   93MOL   H36946553   0.419   3.533   3.376  0.6469  0.1491  0.6417
   93MOL   H37046554   0.615   3.064   3.543 -1.7257  0.2237 -1.2376
   93MOL   H37146555   0.744   3.062   3.420  0.0371 -0.0740  0.4138
   93MOL   H37246556   0.938   3.139   3.443  1.3424 -1.2713  1.1643
   93MOL   H37346557   1.126   3.211   3.598 -0.3276 -1.1420  0.1257
   93MOL   H37446558   1.064   3.314   3.813  0.8378  0.8710 -0.5657
   93MOL   H37546559   0.837   3.345   3.877  2.4930  0.8922 -0.1359
   93MOL   H37646560   0.646   3.235   3.741  0.6344  0.3572  2.2094
   93MOL   C37746561   0.365   3.324   3.171 -0.1186 -0.4490 -0.0303
   93MOL   C37846562   0.211   3.332   3.193  0.2047  0.1362 -0.6910
   93MOL   C37946563   0.173   3.238   3.310 -0.0841  0.4208  1.2158
   93MOL   C38046564   0.146   3.272   3.071 -0.2987 -0.1622  0.7382
   93MOL   O38146565   0.105   3.155   3.071 -0.1822  0.1636  0.1958
   93MOL   O38246566   0.160   3.347   2.960 -0.2833 -0.1764  0.0843
   93MOL   C38346567   0.092   3.310   2.834 -0.4559  0.4477 -0.1158
   93MOL   C38446568   0.187   3.238   2.742 -0.0164  0.1212  0.2153
   93MOL   C38546569   0.294   3.313   2.687 -0.7596  0.1345 -0.0871
   93MOL   C38646570   0.391   3.248   2.607  0.1275  0.1550  0.1163
   93MOL   C38746571   0.373   3.110   2.571 -0.0664 -0.7688  0.4918
   93MOL   C38846572   0.257   3.044   2.608 -0.3423 -0.2172  0.0006
   93MOL   C38946573   0.159   3.111   2.686 -0.1868 -0.0669  0.3415
   93MOL   H39046574   0.389   3.231   3.119 -2.5962 -1.6130  0.8256
   93MOL   H39146575   0.377   3.402   3.096  0.2599  0.0200  0.5119
   93MOL   H39246576   0.180   3.275   3.413 -0.6180  0.8309  1.1105
   93MOL   H39346577   0.236   3.150   3.309 -0.9734 -0.2489 -1.8686
   93MOL   H39446578   0.072   3.198   3.307  0.6208 -1.2778 -0.9684
   93MOL   H39546579   0.011   3.242   2.861  0.6212 -0.5123  0.7260
   93MOL   H39646580   0.057   3.406   2.794 -0.3808  0.8288  0.7109
   93MOL   H39746581   0.329   3.411   2.712  1.5317 -0.5095 -0.6490
   93MOL   H39846582   0.486   3.297   2.590  0.2457  0.4408  1.5623
   93MOL   H39946583   0.436   3.064   2.496 -1.9423 -0.6757 -1.2022
   93MOL   H40046584   0.234   2.942   2.581  2.3184 -1.1705  1.1749
   93MOL   H40146585   0.069   3.056   2.712 -0.4831  0.7760  1.1129
   93MOL   C40246586   0.166   3.476   3.231 -0.3364 -0.3256  0.2074
   93MOL   C40346587   0.019   3.511   3.266  0.8053  0.0191  0.2479
   93MOL   C40446588   0.030   3.668   3.269  0.3225  0.5077  0.2211
   93MOL   C40546589   7.984   3.458   3.405 -0.2437 -0.2436 -0.2561
   93MOL   O40646590   7.908   3.365   3.415  0.0688 -0.2944 -0.4693
   93MOL   O40746591   0.039   3.522   3.510 -0.2299 -0.0947  0.2509
   93MOL   C40846592   0.025   3.482   3.649  0.0248  0.4639 -0.7541
   93MOL   C40946593   0.129   3.373   3.681 -0.5468 -0.4184  0.5262
   93MOL   C41046594   0.085   3.242   3.673 -0.1333  0.4508 -0.2325
   93MOL   C41146595   0.169   3.135   3.710  0.4917 -0.0905 -0.4505
   93MOL   C41246596   0.300   3.163   3.752  0.1191  0.8569  0.5824
   93MOL   C41346597   0.347   3.295   3.752 -0.3541  0.3217 -0.3229
   93MOL   C41446598   0.265   3.400   3.715 -0.2921 -0.1929  0.5011
   93MOL   H41546599   0.193   3.535   3.143  0.6925 -0.7773  0.2125
   93MOL   H41646600   0.226   3.531   3.304  0.3530  2.5584 -2.4163
   93MOL   H41746601   7.947   3.727   3.288  0.5251  0.3635  1.7041
   93MOL   H41846602   0.063   3.706   3.173  1.9474  0.1670  0.6330
   93MOL   H41946603   0.107   3.701   3.339  1.3029 -0.4367 -0.3953
   93MOL   H42046604   0.042   3.565   3.717 -0.7458 -0.1793  0.2363
   93MOL   H42146605   7.929   3.450   3.668 -0.2299  2.6278  1.7290
   93MOL   H42246606   7.989   3.221   3.647  0.4446  0.8265 -2.8904
   93MOL   H42346607   0.112   3.043   3.705 -1.6215  1.1541 -0.1848
   93MOL   H42446608   0.368   3.088   3.789  0.7172  0.6300 -0.9233
   93MOL   H42546609   0.444   3.306   3.797 -0.6808 -0.0116  0.4740
   93MOL   H42646610   0.293   3.504   3.726  0.6098 -0.3120 -0.6164
   93MOL   C42746611   7.917   3.468   3.163 -0.3223  0.9962 -0.2230
   93MOL   C42846612   7.788   3.546   3.124  0.4665  0.4372  0.8871
   93MOL   C42946613   7.823   3.652   3.017  0.1090 -0.2303 -0.1835
   93MOL   C43046614   7.697   3.604   3.240 -1.1759  0.2235  0.0237
   93MOL   O43146615   7.654   3.720   3.236 -0.5712  0.1203 -1.1706
   93MOL   O43246616   7.665   3.507   3.327  0.1990  0.3587  0.1812
   93MOL   C43346617   7.548   3.519   3.410  0.3313 -0.3807 -0.1036
   93MOL   C43446618   7.579   3.501   3.560 -0.3478  0.4675 -0.1343
   93MOL   C43546619   7.521   3.589   3.654  0.1754  0.1876  0.2031
   93MOL   C43646620   7.538   3.568   3.790 -0.4067  0.4909 -0.4334
   93MOL   C43746621   7.614   3.454   3.835 -0.5698  0.3340  0.0331
   93MOL   C43846622   7.671   3.366   3.744  0.3300  0.0912  0.8403
   93MOL   C43946623   7.656   3.390   3.607  0.0470  0.7815 -0.5972
   93MOL   H44046624   7.875   3.372   3.193 -0.4122  2.3040  4.2905
   93MOL   H44146625   7.968   3.451   3.068  1.3276 -0.9563  0.9840
   93MOL   H44246626   7.884   3.623   2.931  0.6961 -0.9833  0.4795
   93MOL   H44346627   7.883   3.733   3.058 -0.6130  0.2444 -0.0518
   93MOL   H44446628   7.742   3.719   2.988 -0.7776 -1.6064 -0.9469
   93MOL   H44546629   7.511   3.622   3.411  0.5651 -0.2753  2.1556
   93MOL   H44646630   7.474   3.447   3.377  0.7880 -0.4371 -1.0165
   93MOL   H44746631   7.463   3.675   3.623  1.7275  0.6544 -1.4845
   93MOL   H44846632   7.488   3.623   3.869 -0.6896  1.4015 -1.2327
   93MOL   H44946633   7.623   3.436   3.941 -0.3991 -0.7684 -0.1706
   93MOL   H45046634   7.720   3.273   3.770 -0.0110 -0.5037 -0.6101
   93MOL   H45146635   7.684   3.313   3.537  1.2632 -0.7988  1.5756
   93MOL   C45246636   7.700   3.430   3.056 -0.6052 -0.6562  0.1942
   93MOL   C45346637   7.578   3.462   2.955  0.1210 -0.6319  0.2944
   93MOL   C45446638   7.626   3.495   2.811  0.2428 -0.0681 -0.1814
   93MOL   C45546639   7.477   3.561   3.014  0.6575 -0.9128  0.0997
   93MOL   O45646640   7.452   3.664   2.953 -0.4219  0.2723  0.9357
   93MOL   O45746641   7.422   3.521   3.127 -0.3051 -0.2734  0.5872
   93MOL   C45846642   7.314   3.594   3.176 -0.4909  0.1196  0.4525
   93MOL   C45946643   7.192   3.585   3.083  0.3446 -0.6287 -0.5908
   93MOL   C46046644   7.161   3.460   3.021 -0.0865 -0.1107  0.4620
   93MOL   C46146645   7.034   3.442   2.957 -0.0382  0.3283 -0.0265
   93MOL   C46246646   6.937   3.541   2.969 -0.1455 -0.4233  0.8669
   93MOL   C46346647   6.971   3.669   3.018  0.2099  0.2357  0.5575
   93MOL   C46446648   7.095   3.687   3.080  0.0745 -0.6133 -0.1747
   93MOL   H46546649   7.656   3.370   3.136  1.5857 -2.0268  0.4016
   93MOL   H46646650   7.758   3.361   2.995 -3.1443 -2.9503  0.2787
   93MOL   H46746651   7.613   3.602   2.795 -1.5912 -0.0789  1.0690
   93MOL   H46846652   7.558   3.458   2.735  0.1875  2.1329 -1.2391
   93MOL   H46946653   7.732   3.489   2.790 -0.2918  0.1767 -3.1942
   93MOL   H47046654   7.289   3.554   3.274 -1.3871  0.7460  0.4933
   93MOL   H47146655   7.352   3.696   3.186  0.0864  0.0806 -1.2782
   93MOL   H47246656   7.233   3.380   3.022  0.0410 -0.0133 -0.3356
   93MOL   H47346657   7.018   3.341   2.922  0.5624  0.6243 -1.1449
   93MOL   H47446658   6.836   3.528   2.933 -0.3622  1.6491  0.7032
   93MOL   H47546659   6.906   3.756   3.016 -0.7257 -0.4764 -0.4427
   93MOL   H47646660   7.128   3.776   3.131  1.4068 -1.6297  0.7591
   93MOL   C47746661   7.503   3.326   2.945  0.5099 -0.5401  0.1568
   93MOL   C47846662   7.560   3.214   2.856 -0.3062 -0.2198 -0.0993
   93MOL   C47946663   7.447   3.106   2.841  0.6924 -0.4320 -0.1041
   93MOL   C48046664   7.678   3.133   2.918  0.1521 -0.6130 -0.2621
   93MOL   O48146665   7.785   3.123   2.868  0.1086 -0.7251  0.6527
   93MOL   O48246666   7.655   3.084   3.042 -0.2879 -0.5026  0.1013
   93MOL   C48346667   7.768   3.035   3.115  0.0349 -0.6779  0.5472
   93MOL   C48446668   7.759   3.028   3.259 -0.4493  0.3571 -0.2422
   93MOL   C48546669   7.873   3.004   3.335 -0.0038  0.9482 -0.0748
   93MOL   C48646670   7.879   3.010   3.477 -0.2913 -0.3447 -0.6936
   93MOL   C48746671   7.759   3.045   3.545  0.1589  0.6633  0.1878
   93MOL   C48846672   7.639   3.074   3.471  0.2011  0.2911 -0.7785
   93MOL   C48946673   7.647   3.062   3.328  0.5508  0.2898  0.4390
   93MOL   H49046674   7.403   3.340   2.905 -1.1327 -3.4888  3.1021
   93MOL   H49146675   7.490   3.301   3.050 -1.7282  1.0474  0.2981
   93MOL   H49246676   7.492   3.017   2.798 -0.6042 -0.3793 -1.5861
   93MOL   H49346677   7.364   3.141   2.781  0.3327  1.3904  1.3975
   93MOL   H49446678   7.396   3.082   2.934  0.5850 -0.4519 -0.1681
   93MOL   H49546679   7.787   2.936   3.074 -2.5343 -1.5641  1.3811
   93MOL   H49646680   7.856   3.098   3.106 -0.0953 -0.3928  1.2393
   93MOL   H49746681   7.970   2.986   3.292  0.0993  1.2149  0.0446
   93MOL   H49846682   7.976   2.981   3.514 -0.1232  1.6826  0.5205
   93MOL   H49946683   7.754   3.033   3.652  2.0701  0.9943  0.3402
   93MOL   H50046684   7.540   3.094   3.509  0.8954 -1.7759  2.2412
   93MOL   H50146685   7.556   3.086   3.275  0.9157  1.6906  0.4221
   93MOL   H50246686   7.586   3.243   2.754 -3.5569 -0.8752 -1.1878
   94MOL     C146687   1.673   6.492   4.103 -0.4873  0.5394 -0.6692
   94MOL     C246688   1.525   6.428   4.095  0.0878 -0.0438  0.6076
   94MOL     C346689   1.476   6.472   3.951 -0.5279 -0.0820  0.0125
   94MOL     C446690   1.440   6.496   4.206 -0.5565 -0.5211 -0.1869
   94MOL     O546691   1.487   6.551   4.304  0.0794  0.4104  0.1457
   94MOL     O646692   1.311   6.466   4.195 -0.4492 -0.4001 -0.3430
   94MOL     C746693   1.227   6.523   4.297  0.1410  0.7660  0.4330
   94MOL     C846694   1.169   6.662   4.254  0.7095  0.2442  0.0865
   94MOL     C946695   1.102   6.730   4.355  0.0599 -0.4516 -0.4994
   94MOL    C1046696   1.054   6.861   4.323  0.3578  0.5484 -0.1778
   94MOL    C1146697   1.060   6.913   4.192 -0.6721  0.1329  0.9437
   94MOL    C1246698   1.122   6.839   4.092  0.0934  0.0783 -0.2385
   94MOL    C1346699   1.180   6.720   4.122  0.6766  0.7704  0.2791
   94MOL    H1446700   1.741   6.461   4.182  1.7332  1.4606 -2.2016
   94MOL    H1546701   1.721   6.493   4.006 -0.9077  1.1723 -0.8719
   94MOL    H1646702   1.372   6.462   3.918 -0.5051 -0.2895  0.0026
   94MOL    H1746703   1.543   6.436   3.874 -0.0664  0.3350  0.2207
   94MOL    H1846704   1.476   6.581   3.941 -0.3312  0.0168  0.9974
   94MOL    H1946705   1.147   6.451   4.309 -0.8406  1.6358 -0.8064
   94MOL    H2046706   1.265   6.518   4.399 -1.2122 -2.6780  0.8284
   94MOL    H2146707   1.090   6.694   4.456 -0.1274  1.3687  0.1399
   94MOL    H2246708   1.017   6.921   4.404  1.4868 -0.0200  0.7734
   94MOL    H2346709   1.013   7.006   4.162 -0.0266  0.5707  1.2933
   94MOL    H2446710   1.123   6.871   3.989  2.1964 -0.8679 -0.5372
   94MOL    H2546711   1.233   6.669   4.042 -1.9239  0.4111 -1.2710
   94MOL    H2646712   1.655   6.596   4.129  1.0486  0.3166  1.4345
   94MOL    C2746713   1.534   6.272   4.093 -0.0210 -0.4487  0.1389
   94MOL    C2846714   1.610   6.188   4.199  0.1620 -0.4230 -0.4777
   94MOL    C2946715   1.580   6.239   4.345 -0.0848  0.3624  0.3256
   94MOL    C3046716   1.761   6.199   4.175  0.1387  0.9090 -0.2219
   94MOL    O3146717   1.838   6.217   4.266  0.3653  0.1441  0.2801
   94MOL    O3246718   1.789   6.200   4.042 -0.2205 -0.1028 -0.1790
   94MOL    C3346719   1.921   6.209   4.006 -0.2370  0.1947 -0.5148
   94MOL    C3446720   1.934   6.235   3.860 -0.2592 -0.1303  0.7935
   94MOL    C3546721   1.949   6.140   3.756  0.0145 -0.5347  0.5247
   94MOL    C3646722   1.945   6.172   3.619  0.3662 -0.3475 -0.3035
   94MOL    C3746723   1.925   6.304   3.577 -0.5796  1.3089 -0.2201
   94MOL    C3846724   1.922   6.398   3.684  0.4159  0.1072 -0.3851
   94MOL    C3946725   1.925   6.365   3.821 -0.0551  0.2582 -1.0549
   94MOL    H4046726   1.569   6.251   3.992 -0.9076  1.2597 -0.5460
   94MOL    H4146727   1.428   6.249   4.094 -0.6606  2.3152 -0.9420
   94MOL    H4246728   1.635   6.181   4.419  3.7706  1.3782 -1.6649
   94MOL    H4346729   1.472   6.233   4.363 -0.1129  0.5030  0.2064
   94MOL    H4446730   1.614   6.340   4.364  0.2666 -0.4196  4.2698
   94MOL    H4546731   1.968   6.296   4.053 -0.4068  1.6217 -2.9235
   94MOL    H4646732   1.987   6.125   4.031 -1.2119 -0.1578  0.9140
   94MOL    H4746733   1.955   6.036   3.785 -0.5917 -0.8447 -0.4247
   94MOL    H4846734   1.960   6.100   3.539  2.6003  2.1077 -2.1774
   94MOL    H4946735   1.921   6.330   3.472  2.4622  1.5930 -0.3005
   94MOL    H5046736   1.912   6.502   3.655  0.4010 -0.1365 -1.2732
   94MOL    H5146737   1.924   6.445   3.894  0.3070 -0.5024 -0.2171
   94MOL    C5246738   1.558   6.043   4.167 -0.2495 -0.1618 -0.3808
   94MOL    C5346739   1.623   5.912   4.212 -0.2163  0.3241 -0.2927
   94MOL    C5446740   1.514   5.799   4.186  0.2152  0.0363  0.6563
   94MOL    C5546741   1.641   5.919   4.364  0.6206 -0.0665 -0.3274
   94MOL    O5646742   1.549   5.877   4.440 -0.1629 -0.2303 -0.0379
   94MOL    O5746743   1.762   5.968   4.403 -0.2393  0.3803 -0.8411
   94MOL    C5846744   1.816   5.950   4.534  0.1238 -0.5478 -0.5759
   94MOL    C5946745   1.968   5.929   4.526  0.1468  0.1206 -0.2979
   94MOL    C6046746   2.029   5.820   4.593  1.1756  0.9862  0.7695
   94MOL    C6146747   2.168   5.800   4.593 -0.4465 -0.3046 -0.2567
   94MOL    C6246748   2.248   5.882   4.519 -0.5740  0.0604 -0.3736
   94MOL    C6346749   2.192   5.997   4.456  0.2161  0.5223 -0.1169
   94MOL    C6446750   2.053   6.017   4.458 -0.2322  0.6691  0.0139
   94MOL    H6546751   1.546   6.036   4.059  0.1977  1.1046 -0.5287
   94MOL    H6646752   1.454   6.042   4.202  0.1096 -0.0087  0.7009
   94MOL    H6746753   1.414   5.819   4.225  0.4092 -1.1058  1.8090
   94MOL    H6846754   1.543   5.703   4.230 -2.9570 -1.6593 -0.7848
   94MOL    H6946755   1.489   5.808   4.081 -0.9388 -1.9057  0.7477
   94MOL    H7046756   1.797   6.034   4.601  0.9874 -0.5218 -0.3531
   94MOL    H7146757   1.767   5.867   4.584 -0.4327 -1.0037 -1.8833
   94MOL    H7246758   1.969   5.753   4.653  2.1962 -0.0947  0.5936
   94MOL    H7346759   2.219   5.723   4.649 -0.1013  1.4409  1.8535
   94MOL    H7446760   2.355   5.866   4.509 -0.3852  2.0716 -2.1560
   94MOL    H7546761   2.258   6.069   4.409  0.5928  0.9269  1.0137
   94MOL    H7646762   2.016   6.108   4.412 -0.6197  1.1535  1.2526
   94MOL    C7746763   1.763   5.885   4.148  0.4725  0.3151 -0.3996
   94MOL    C7846764   1.837   5.747   4.136  0.4609  0.0863 -0.2395
   94MOL    C7946765   1.850   5.687   4.279 -0.2281 -0.4309  0.4774
   94MOL    C8046766   1.978   5.795   4.080 -0.6255 -0.3084  0.0879
   94MOL    O8146767   2.004   5.812   3.959 -0.2712  0.7327 -0.1710
   94MOL    O8246768   2.076   5.800   4.177 -0.1870  0.2840  0.5627
   94MOL    C8346769   2.213   5.815   4.149  0.4344  0.4900  0.1532
   94MOL    C8446770   2.281   5.695   4.213  0.2308 -0.7335  0.7378
   94MOL    C8546771   2.230   5.617   4.317  0.0657  0.4324  0.3071
   94MOL    C8646772   2.299   5.506   4.356 -0.0742  0.6911 -0.0316
   94MOL    C8746773   2.420   5.474   4.303 -0.0157 -0.1890  0.2118
   94MOL    C8846774   2.479   5.556   4.197 -0.4013  0.2460  0.5956
   94MOL    C8946775   2.410   5.667   4.157  0.2290 -0.0779 -0.4204
   94MOL    H9046776   1.839   5.949   4.193  0.6807 -1.7113  2.2090
   94MOL    H9146777   1.763   5.926   4.046  0.2222 -0.8835 -0.8920
   94MOL    H9246778   1.900   5.757   4.346  0.4571 -0.5815  0.1327
   94MOL    H9346779   1.904   5.592   4.288 -0.2973 -0.5793 -0.6422
   94MOL    H9446780   1.752   5.680   4.326  0.2537 -0.6105  1.4738
   94MOL    H9546781   2.234   5.816   4.042  2.2944  3.5003  0.4845
   94MOL    H9646782   2.245   5.907   4.199  1.4929 -0.3290  1.0095
   94MOL    H9746783   2.127   5.623   4.348 -0.6259 -1.9979 -1.3537
   94MOL    H9846784   2.259   5.437   4.429 -0.9183 -0.3320 -1.4528
   94MOL    H9946785   2.464   5.381   4.336 -2.1625 -1.7869 -1.2510
   94MOL   H10046786   2.576   5.528   4.159  0.1940  1.8200  0.9456
   94MOL   H10146787   2.446   5.730   4.077  0.7566  0.5131  0.2772
   94MOL   C10246788   1.757   5.665   4.030 -0.8826  0.3650 -0.2000
   94MOL   C10346789   1.778   5.507   4.023  0.0832  0.2219 -0.9976
   94MOL   C10446790   1.692   5.446   4.136 -0.4399  0.4402 -0.0085
   94MOL   C10546791   1.928   5.465   4.040 -0.6594  0.6329  0.0089
   94MOL   O10646792   1.967   5.401   4.137 -0.5079 -0.1248  0.2399
   94MOL   O10746793   2.003   5.511   3.941 -0.3416  0.0491  0.5931
   94MOL   C10846794   2.139   5.479   3.930 -0.8609  0.0358 -0.5476
   94MOL   C10946795   2.214   5.523   3.803  0.1165 -0.0211  0.0301
   94MOL   C11046796   2.144   5.569   3.685 -0.0595  0.5469 -0.1607
   94MOL   C11146797   2.217   5.613   3.575 -0.1364 -0.2637  0.0782
   94MOL   C11246798   2.351   5.578   3.560 -0.2518 -0.3302 -0.2250
   94MOL   C11346799   2.415   5.526   3.676  0.0776 -0.1109  0.3471
   94MOL   C11446800   2.353   5.505   3.802  0.2467  0.7186  0.6399
   94MOL   H11546801   1.785   5.694   3.929 -1.6628 -1.2347 -0.9023
   94MOL   H11646802   1.650   5.686   4.029 -1.2627 -1.1966  2.4598
   94MOL   H11746803   1.587   5.472   4.123 -0.8414 -0.4387  1.3419
   94MOL   H11846804   1.736   5.462   4.234  2.2170 -1.0842 -0.9058
   94MOL   H11946805   1.681   5.338   4.127  3.6352 -0.4422  3.8334
   94MOL   H12046806   2.188   5.528   4.014  0.6141 -0.6675 -0.9825
   94MOL   H12146807   2.151   5.371   3.941 -0.3148 -0.1447 -2.7280
   94MOL   H12246808   2.038   5.582   3.698  0.0689 -0.1349  1.7747
   94MOL   H12346809   2.168   5.654   3.488 -0.4674  1.8787  1.2351
   94MOL   H12446810   2.411   5.594   3.471  0.2217  1.1923  0.3430
   94MOL   H12546811   2.517   5.495   3.657 -0.5766 -2.3836  0.4763
   94MOL   H12646812   2.410   5.471   3.887 -0.2406  0.3743  0.8328
   94MOL   C12746813   1.723   5.454   3.883  0.1597  0.2670  0.1537
   94MOL   C12846814   1.669   5.305   3.856 -0.5031  0.8320 -0.9173
   94MOL   C12946815   1.636   5.306   3.704 -0.8342  0.3591 -0.5510
   94MOL   C13046816   1.527   5.289   3.914  0.4561 -0.2670 -0.7182
   94MOL   O13146817   1.491   5.194   3.990  0.2055 -0.3891  0.2476
   94MOL   O13246818   1.436   5.379   3.873  0.0978  0.5558  0.1934
   94MOL   C13346819   1.302   5.373   3.928 -0.0203  0.1915  0.0535
   94MOL   C13446820   1.204   5.447   3.834  0.1933 -0.5352 -0.2290
   94MOL   C13546821   1.100   5.370   3.774  0.7208  0.2427  0.1107
   94MOL   C13646822   1.002   5.435   3.695  0.5119  0.1160  0.0953
   94MOL   C13746823   1.004   5.573   3.677  0.0393 -0.4660  0.5508
   94MOL   C13846824   1.108   5.649   3.738 -0.0128 -0.0428 -0.3940
   94MOL   C13946825   1.208   5.587   3.813  0.2857  0.0314  0.4476
   94MOL   H14046826   1.795   5.476   3.805 -0.2854 -1.8740 -0.9047
   94MOL   H14146827   1.650   5.531   3.858 -1.3151 -0.8552  0.8919
   94MOL   H14246828   1.553   5.373   3.682 -1.5372  0.2132  1.5166
   94MOL   H14346829   1.600   5.208   3.675  2.2198 -0.8941 -0.2777
   94MOL   H14446830   1.716   5.342   3.640 -1.4087  0.4425 -1.2224
   94MOL   H14546831   1.270   5.272   3.953 -0.5906 -0.0178 -1.4774
   94MOL   H14646832   1.302   5.425   4.024  3.4124 -0.1548  0.3171
   94MOL   H14746833   1.100   5.263   3.787  0.7305  0.1283 -0.8065
   94MOL   H14846834   0.926   5.365   3.663  1.8226 -0.7432 -1.1836
   94MOL   H14946835   0.924   5.624   3.625  1.3920 -0.2157 -1.3143
   94MOL   H15046836   1.112   5.757   3.737  0.8379 -0.0756 -0.4986
   94MOL   H15146837   1.280   5.645   3.868 -0.1187  0.9171  0.0624
   94MOL   C15246838   1.768   5.183   3.903 -0.1751 -0.7802  0.5075
   94MOL   C15346839   1.869   5.111   3.805 -0.0514 -0.6040  0.4327
   94MOL   C15446840   1.961   5.210   3.722  0.4903 -0.7836  0.2881
   94MOL   C15546841   1.789   5.024   3.701 -0.4369 -0.3465  0.5284
   94MOL   O15646842   1.675   5.003   3.720  0.4928  0.1944 -0.3170
   94MOL   O15746843   1.869   4.984   3.604 -0.1415 -0.2274  0.4925
   94MOL   C15846844   1.823   4.893   3.499  0.7669 -0.2099 -0.3476
   94MOL   C15946845   1.842   4.750   3.530 -0.2854  0.5214  0.7511
   94MOL   C16046846   1.968   4.696   3.585  0.4082  0.6240  0.1166
   94MOL   C16146847   1.975   4.558   3.629 -0.1287  0.7361  0.0200
   94MOL   C16246848   1.857   4.480   3.633  0.7869  0.0136  0.0154
   94MOL   C16346849   1.741   4.537   3.583 -0.1369 -0.1593  0.1876
   94MOL   C16446850   1.731   4.664   3.526  0.7928  0.3980  0.6995
   94MOL   H16546851   1.709   5.097   3.935  0.2677 -1.8284 -1.4243
   94MOL   H16646852   1.816   5.207   3.998  0.4257  1.0458 -0.2494
   94MOL   H16746853   2.004   5.292   3.780  0.7060  0.0899 -1.0670
   94MOL   H16846854   1.913   5.264   3.640 -1.2247 -1.6552  0.6939
   94MOL   H16946855   2.049   5.165   3.676  0.8922  0.2588  0.0243
   94MOL   H17046856   1.716   4.904   3.479  0.2909  1.3371  2.6975
   94MOL   H17146857   1.863   4.919   3.401  2.2972  0.2779  0.3938
   94MOL   H17246858   2.058   4.755   3.594  1.4875 -1.4741  4.2606
   94MOL   H17346859   2.067   4.522   3.673 -0.4679 -1.9507 -1.3760
   94MOL   H17446860   1.865   4.376   3.662  1.4077 -0.2553 -1.0801
   94MOL   H17546861   1.652   4.477   3.576 -0.8156  0.9655 -0.9247
   94MOL   H17646862   1.636   4.694   3.485 -0.4736 -0.0150  3.2642
   94MOL   C17746863   1.973   5.026   3.880  0.0108  0.5049  0.5321
   94MOL   C17846864   1.936   4.903   3.974 -0.2040 -0.2652  0.0740
   94MOL   C17946865   1.820   4.811   3.919  0.3519  0.3370  0.3620
   94MOL   C18046866   1.900   4.959   4.110  0.4127  0.8041  0.3629
   94MOL   O18146867   1.801   4.921   4.170  0.0709 -0.6394  0.0093
   94MOL   O18246868   1.979   5.048   4.161 -0.7207 -0.0175  0.5436
   94MOL   C18346869   1.963   5.089   4.296 -0.4589  0.1310 -0.0547
   94MOL   C18446870   2.097   5.098   4.367  0.4195 -0.6974 -0.6059
   94MOL   C18546871   2.103   5.052   4.496 -0.3905  0.8231 -0.6732
   94MOL   C18646872   2.232   5.038   4.553 -0.5782  0.0615 -0.1452
   94MOL   C18746873   2.354   5.071   4.491 -0.1260  0.0930  0.5074
   94MOL   C18846874   2.335   5.119   4.358 -0.1554  0.4178 -0.1240
   94MOL   C18946875   2.214   5.139   4.296 -0.3936  0.2731 -0.5907
   94MOL   H19046876   2.031   5.101   3.933  0.2095  0.4019  0.4579
   94MOL   H19146877   2.044   4.994   3.804 -0.3031 -0.1022  0.4904
   94MOL   H19246878   1.813   4.721   3.980  0.5093 -0.9088 -1.4041
   94MOL   H19346879   1.849   4.764   3.825 -0.7949  1.1718 -0.4199
   94MOL   H19446880   1.721   4.855   3.908 -0.3179 -1.1045  0.6100
   94MOL   H19546881   1.907   5.182   4.289 -0.4492  0.1427  0.0227
   94MOL   H19646882   1.903   5.015   4.350  1.9665 -1.9443 -0.1460
   94MOL   H19746883   2.007   5.023   4.537 -0.0259 -0.5955 -0.7970
   94MOL   H19846884   2.237   4.994   4.652  0.0582  1.4838  0.4713
   94MOL   H19946885   2.443   5.065   4.552 -0.3178  0.2520  0.8075
   94MOL   H20046886   2.419   5.149   4.296  0.3440 -0.2882  0.2113
   94MOL   H20146887   2.220   5.164   4.191  3.0161  0.3472 -0.4176
   94MOL   C20246888   2.071   4.817   3.985  0.0207  0.0517 -0.3667
   94MOL   C20346889   2.096   4.678   4.058 -0.2320  0.5392  0.4083
   94MOL   C20446890   2.055   4.556   3.952  0.5469 -0.2735 -0.6290
   94MOL   C20546891   2.003   4.667   4.176  0.4631 -0.4185  0.1294
   94MOL   O20646892   1.900   4.598   4.180 -0.6576  0.2434 -0.1239
   94MOL   O20746893   2.037   4.752   4.280  0.3143  0.0559 -0.3535
   94MOL   C20846894   1.977   4.733   4.405 -0.0236  0.0316  0.2937
   94MOL   C20946895   2.060   4.642   4.492  0.3257 -0.0128 -0.5657
   94MOL   C21046896   2.203   4.645   4.481  0.2692  0.5684 -1.1394
   94MOL   C21146897   2.275   4.564   4.566 -0.2087  0.1170  0.2517
   94MOL   C21246898   2.216   4.482   4.660  0.0363 -0.1867  0.3690
   94MOL   C21346899   2.082   4.484   4.677  0.9309 -0.0831 -0.2072
   94MOL   C21446900   2.000   4.552   4.587  0.4622 -0.4222 -0.7311
   94MOL   H21546901   2.136   4.886   4.039  1.5212 -0.3891 -1.5751
   94MOL   H21646902   2.110   4.804   3.884 -1.8616  1.5400 -1.3347
   94MOL   H21746903   1.954   4.559   3.911 -0.5164  2.1862  1.9969
   94MOL   H21846904   2.049   4.459   4.001  0.4982 -0.2665 -0.6222
   94MOL   H21946905   2.136   4.551   3.880  2.0354 -1.9702  1.0886
   94MOL   H22046906   1.980   4.834   4.447  2.5318 -1.0672  2.9619
   94MOL   H22146907   1.872   4.705   4.406 -0.0042 -0.3107 -2.7566
   94MOL   H22246908   2.251   4.722   4.422  2.1509 -1.2024 -1.9808
   94MOL   H22346909   2.382   4.559   4.556 -0.1248  0.8484  0.6871
   94MOL   H22446910   2.275   4.414   4.719 -0.2626 -1.3665 -0.6803
   94MOL   H22546911   2.050   4.429   4.764  0.7169 -0.3687 -0.4618
   94MOL   H22646912   1.893   4.551   4.600  0.4108  0.5426 -1.0472
   94MOL   C22746913   2.240   4.659   4.117 -0.0547 -0.0753 -0.4025
   94MOL   C22846914   2.369   4.657   4.027  0.5305 -0.1088  0.2862
   94MOL   C22946915   2.372   4.778   3.934 -0.1858 -0.0488  0.5248
   94MOL   C23046916   2.377   4.526   3.937  0.2957 -0.2573  0.3258
   94MOL   O23146917   2.405   4.530   3.812  0.0376 -0.0465 -0.3815
   94MOL   O23246918   2.364   4.419   4.016  0.2290 -0.0091 -0.8086
   94MOL   C23346919   2.368   4.287   3.965  0.3840 -0.6202  0.0745
   94MOL   C23446920   2.224   4.241   3.949  0.0941 -0.3827 -0.5057
   94MOL   C23546921   2.181   4.196   3.818 -0.2441  0.0940 -0.1825
   94MOL   C23646922   2.054   4.126   3.805  0.3855 -0.1181 -0.3527
   94MOL   C23746923   1.966   4.121   3.919 -0.2627  0.0532 -0.0828
   94MOL   C23846924   2.009   4.178   4.044  0.1713  0.4866  0.2685
   94MOL   C23946925   2.135   4.228   4.057  0.5927  0.2103 -0.2929
   94MOL   H24046926   2.226   4.567   4.174  3.2903 -0.2940  0.1627
   94MOL   H24146927   2.255   4.741   4.187  0.9556 -0.4529 -0.1580
   94MOL   H24246928   2.339   4.871   3.980  0.2815  0.7659 -0.7373
   94MOL   H24346929   2.309   4.769   3.846  0.2836  0.0374  0.1763
   94MOL   H24446930   2.476   4.789   3.901  0.5575 -3.5258  1.4811
   94MOL   H24546931   2.431   4.283   3.877  0.9104  1.5178  0.3240
   94MOL   H24646932   2.412   4.221   4.040  1.5844 -0.9364 -0.8982
   94MOL   H24746933   2.254   4.197   3.738  0.3064 -2.0477  0.2632
   94MOL   H24846934   2.024   4.078   3.713  0.0915  1.9962 -1.4051
   94MOL   H24946935   1.871   4.069   3.921  0.6263 -1.7804 -2.8263
   94MOL   H25046936   1.933   4.169   4.121  1.3821  1.4137  1.6068
   94MOL   H25146937   2.167   4.268   4.152  1.1738 -0.9427  0.0009
   94MOL   C25246938   2.485   4.652   4.135 -0.3395  0.6119 -0.4239
   94MOL   C25346939   2.631   4.604   4.109 -0.3655  0.4086 -0.3255
   94MOL   C25446940   2.690   4.629   3.966 -0.5747 -0.7565 -0.3549
   94MOL   C25546941   2.646   4.447   4.129  0.2612 -0.1304  0.0527
   94MOL   O25646942   2.721   4.378   4.061  0.9273 -0.0280  0.4185
   94MOL   O25746943   2.581   4.401   4.238 -0.1513  0.1227 -0.1359
   94MOL   C25846944   2.588   4.266   4.282 -0.0345  0.4896 -0.3174
   94MOL   C25946945   2.477   4.229   4.383  0.3170  0.5198  0.3192
   94MOL   C26046946   2.347   4.282   4.364  0.0497 -0.1561 -0.4205
   94MOL   C26146947   2.243   4.236   4.447 -0.2698 -0.5497 -1.1553
   94MOL   C26246948   2.261   4.135   4.546 -0.1501 -0.3536 -0.1964
   94MOL   C26346949   2.393   4.085   4.565 -0.6206  0.2786  0.6884
   94MOL   C26446950   2.500   4.129   4.476  0.2803 -0.3387 -0.0980
   94MOL   H26546951   2.448   4.600   4.224 -3.9359  1.0464 -1.5680
   94MOL   H26646952   2.507   4.757   4.153  1.2012  0.4389 -1.2289
   94MOL   H26746953   2.680   4.732   3.932  1.3655 -0.9406 -1.5594
   94MOL   H26846954   2.634   4.576   3.889 -1.1629 -0.2274 -0.2863
   94MOL   H26946955   2.791   4.590   3.947 -0.1942 -1.0770  2.1448
   94MOL   H27046956   2.590   4.199   4.196  1.0319  0.4801 -0.2871
   94MOL   H27146957   2.687   4.248   4.323 -0.1562  0.3323 -0.0977
   94MOL   H27246958   2.329   4.354   4.286  1.4382  0.5781 -0.0796
   94MOL   H27346959   2.148   4.274   4.414 -0.0061  1.1700  0.0358
   94MOL   H27446960   2.174   4.114   4.606 -0.8602  1.8395 -0.4015
   94MOL   H27546961   2.397   4.005   4.638  0.1830 -0.9402 -0.6582
   94MOL   H27646962   2.596   4.082   4.493  0.6566  1.2673  2.4755
   94MOL   C27746963   2.740   4.670   4.220  0.5223  0.5201  0.3600
   94MOL   C27846964   2.812   4.816   4.210 -0.6452 -0.3927 -1.0489
   94MOL   C27946965   2.714   4.934   4.189 -0.2326 -0.0339 -0.2250
   94MOL   C28046966   2.907   4.803   4.090 -0.2144  0.3425  0.0412
   94MOL   O28146967   2.909   4.899   4.010  0.3426  0.4994 -0.6090
   94MOL   O28246968   2.975   4.690   4.078  0.0199 -0.1750  0.3706
   94MOL   C28346969   3.070   4.662   3.978  0.1027  0.0890 -0.0633
   94MOL   C28446970   3.161   4.544   4.015  0.2762  0.2224  0.9328
   94MOL   C28546971   3.292   4.561   4.066 -0.5033 -0.0265  0.3510
   94MOL   C28646972   3.353   4.446   4.109  0.2128 -0.1273 -0.0473
   94MOL   C28746973   3.297   4.318   4.080 -0.4847 -0.1076  0.1513
   94MOL   C28846974   3.172   4.304   4.021 -0.0279  0.3444 -0.3834
   94MOL   C28946975   3.100   4.421   3.996 -0.2384  0.5060 -1.0014
   94MOL   H29046976   2.807   4.590   4.249 -0.3911 -0.2614  0.3474
   94MOL   H29146977   2.697   4.685   4.319  1.7261  1.4063  0.7532
   94MOL   H29246978   2.759   5.033   4.193 -0.0253 -0.0488 -1.7895
   94MOL   H29346979   2.631   4.939   4.260 -0.0464 -1.9504  0.1476
   94MOL   H29446980   2.673   4.927   4.088  0.2451  0.3070 -0.4445
   94MOL   H29546981   3.018   4.645   3.884 -0.6484 -0.9779  0.5373
   94MOL   H29646982   3.139   4.747   3.977  0.2119  0.0006  0.0395
   94MOL   H29746983   3.340   4.656   4.084 -0.3833  0.0524 -0.3379
   94MOL   H29846984   3.451   4.436   4.153  0.6568  3.2077 -0.1422
   94MOL   H29946985   3.336   4.219   4.100  2.4932  0.7225 -1.4029
   94MOL   H30046986   3.133   4.203   4.021 -0.3011  0.4510 -0.2148
   94MOL   H30146987   2.997   4.431   3.967 -0.0957  2.7740 -0.7786
   94MOL   C30246988   2.905   4.840   4.332 -0.3057 -0.0539 -0.1463
   94MOL   C30346989   2.852   4.905   4.469 -0.1980 -0.3670  0.6370
   94MOL   C30446990   2.733   4.825   4.530  0.2550  0.2374  0.2420
   94MOL   C30546991   2.809   5.058   4.454 -0.0251 -0.5697 -0.5884
   94MOL   O30646992   2.692   5.092   4.458 -0.2491 -0.4938  0.0474
   94MOL   O30746993   2.912   5.136   4.420  0.2741 -0.0922  0.0341
   94MOL   C30846994   2.884   5.274   4.380 -0.9216  0.1000  0.0122
   94MOL   C30946995   2.821   5.357   4.494  0.0896 -0.1337 -0.3291
   94MOL   C31046996   2.831   5.330   4.635  0.6981 -0.0508  0.0059
   94MOL   C31146997   2.754   5.405   4.728 -0.6913 -0.3981 -0.2488
   94MOL   C31246998   2.669   5.507   4.683 -0.4673  0.1627 -0.3127
   94MOL   C31346999   2.647   5.518   4.548  0.2978 -0.4268  0.2786
   94MOL   C31447000   2.730   5.456   4.453 -0.2056 -0.0766  0.0194
   94MOL   H31547001   2.997   4.890   4.301 -1.1533  1.2930 -0.5623
   94MOL   H31647002   2.940   4.740   4.356 -1.1487 -0.2381  0.3619
   94MOL   H31747003   2.755   4.720   4.548  0.4368 -0.2385 -2.5524
   94MOL   H31847004   2.644   4.819   4.468 -0.0228 -2.7860  0.8996
   94MOL   H31947005   2.718   4.881   4.622  0.3022  0.5473  0.0617
   94MOL   H32047006   2.983   5.317   4.363 -0.4762 -0.7659  0.4008
   94MOL   H32147007   2.837   5.276   4.281 -0.8957  0.0923  0.0003
   94MOL   H32247008   2.891   5.247   4.669 -1.1043 -1.7577 -0.8382
   94MOL   H32347009   2.763   5.388   4.834  0.6772  0.7010 -0.1778
   94MOL   H32447010   2.623   5.572   4.756 -1.2975  0.9440 -1.5290
   94MOL   H32547011   2.569   5.579   4.504  2.9165  1.6611 -1.6711
   94MOL   H32647012   2.717   5.486   4.350  0.9150  1.7964  0.4016
   94MOL   C32747013   2.962   4.920   4.580 -0.2780  0.4676  0.8010
   94MOL   C32847014   3.024   4.803   4.669  0.3147 -0.1985  0.7941
   94MOL   C32947015   3.045   4.677   4.588 -0.0873  0.3632  0.7192
   94MOL   C33047016   2.933   4.764   4.791 -0.2251  0.0102 -0.4581
   94MOL   O33147017   2.854   4.841   4.844  0.0660  0.0977 -0.1496
   94MOL   O33247018   2.953   4.637   4.836 -0.1072  0.2849 -0.6169
   94MOL   C33347019   2.885   4.581   4.952  0.1158  0.3335  0.7738
   94MOL   C33447020   2.789   4.467   4.904 -0.2034 -0.5089  0.0028
   94MOL   C33547021   2.796   4.344   4.964 -0.0058  0.2858 -0.0369
   94MOL   C33647022   2.712   4.237   4.920 -0.3322 -0.0587  0.1034
   94MOL   C33747023   2.629   4.263   4.813  0.1065  0.4341  0.0232
   94MOL   C33847024   2.629   4.386   4.745 -0.5154  0.3911  0.3286
   94MOL   C33947025   2.711   4.492   4.785 -0.0288 -0.1780  0.0436
   94MOL   H34047026   2.941   5.002   4.648 -0.7825  0.1841  0.9868
   94MOL   H34147027   3.049   4.957   4.526 -0.3640  2.6689  2.1285
   94MOL   H34247028   3.095   4.600   4.647 -0.1164 -0.6355 -0.5357
   94MOL   H34347029   3.112   4.689   4.503 -0.0931  1.6784  0.8856
   94MOL   H34447030   2.961   4.627   4.539  0.0473  2.1377 -1.3999
   94MOL   H34547031   2.960   4.537   5.017  1.5993 -0.7823 -1.6037
   94MOL   H34647032   2.831   4.663   5.000 -0.5905  1.2739 -1.5213
   94MOL   H34747033   2.857   4.331   5.052 -0.8459  1.1632  0.6884
   94MOL   H34847034   2.712   4.137   4.960 -1.2045 -0.5328 -1.0674
   94MOL   H34947035   2.570   4.180   4.777  1.0205  0.3020 -1.2076
   94MOL   H35047036   2.561   4.408   4.664  2.7173 -0.8925 -2.9283
   94MOL   H35147037   2.708   4.587   4.734  0.6824 -1.4505 -2.4532
   94MOL   C35247038   3.164   4.849   4.726  0.1414 -0.6505 -0.2328
   94MOL   C35347039   3.197   4.991   4.792  0.1476  0.7461 -0.1259
   94MOL   C35447040   3.084   5.047   4.887  0.0896  0.0153  0.9601
   94MOL   C35547041   3.231   5.091   4.686  0.0463  0.8385  0.0690
   94MOL   O35647042   3.172   5.200   4.674 -0.0847 -0.0792 -0.4347
   94MOL   O35747043   3.325   5.050   4.596 -0.2801 -0.3834 -0.1878
   94MOL   C35847044   3.365   5.135   4.491 -0.5296  0.0577  0.1572
   94MOL   C35947045   3.292   5.100   4.360 -0.4432  0.3604 -0.5899
   94MOL   C36047046   3.251   5.205   4.274 -0.9622  0.1697 -0.1224
   94MOL   C36147047   3.189   5.167   4.151  0.2600  0.7287 -0.2397
   94MOL   C36247048   3.185   5.031   4.110  0.1250 -1.0972 -0.1859
   94MOL   C36347049   3.220   4.927   4.200 -0.3467 -0.2911 -0.5697
   94MOL   C36447050   3.272   4.966   4.324 -0.0680 -0.0849  0.4578
   94MOL   H36547051   3.236   4.828   4.646  0.9593  0.3263  0.2501
   94MOL   H36647052   3.187   4.770   4.798 -0.0567 -0.1772  0.3424
   94MOL   H36747053   3.107   5.143   4.934  0.5254  0.4761 -0.1760
   94MOL   H36847054   3.063   4.986   4.975 -0.7113  1.1539  1.5778
   94MOL   H36947055   2.998   5.072   4.824 -0.7265 -2.0368  1.2307
   94MOL   H37047056   3.359   5.240   4.518  0.4318  0.4337 -1.0185
   94MOL   H37147057   3.471   5.122   4.467 -0.9057 -0.4324 -1.3273
   94MOL   H37247058   3.266   5.311   4.290  1.5844 -0.1158 -0.5382
   94MOL   H37347059   3.158   5.237   4.075 -2.5342  0.6873  0.8146
   94MOL   H37447060   3.166   4.990   4.012  2.2607 -0.1593 -1.0182
   94MOL   H37547061   3.208   4.826   4.165 -1.5795  0.2662 -1.8325
   94MOL   H37647062   3.298   4.890   4.396  1.6248  0.1720  0.1354
   94MOL   C37747063   3.326   4.950   4.879  0.7055  0.4017 -0.0259
   94MOL   C37847064   3.441   5.045   4.937  0.2040  0.2955  0.3988
   94MOL   C37947065   3.529   4.946   5.020  0.1190 -0.4713 -0.5906
   94MOL   C38047066   3.374   5.152   5.023  0.2582 -0.1228  0.5198
   94MOL   O38147067   3.370   5.149   5.149 -0.3848  0.0998  0.1997
   94MOL   O38247068   3.321   5.250   4.948  0.8089  0.5480  0.2030
   94MOL   C38347069   3.275   5.366   5.011 -0.2510 -0.1069  0.3180
   94MOL   C38447070   3.255   5.472   4.911 -0.1289  0.1043 -0.5474
   94MOL   C38547071   3.139   5.468   4.831 -0.0575  0.2191 -0.1824
   94MOL   C38647072   3.127   5.569   4.732  1.0925 -0.9305  0.7165
   94MOL   C38747073   3.221   5.668   4.715  0.0425 -0.6705  0.1361
   94MOL   C38847074   3.326   5.680   4.807  0.0248 -0.3822  0.6514
   94MOL   C38947075   3.345   5.585   4.901 -0.5662 -0.0278 -0.0947
   94MOL   H39047076   3.378   4.873   4.823 -0.3151 -0.6519  0.4684
   94MOL   H39147077   3.276   4.909   4.967  2.1073  1.8239  1.4765
   94MOL   H39247078   3.465   4.899   5.095  0.4612  0.3635  0.2435
   94MOL   H39347079   3.605   5.001   5.076  1.0433 -2.4877  0.1828
   94MOL   H39447080   3.583   4.873   4.959  1.4823 -1.8384  2.1435
   94MOL   H39547081   3.184   5.337   5.065  0.8200 -2.0441  1.1134
   94MOL   H39647082   3.342   5.398   5.091 -1.0223 -1.2923  1.4645
   94MOL   H39747083   3.075   5.381   4.833  0.2517 -0.0080 -0.1913
   94MOL   H39847084   3.047   5.575   4.660  0.1345  2.5337  1.9493
   94MOL   H39947085   3.202   5.738   4.635 -0.7876 -0.5144  0.4628
   94MOL   H40047086   3.390   5.767   4.813  0.2134 -0.5298  0.7904
   94MOL   H40147087   3.424   5.594   4.974  0.2320  0.8562 -1.0520
   94MOL   C40247088   3.532   5.096   4.812  0.4271 -0.1607  0.1597
   94MOL   C40347089   3.664   5.165   4.837  0.0389  0.0264 -0.1695
   94MOL   C40447090   3.667   5.256   4.965  0.2666  0.1934 -0.4995
   94MOL   C40547091   3.690   5.253   4.708  0.2291 -0.2622  0.0478
   94MOL   O40647092   3.660   5.373   4.715 -0.1622  0.4922  0.4670
   94MOL   O40747093   3.720   5.181   4.599 -0.1058 -0.0108  0.0511
   94MOL   C40847094   3.757   5.246   4.478  0.1642 -0.1616 -0.5198
   94MOL   C40947095   3.676   5.207   4.352 -0.3639  0.3747 -0.5842
   94MOL   C41047096   3.674   5.075   4.317 -0.2065 -0.0937 -0.2081
   94MOL   C41147097   3.619   5.021   4.198  0.2337  0.3337  0.0111
   94MOL   C41247098   3.560   5.114   4.112  0.4798 -0.0196 -0.0074
   94MOL   C41347099   3.572   5.258   4.141  0.6317  0.1857 -0.4868
   94MOL   C41447100   3.636   5.302   4.257  0.6412 -0.4204  0.2843
   94MOL   H41547101   3.467   5.162   4.755  0.5583  1.1879  1.5699
   94MOL   H41647102   3.540   5.013   4.740 -2.3913  0.9924 -1.5795
   94MOL   H41747103   3.666   5.206   5.061 -0.7564  1.8567  0.3785
   94MOL   H41847104   3.585   5.327   4.967  1.5816  1.8076 -1.8291
   94MOL   H41947105   3.750   5.327   4.956 -2.4109  3.2709 -1.7011
   94MOL   H42047106   3.745   5.352   4.499 -1.4363 -0.5539  0.6215
   94MOL   H42147107   3.859   5.210   4.464  0.3235  0.1690 -0.2228
   94MOL   H42247108   3.702   5.011   4.399 -0.9628  0.1007  0.2068
   94MOL   H42347109   3.619   4.917   4.170  1.4608 -0.2384  2.0337
   94MOL   H42447110   3.509   5.097   4.019  3.6747  0.6666 -1.9712
   94MOL   H42547111   3.547   5.335   4.069 -1.1209 -0.8281 -0.9934
   94MOL   H42647112   3.651   5.408   4.272  2.7846 -0.4197 -1.6185
   94MOL   C42747113   3.783   5.060   4.848 -0.4609  0.4057 -0.4484
   94MOL   C42847114   3.929   5.098   4.900 -0.2106  0.6452  0.0597
   94MOL   C42947115   3.934   5.083   5.054  0.4721 -0.0666  0.1531
   94MOL   C43047116   3.974   5.239   4.862  0.6115 -0.7269 -0.2805
   94MOL   O43147117   3.978   5.332   4.936 -0.5307 -0.2581  0.0495
   94MOL   O43247118   3.987   5.259   4.730  0.2082 -0.2381 -0.1077
   94MOL   C43347119   4.038   5.377   4.675 -0.2662  0.2316  0.1148
   94MOL   C43447120   4.061   5.381   4.528 -0.2798 -0.3000  0.9021
   94MOL   C43547121   4.160   5.300   4.461 -0.3010 -0.3496 -0.4460
   94MOL   C43647122   4.190   5.323   4.324 -0.2708 -0.7221  0.6715
   94MOL   C43747123   4.114   5.418   4.250 -0.2228 -0.2909  1.2503
   94MOL   C43847124   4.014   5.492   4.311 -0.2946  1.1208 -0.5046
   94MOL   C43947125   3.994   5.479   4.449  0.4518 -0.2971 -0.3571
   94MOL   H44047126   3.786   5.001   4.757  1.6173  0.4637 -0.4524
   94MOL   H44147127   3.753   4.978   4.913  0.6509  0.2320 -0.1423
   94MOL   H44247128   4.031   5.113   5.096  0.3097  2.0630 -0.8813
   94MOL   H44347129   3.922   4.980   5.086  1.0368 -0.0933  0.2849
   94MOL   H44447130   3.866   5.154   5.101  0.9953  0.6042 -0.0868
   94MOL   H44547131   3.959   5.450   4.697 -0.8301  0.2685 -1.8983
   94MOL   H44647132   4.122   5.411   4.735 -0.3434  0.1697  0.2599
   94MOL   H44747133   4.228   5.238   4.517  0.7763  0.6188 -0.6652
   94MOL   H44847134   4.284   5.281   4.290  0.0644 -0.3493  1.1330
   94MOL   H44947135   4.134   5.432   4.145 -1.1822 -1.8707  0.8274
   94MOL   H45047136   3.954   5.569   4.265 -2.0192  0.8095  1.1930
   94MOL   H45147137   3.916   5.545   4.484 -0.3694 -0.5115 -1.7371
   94MOL   C45247138   4.032   5.000   4.836  0.1901  0.3738 -0.4861
   94MOL   C45347139   4.189   5.005   4.859  0.4443  0.0770  0.4836
   94MOL   C45447140   4.249   4.897   4.769  0.0673 -0.3727 -0.4080
   94MOL   C45547141   4.226   4.960   5.006  0.0987 -0.2655  0.1166
   94MOL   O45647142   4.292   5.038   5.084  0.8399 -0.0109  0.1128
   94MOL   O45747143   4.188   4.829   5.031  0.2746  0.5220  0.8985
   94MOL   C45847144   4.220   4.771   5.158  0.2114 -0.7320  0.3368
   94MOL   C45947145   4.105   4.695   5.223 -0.2809 -0.4170 -0.3241
   94MOL   C46047146   3.973   4.694   5.163  0.3456 -0.4993  0.0773
   94MOL   C46147147   3.867   4.643   5.241 -0.6126  0.0541 -0.4401
   94MOL   C46247148   3.887   4.587   5.367 -0.7699  0.2698  0.4829
   94MOL   C46347149   4.019   4.572   5.415 -0.2023  1.1216  0.0323
   94MOL   C46447150   4.123   4.630   5.347  0.3305 -0.3666 -0.5154
   94MOL   H46547151   4.010   4.994   4.729  1.2605  0.7372 -0.7347
   94MOL   H46647152   4.006   4.899   4.865 -1.4056  0.6527 -0.8913
   94MOL   H46747153   4.193   4.805   4.777 -0.3352 -0.0390  0.6128
   94MOL   H46847154   4.354   4.879   4.795 -0.0287  1.7946  1.6623
   94MOL   H46947155   4.238   4.928   4.664  0.3704 -0.4513 -0.4649
   94MOL   H47047156   4.305   4.705   5.139 -0.1943 -0.9073 -0.9572
   94MOL   H47147157   4.255   4.839   5.235 -1.0931  0.9601 -0.5256
   94MOL   H47247158   3.946   4.730   5.065 -2.7387 -2.5222  0.1211
   94MOL   H47347159   3.769   4.646   5.196  0.4261  0.2762 -2.7831
   94MOL   H47447160   3.807   4.553   5.431  2.5356 -2.2147  3.4909
   94MOL   H47547161   4.041   4.520   5.507 -1.5428  0.5865  0.0648
   94MOL   H47647162   4.225   4.627   5.385  0.1828 -1.9801 -0.2375
   94MOL   C47747163   4.265   5.138   4.821 -0.1441  1.0494 -0.3556
   94MOL   C47847164   4.416   5.128   4.833 -0.9302  0.3610  0.4988
   94MOL   C47947165   4.482   5.240   4.921 -0.8884  0.0674 -0.5646
   94MOL   C48047166   4.481   5.145   4.694  0.2089  0.5138 -0.0784
   94MOL   O48147167   4.465   5.246   4.631 -0.9334 -0.2145 -0.4377
   94MOL   O48247168   4.554   5.037   4.653  0.0221 -0.4981  0.1626
   94MOL   C48347169   4.594   5.038   4.515 -0.3418  0.3637 -0.2496
   94MOL   C48447170   4.630   4.901   4.475 -0.3301  0.2371 -0.3807
   94MOL   C48547171   4.701   4.819   4.572  0.5383  0.4796  0.2424
   94MOL   C48647172   4.767   4.696   4.536  0.7805  0.3811 -0.3075
   94MOL   C48747173   4.729   4.643   4.408  0.5263 -0.4123  0.5321
   94MOL   C48847174   4.643   4.717   4.317  0.3151  0.4696 -0.3408
   94MOL   C48947175   4.598   4.844   4.349  1.0595  0.6005  0.3858
   94MOL   H49047176   4.233   5.206   4.900 -1.8045 -0.9430  0.7403
   94MOL   H49147177   4.219   5.189   4.736 -0.9532  1.1758  0.1444
   94MOL   H49247178   4.463   5.225   5.028 -0.6929  0.5256 -0.4622
   94MOL   H49347179   4.446   5.341   4.898 -0.2195  0.7829  1.4333
   94MOL   H49447180   4.590   5.228   4.916 -1.0359 -1.5316 -0.0470
   94MOL   H49547181   4.513   5.074   4.452 -1.1468  0.2206  0.6982
   94MOL   H49647182   4.682   5.100   4.498 -0.5175  0.9001  0.7750
   94MOL   H49747183   4.721   4.865   4.668  0.4293  0.4611  0.2739
   94MOL   H49847184   4.829   4.643   4.605 -1.0198 -1.4844 -0.0840
   94MOL   H49947185   4.762   4.542   4.391  0.7252 -0.5950  1.8743
   94MOL   H50047186   4.602   4.675   4.227  0.3001 -2.0176  0.7883
   94MOL   H50147187   4.541   4.895   4.273  1.0466 -1.1111 -0.8035
   94MOL   H50247188   4.449   5.031   4.870  0.8740  0.5846 -0.4994
   95MOL     C147189   2.037   7.061   1.969 -0.3873  0.3243 -0.2635
   95MOL     C247190   2.086   7.080   2.116  0.3247  0.7608  0.0217
   95MOL     C347191   2.195   6.967   2.141  0.0267 -0.2834  0.3309
   95MOL     C447192   1.976   7.046   2.215 -0.5495  0.8848  0.3995
   95MOL     O547193   1.870   6.993   2.183 -0.1508 -0.1126 -0.0162
   95MOL     O647194   2.014   7.084   2.341 -0.6058  0.0322 -0.2545
   95MOL     C747195   1.921   7.094   2.451  0.0360 -0.1669  1.1068
   95MOL     C847196   1.943   6.989   2.555 -0.1348 -0.5135  0.2320
   95MOL     C947197   2.053   6.905   2.567 -0.1986 -0.1182  0.4380
   95MOL    C1047198   2.075   6.816   2.678 -0.2643 -0.2691  0.2003
   95MOL    C1147199   1.981   6.799   2.773 -0.0846  0.0220 -0.6483
   95MOL    C1247200   1.867   6.881   2.761 -0.2513 -0.5654  0.9271
   95MOL    C1347201   1.846   6.974   2.658 -0.6541  0.1152  0.8565
   95MOL    H1447202   1.998   6.960   1.957 -1.1913  0.3041  2.1899
   95MOL    H1547203   1.949   7.117   1.937 -0.7456  0.3956  0.8108
   95MOL    H1647204   2.241   6.979   2.239  0.1748  1.1360  0.0947
   95MOL    H1747205   2.283   6.972   2.077 -0.5227  0.2120 -0.3826
   95MOL    H1847206   2.165   6.864   2.121 -0.6655  0.3200 -1.8601
   95MOL    H1947207   1.923   7.197   2.486  0.5973  1.0266 -2.1834
   95MOL    H2047208   1.824   7.077   2.404  0.4783 -1.8880  0.7947
   95MOL    H2147209   2.129   6.915   2.490 -0.6821  1.1255  0.1145
   95MOL    H2247210   2.149   6.738   2.685 -1.4592 -1.6028 -1.4537
   95MOL    H2347211   1.979   6.722   2.848  0.2274  1.9768  1.4176
   95MOL    H2447212   1.797   6.873   2.842 -0.1723  1.2048  1.2045
   95MOL    H2547213   1.755   7.031   2.655 -0.7236 -0.0086  0.5704
   95MOL    H2647214   2.123   7.064   1.902 -0.3270  4.8909 -0.1020
   95MOL    C2747215   2.157   7.216   2.134  0.1206 -0.3158 -0.2047
   95MOL    C2847216   2.091   7.351   2.094  0.5303 -0.1804 -0.1962
   95MOL    C2947217   1.944   7.353   2.149  0.8047 -0.2349  0.2734
   95MOL    C3047218   2.100   7.383   1.942  0.6624  0.0056 -0.9724
   95MOL    O3147219   2.161   7.311   1.864 -0.1188  0.0485  0.1951
   95MOL    O3247220   2.037   7.502   1.906  0.0903  0.7356 -0.4908
   95MOL    C3347221   2.060   7.549   1.778 -0.6338 -0.7073  0.1812
   95MOL    C3447222   2.001   7.683   1.754  0.4732 -0.0051  0.1880
   95MOL    C3547223   1.872   7.707   1.809 -0.0846  0.3147  0.2091
   95MOL    C3647224   1.799   7.822   1.779 -0.4904 -0.6525 -0.5339
   95MOL    C3747225   1.856   7.915   1.690  0.0339  0.1518 -0.0572
   95MOL    C3847226   1.980   7.883   1.621 -0.7894 -0.0765  0.2353
   95MOL    C3947227   2.059   7.777   1.665  0.3081  0.1189  0.4654
   95MOL    H4047228   2.251   7.205   2.081  0.4998  1.5985  0.0062
   95MOL    H4147229   2.178   7.216   2.241  0.3072 -0.2095 -0.2427
   95MOL    H4247230   1.932   7.332   2.255 -0.3201  2.7092  0.7702
   95MOL    H4347231   1.893   7.282   2.085  3.1814 -0.2346 -1.7312
   95MOL    H4447232   1.907   7.453   2.126  0.7769 -0.7347 -1.9892
   95MOL    H4547233   2.166   7.544   1.755 -0.6974 -2.3689  0.1621
   95MOL    H4647234   2.029   7.481   1.698 -0.2407  0.9076 -1.3576
   95MOL    H4747235   1.823   7.630   1.867 -2.4205 -0.1984 -2.2990
   95MOL    H4847236   1.708   7.840   1.833  1.1329  1.3346  1.6409
   95MOL    H4947237   1.799   8.000   1.654 -2.1882 -1.4655 -0.4792
   95MOL    H5047238   2.014   7.946   1.541 -0.5091  1.7315  1.7322
   95MOL    H5147239   2.155   7.758   1.619  1.3634  3.3102  1.2299
   95MOL    C5247240   2.161   7.463   2.176 -0.1662  0.6677  0.2930
   95MOL    C5347241   2.305   7.527   2.154  0.8780 -0.2983 -0.0963
   95MOL    C5447242   2.317   7.619   2.025 -0.2209 -0.3372 -0.3186
   95MOL    C5547243   2.408   7.415   2.134  0.2001 -0.0066  0.1312
   95MOL    O5647244   2.461   7.395   2.028 -0.9341  0.3875  0.2883
   95MOL    O5747245   2.429   7.333   2.238  0.6510 -0.6995 -0.3513
   95MOL    C5847246   2.510   7.213   2.217  0.4878 -0.5694  0.3536
   95MOL    C5947247   2.495   7.113   2.331 -0.4676  0.4136 -0.0834
   95MOL    C6047248   2.465   7.170   2.456  0.3495  0.1864 -0.4430
   95MOL    C6147249   2.433   7.080   2.563  0.5486 -0.1175  0.0193
   95MOL    C6247250   2.432   6.941   2.535 -0.7323 -0.3188  0.1818
   95MOL    C6347251   2.468   6.882   2.411  1.1625  0.2753 -0.4108
   95MOL    C6447252   2.501   6.973   2.309 -0.0181 -0.2791  0.3320
   95MOL    H6547253   2.138   7.447   2.282 -0.3784 -0.8538  0.0218
   95MOL    H6647254   2.102   7.553   2.160  0.7319  1.1634 -0.2490
   95MOL    H6747255   2.255   7.708   2.026  0.4709  0.1486  0.5994
   95MOL    H6847256   2.312   7.568   1.929  0.9104 -0.2075 -0.4605
   95MOL    H6947257   2.419   7.657   2.018 -0.7062  1.2913  1.0963
   95MOL    H7047258   2.473   7.156   2.132 -0.0122  0.4211 -0.0970
   95MOL    H7147259   2.615   7.237   2.198  0.7068  0.6624  2.9317
   95MOL    H7247260   2.471   7.276   2.476  1.3850  0.1070 -0.2992
   95MOL    H7347261   2.396   7.123   2.654  0.8863  0.8803 -0.3130
   95MOL    H7447262   2.405   6.871   2.613  1.7663 -1.4611  0.0705
   95MOL    H7547263   2.469   6.774   2.405  2.1298  0.0492  2.8052
   95MOL    H7647264   2.537   6.942   2.212 -0.5350 -0.4458  0.1884
   95MOL    C7747265   2.372   7.597   2.281 -0.2100  0.0166 -0.4988
   95MOL    C7847266   2.338   7.736   2.344 -0.9393  0.0677  0.3675
   95MOL    C7947267   2.184   7.738   2.366 -0.0519  0.3666  0.1135
   95MOL    C8047268   2.385   7.865   2.260 -0.7923 -0.7005 -0.2445
   95MOL    O8147269   2.453   7.854   2.160  0.3282 -0.7804  0.1548
   95MOL    O8247270   2.363   7.983   2.318 -0.5369  0.2529 -0.0424
   95MOL    C8347271   2.391   0.103   2.258 -0.1387 -0.4984  0.8444
   95MOL    C8447272   2.324   0.222   2.323  0.9652  0.1929  0.4710
   95MOL    C8547273   2.339   0.351   2.273  0.6374 -0.8103 -0.5623
   95MOL    C8647274   2.277   0.454   2.345  0.5086  0.5613  0.2405
   95MOL    C8747275   2.208   0.435   2.465  0.8054 -0.3213 -0.1441
   95MOL    C8847276   2.203   0.306   2.522  0.6087 -0.8632  0.8423
   95MOL    C8947277   2.258   0.200   2.447  0.1990 -0.1154 -0.5330
   95MOL    H9047278   2.475   7.609   2.247 -0.0059  0.4178  0.2639
   95MOL    H9147279   2.344   7.538   2.368  1.4149 -0.0374  0.0061
   95MOL    H9247280   2.163   7.832   2.416  1.6788 -0.3842  2.3037
   95MOL    H9347281   2.160   7.651   2.426  1.7377  0.8706  1.6146
   95MOL    H9447282   2.130   7.741   2.271  0.4016 -1.4931 -0.2263
   95MOL    H9547283   2.499   0.096   2.251 -0.1594 -0.3844  0.3475
   95MOL    H9647284   2.354   0.104   2.155  0.7030 -0.6233  0.5357
   95MOL    H9747285   2.386   0.377   2.180  0.7020 -0.3987 -0.4198
   95MOL    H9847286   2.284   0.556   2.312 -2.2105  0.4173 -0.8325
   95MOL    H9947287   2.161   0.514   2.521  0.4498 -0.6017 -0.0471
   95MOL   H10047288   2.161   0.284   2.619 -0.8195 -1.1642  0.1597
   95MOL   H10147289   2.245   0.099   2.482 -0.8448 -0.6736 -2.4423
   95MOL   C10247290   2.407   7.762   2.493  0.2006 -0.1710  0.2399
   95MOL   C10347291   2.556   7.738   2.518 -0.6864  0.3629 -0.7046
   95MOL   C10447292   2.637   7.804   2.401 -0.2889  0.0641 -0.9639
   95MOL   C10547293   2.585   7.586   2.530 -0.5881 -0.3827  0.2626
   95MOL   O10647294   2.493   7.506   2.545  0.5590 -0.0483  0.1293
   95MOL   O10747295   2.713   7.549   2.518  0.1770 -0.3837  0.2934
   95MOL   C10847296   2.754   7.420   2.523 -0.1592 -0.1461  1.0342
   95MOL   C10947297   2.902   7.409   2.559 -0.0026  0.0673 -0.9377
   95MOL   C11047298   2.981   7.301   2.513 -0.2582  0.9490 -0.5963
   95MOL   C11147299   3.114   7.277   2.557  0.7559 -0.8015  0.0197
   95MOL   C11247300   3.176   7.367   2.646  0.4845  0.2036 -0.4320
   95MOL   C11347301   3.098   7.468   2.702  0.7821 -0.2335 -0.3104
   95MOL   C11447302   2.962   7.487   2.661  0.0197 -0.3186  0.2156
   95MOL   H11547303   2.357   7.702   2.569 -0.1915  1.5610  1.3724
   95MOL   H11647304   2.378   7.860   2.532  1.1455 -0.0508  0.6635
   95MOL   H11747305   2.746   7.803   2.411 -0.5531 -0.5908  2.5871
   95MOL   H11847306   2.607   7.909   2.396 -0.6311  0.0795  0.9509
   95MOL   H11947307   2.614   7.753   2.308 -1.6840  0.1717 -0.6850
   95MOL   H12047308   2.698   7.354   2.590 -1.2612  0.3877  0.6374
   95MOL   H12147309   2.735   7.370   2.428  0.4047 -0.1208  0.9072
   95MOL   H12247310   2.928   7.230   2.451  0.3057 -1.4807  1.6342
   95MOL   H12347311   3.167   7.192   2.517  2.1671  0.0464  0.0610
   95MOL   H12447312   3.275   7.347   2.683  0.6707  1.0245 -0.4624
   95MOL   H12547313   3.143   7.531   2.777  0.7219 -0.0233 -0.4502
   95MOL   H12647314   2.902   7.567   2.702 -0.0969 -1.6673  2.8070
   95MOL   C12747315   2.619   7.825   2.636 -0.1281 -0.0849  0.2619
   95MOL   C12847316   2.563   7.831   2.781 -0.8521  0.7060 -0.2434
   95MOL   C12947317   2.541   7.687   2.835 -0.6276 -0.1201  0.4377
   95MOL   C13047318   2.429   7.913   2.779  0.9626 -0.0520 -0.1820
   95MOL   O13147319   2.427   0.017   2.728 -0.3906  0.0124  0.1954
   95MOL   O13247320   2.326   7.852   2.839  0.1956  0.0830 -0.8230
   95MOL   C13347321   2.198   7.913   2.838  0.1810  0.2062 -0.4272
   95MOL   C13447322   2.091   7.847   2.919  0.5617 -0.2876  0.2531
   95MOL   C13547323   2.120   7.781   3.044 -0.6759  0.1124 -0.0482
   95MOL   C13647324   2.014   7.721   3.117  0.1864  0.0147  0.1774
   95MOL   C13747325   1.883   7.744   3.071  0.5198 -0.0383 -0.1403
   95MOL   C13847326   1.858   7.814   2.955 -0.1244  0.1803 -0.8261
   95MOL   C13947327   1.960   7.867   2.879  0.0070 -0.4212  0.3506
   95MOL   H14047328   2.632   7.929   2.607 -2.8678 -0.3896 -2.4296
   95MOL   H14147329   2.723   7.793   2.640  0.6116  1.8698 -1.8460
   95MOL   H14247330   2.447   7.642   2.800  0.5941 -0.8409 -2.0094
   95MOL   H14347331   2.536   7.682   2.944 -2.7395 -0.6062  0.3480
   95MOL   H14447332   2.619   7.622   2.795  0.0448  0.5954  0.5784
   95MOL   H14547333   2.215   0.005   2.881 -3.0339  0.2104  1.0102
   95MOL   H14647334   2.172   7.914   2.732  0.5391  2.6104 -0.5200
   95MOL   H14747335   2.216   7.773   3.091 -1.2892 -2.6199  0.7985
   95MOL   H14847336   2.029   7.675   3.214 -1.0170  0.5395  0.6242
   95MOL   H14947337   1.799   7.709   3.128 -0.2163  3.7765  1.3230
   95MOL   H15047338   1.755   7.829   2.928 -1.4006 -1.4825  2.8937
   95MOL   H15147339   1.942   7.926   2.791  2.7971 -0.3422 -0.2209
   95MOL   C15247340   2.681   7.899   2.872 -0.4466 -0.0013 -0.7994
   95MOL   C15347341   2.647   7.973   3.011 -0.4497 -0.1917 -0.1974
   95MOL   C15447342   2.535   7.909   3.096 -0.4144 -0.1406 -1.2165
   95MOL   C15547343   2.606   0.113   2.975 -0.1738  0.4650  0.1965
   95MOL   O15647344   2.518   0.171   3.040  0.2963  0.2390 -0.4673
   95MOL   O15747345   2.680   0.163   2.871  0.0273  0.3481 -0.3914
   95MOL   C15847346   2.628   0.274   2.796  0.5947 -0.5156 -0.1952
   95MOL   C15947347   2.716   0.309   2.674  0.6165  0.3569 -0.2438
   95MOL   C16047348   2.672   0.392   2.571  0.7659  0.1518  0.1689
   95MOL   C16147349   2.758   0.436   2.467 -0.2095  0.5132 -0.5475
   95MOL   C16247350   2.891   0.393   2.472  0.5862  0.0358 -0.1728
   95MOL   C16347351   2.936   0.299   2.566 -0.1039 -0.2620  0.4345
   95MOL   C16447352   2.849   0.260   2.667  0.1055  0.4532 -0.5076
   95MOL   H16547353   2.744   7.964   2.811  0.0687  0.1774 -0.0861
   95MOL   H16647354   2.741   7.813   2.902 -0.5504  0.7289  1.6061
   95MOL   H16747355   2.539   7.803   3.119 -1.3445  0.3385  1.3004
   95MOL   H16847356   2.447   7.926   3.033 -0.1245  0.9081 -1.3428
   95MOL   H16947357   2.516   7.960   3.191  1.7407 -0.6547 -0.4782
   95MOL   H17047358   2.527   0.260   2.757  1.4950 -0.0172 -2.8100
   95MOL   H17147359   2.622   0.368   2.850 -3.7129  1.0564 -3.1260
   95MOL   H17247360   2.568   0.419   2.571  0.5004 -0.8523  0.2860
   95MOL   H17347361   2.730   0.501   2.385  0.7781  0.3012 -1.0658
   95MOL   H17447362   2.966   0.429   2.403  0.7047 -1.4182 -0.8236
   95MOL   H17547363   3.033   0.254   2.555  0.7724  1.0358  2.5879
   95MOL   H17647364   2.887   0.202   2.751 -1.0274  1.0785  0.4562
   95MOL   C17747365   2.777   7.993   3.106  1.1883  0.3126  0.2016
   95MOL   C17847366   2.828   7.881   3.201 -0.4804  0.3454 -0.1575
   95MOL   C17947367   2.836   7.744   3.131  0.3682 -0.1851 -0.0004
   95MOL   C18047368   2.744   7.875   3.331 -0.3107 -0.0704 -0.1966
   95MOL   O18147369   2.693   7.771   3.369  0.3022  0.0982 -0.7440
   95MOL   O18247370   2.715   7.994   3.376 -0.1424 -0.3787 -0.3408
   95MOL   C18347371   2.652   0.012   3.500  0.9595 -0.4376  0.2619
   95MOL   C18447372   2.676   0.157   3.543  0.8106  0.0225 -0.1158
   95MOL   C18547373   2.638   0.263   3.458  0.3587 -0.1141 -0.3165
   95MOL   C18647374   2.664   0.394   3.500 -0.7302  0.9559 -1.1752
   95MOL   C18747375   2.718   0.415   3.626 -0.0131  0.6882  0.4034
   95MOL   C18847376   2.750   0.309   3.714 -0.3965  0.5827  0.2485
   95MOL   C18947377   2.724   0.177   3.672  0.2194 -0.6649 -0.3673
   95MOL   H19047378   2.760   0.082   3.156 -3.5322  0.0620 -0.6369
   95MOL   H19147379   2.847   0.006   3.025 -0.5894  0.6454 -1.2981
   95MOL   H19247380   2.865   7.681   3.216 -1.6551  0.3590  1.1262
   95MOL   H19347381   2.920   7.733   3.063  0.3046 -1.8844  0.1601
   95MOL   H19447382   2.746   7.706   3.082  1.1961 -2.2131  0.0013
   95MOL   H19547383   2.544   0.004   3.498  0.6486  2.1292  3.4847
   95MOL   H19647384   2.687   7.951   3.577  0.9123  1.3317  1.8906
   95MOL   H19747385   2.605   0.253   3.355 -2.0263  0.4380  0.3581
   95MOL   H19847386   2.656   0.477   3.431 -0.4445  0.7605 -1.4409
   95MOL   H19947387   2.740   0.512   3.670 -0.5756  0.6278  0.8106
   95MOL   H20047388   2.799   0.333   3.807 -0.2356  2.2790 -0.2684
   95MOL   H20147389   2.758   0.094   3.732  2.0594  1.5802  1.8300
   95MOL   C20247390   2.974   7.917   3.242 -0.6345 -0.1306 -0.2572
   95MOL   C20347391   3.070   7.818   3.326  1.0166 -0.0088  0.0177
   95MOL   C20447392   3.190   7.904   3.376  0.0569  0.1983 -0.3433
   95MOL   C20547393   3.133   7.713   3.227  0.7255 -0.4397  0.3486
   95MOL   O20647394   3.110   7.598   3.229  0.1322 -0.4580 -0.1137
   95MOL   O20747395   3.201   7.768   3.125 -0.1407  0.4215 -0.2501
   95MOL   C20847396   3.269   7.675   3.032  0.3017 -0.7308  0.6847
   95MOL   C20947397   3.403   7.637   3.077 -0.5336  1.0252  0.1236
   95MOL   C21047398   3.468   7.532   3.009  0.1222  0.1808  0.6724
   95MOL   C21147399   3.601   7.498   3.047 -0.1493 -0.3345  0.4196
   95MOL   C21247400   3.674   7.562   3.151  0.0802  0.2888 -0.4612
   95MOL   C21347401   3.613   7.677   3.215 -0.0927  0.0196 -0.3894
   95MOL   C21447402   3.480   7.709   3.178  0.9070  1.0473  0.0276
   95MOL   H21547403   2.964   0.004   3.296 -0.0147 -1.2830  1.9116
   95MOL   H21647404   3.020   7.948   3.148 -0.4632 -0.2916 -0.2278
   95MOL   H21747405   3.217   7.943   3.278  0.3864 -1.5287 -0.9616
   95MOL   H21847406   3.270   7.841   3.416 -0.4395 -2.6524 -3.6018
   95MOL   H21947407   3.165   7.993   3.434  3.3317  1.5782 -0.9443
   95MOL   H22047408   3.202   7.594   3.003 -0.4551  1.2754 -3.6082
   95MOL   H22147409   3.278   7.724   2.935 -0.6116 -0.2250  0.8482
   95MOL   H22247410   3.420   7.485   2.925 -2.2981  0.1985  2.0070
   95MOL   H22347411   3.654   7.428   2.984 -1.6890  0.1189 -1.4395
   95MOL   H22447412   3.780   7.543   3.157  0.1145 -0.3408 -2.8413
   95MOL   H22547413   3.669   7.734   3.287 -0.2848 -2.2255  1.5790
   95MOL   H22647414   3.427   7.791   3.224 -0.2151 -0.2673  1.1310
   95MOL   C22747415   2.998   7.756   3.453 -0.1947  0.0279 -0.0817
   95MOL   C22847416   3.054   7.676   3.575  0.3135 -0.3002 -1.0675
   95MOL   C22947417   2.932   7.607   3.639 -0.0425  0.1248 -0.8395
   95MOL   C23047418   3.118   7.782   3.674  0.6329  0.1461  0.0174
   95MOL   O23147419   3.232   7.831   3.652  0.0678  0.4139  0.1914
   95MOL   O23247420   3.033   7.821   3.770  0.2016 -0.4943  0.3371
   95MOL   C23347421   3.075   7.910   3.868 -0.8760  0.5294  0.8497
   95MOL   C23447422   3.192   7.875   3.961  0.5145 -0.4943  0.4436
   95MOL   C23547423   3.312   7.952   3.955  0.9862  0.1997 -0.3510
   95MOL   C23647424   3.429   7.908   4.022  0.0913  0.0855 -0.0614
   95MOL   C23747425   3.423   7.798   4.104  0.1644  0.0874  0.1262
   95MOL   C23847426   3.303   7.726   4.113  0.8275 -0.1315  0.3122
   95MOL   C23947427   3.185   7.764   4.043 -0.0310 -0.3635 -0.3325
   95MOL   H24047428   2.935   7.674   3.418  2.3624 -2.3823  0.8134
   95MOL   H24147429   2.939   7.835   3.499  4.2116  1.3318  3.6834
   95MOL   H24247430   2.900   7.508   3.607 -1.2372  0.1120  0.3407
   95MOL   H24347431   2.845   7.670   3.622 -0.3847  0.0187  0.4421
   95MOL   H24447432   2.945   7.594   3.747 -1.5903 -0.7829 -0.7431
   95MOL   H24547433   3.101   8.001   3.813 -0.9874 -0.4856 -0.9230
   95MOL   H24647434   2.979   7.918   3.920 -1.1951 -0.7691  0.4802
   95MOL   H24747435   3.307   0.025   3.883 -1.8701  1.0440  0.7271
   95MOL   H24847436   3.520   7.964   4.016 -0.0603  0.3191 -0.1900
   95MOL   H24947437   3.510   7.767   4.161  1.1474  1.3696 -0.6523
   95MOL   H25047438   3.301   7.631   4.165 -1.5412 -0.1876  0.1958
   95MOL   H25147439   3.101   7.697   4.044 -1.0496  0.8897  2.2775
   95MOL   C25247440   3.161   7.568   3.526  0.3500  0.5356  0.3665
   95MOL   C25347441   3.233   7.473   3.626 -0.1883  0.1595  0.4506
   95MOL   C25447442   3.132   7.401   3.720 -0.1189 -0.5209 -0.0969
   95MOL   C25547443   3.331   7.552   3.712 -0.1172 -0.3482  0.6983
   95MOL   O25647444   3.335   7.556   3.839  0.9064  0.2466 -0.6486
   95MOL   O25747445   3.424   7.625   3.639 -0.0445 -0.5461  0.0517
   95MOL   C25847446   3.528   7.694   3.708  0.0438 -0.2920  0.5748
   95MOL   C25947447   3.607   7.781   3.609 -0.2826  0.4339  0.5214
   95MOL   C26047448   3.549   7.889   3.543  0.1941  0.0133  0.7453
   95MOL   C26147449   3.625   7.976   3.462 -0.1230 -0.1390 -0.5139
   95MOL   C26247450   3.760   7.954   3.452 -0.2360 -0.0093 -0.0798
   95MOL   C26347451   3.816   7.837   3.505 -0.1951 -0.1073 -0.5329
   95MOL   C26447452   3.744   7.756   3.593  0.1793 -0.0255  0.0053
   95MOL   H26547453   3.241   7.618   3.471  0.9223 -0.2010  0.5227
   95MOL   H26647454   3.102   7.505   3.460 -1.6121  0.4338  2.1923
   95MOL   H26747455   3.051   7.340   3.680  0.1921 -0.7280 -0.4079
   95MOL   H26847456   3.101   7.470   3.799 -0.1979 -0.5160 -0.1327
   95MOL   H26947457   3.187   7.330   3.782  1.8498  1.3366  0.3559
   95MOL   H27047458   3.488   7.759   3.786  1.2843  1.1486  0.0262
   95MOL   H27147459   3.594   7.623   3.758 -1.2782 -1.6054  0.5006
   95MOL   H27247460   3.448   7.917   3.572  0.3658  0.1334  1.2377
   95MOL   H27347461   3.585   0.063   3.426  0.1446 -0.1292 -0.7865
   95MOL   H27447462   3.812   0.024   3.396  2.0937 -0.6413  1.1717
   95MOL   H27547463   3.920   7.810   3.499  0.5692  1.3930  3.6305
   95MOL   H27647464   3.793   7.667   3.631 -0.0269 -0.4549 -0.7168
   95MOL   C27747465   3.312   7.363   3.545  0.1136  0.0896  0.7663
   95MOL   C27847466   3.259   7.233   3.461 -0.2589  0.8895 -0.3850
   95MOL   C27947467   3.160   7.147   3.542 -0.0927 -0.1819  1.0097
   95MOL   C28047468   3.382   7.148   3.427  0.4666 -0.0614 -0.3545
   95MOL   O28147469   3.379   7.025   3.426 -0.1085  0.3103 -0.1980
   95MOL   O28247470   3.480   7.223   3.373 -0.7336  0.0334  0.0671
   95MOL   C28347471   3.599   7.159   3.324  0.5006 -0.3816 -0.0804
   95MOL   C28447472   3.716   7.232   3.388  0.0516  0.3441 -0.0883
   95MOL   C28547473   3.722   7.375   3.412 -1.0465  0.9612  0.1474
   95MOL   C28647474   3.841   7.427   3.467 -0.4730  0.1536  0.3642
   95MOL   C28747475   3.953   7.346   3.490 -0.9930  0.1573 -0.3143
   95MOL   C28847476   3.944   7.212   3.463  0.6788 -0.5160  0.4270
   95MOL   C28947477   3.828   7.152   3.424  0.2891  0.3968 -0.0953
   95MOL   H29047478   3.384   7.323   3.616  0.5347  0.2778  0.4434
   95MOL   H29147479   3.384   7.418   3.485  0.2054 -0.4885  0.3302
   95MOL   H29247480   3.129   7.047   3.509 -1.1615 -0.5531  3.0924
   95MOL   H29347481   3.064   7.198   3.541  0.2011  0.3919 -0.9394
   95MOL   H29447482   3.193   7.140   3.646 -1.9555 -2.5804  1.4895
   95MOL   H29547483   3.603   7.053   3.349  0.9561  0.2502  2.7606
   95MOL   H29647484   3.596   7.170   3.216 -1.8436 -2.2826 -0.2480
   95MOL   H29747485   3.643   7.447   3.396  0.9242  2.9658 -0.9916
   95MOL   H29847486   3.852   7.533   3.488 -0.2931  0.0063  1.0211
   95MOL   H29947487   4.045   7.390   3.526 -0.0878 -0.1525 -2.2231
   95MOL   H30047488   4.023   7.148   3.499 -0.6396 -2.0140  0.6732
   95MOL   H30147489   3.823   7.045   3.413 -1.6655  0.5965 -1.6133
   95MOL   C30247490   3.189   7.277   3.326  0.3303  0.1360  0.0492
   95MOL   C30347491   3.159   7.193   3.194  0.1249  0.2101  0.8110
   95MOL   C30447492   3.289   7.172   3.119 -0.4718 -0.5936  0.1852
   95MOL   C30547493   3.077   7.296   3.112 -0.1287  0.3548  0.0885
   95MOL   O30647494   3.109   7.355   3.008 -0.3721  0.3872 -0.6284
   95MOL   O30747495   2.966   7.308   3.170 -0.0277 -0.2173  0.3011
   95MOL   C30847496   2.877   7.416   3.133 -0.7662 -0.0299 -0.5024
   95MOL   C30947497   2.756   7.380   3.053 -0.0159 -0.4171  0.3463
   95MOL   C31047498   2.632   7.427   3.097 -0.4384  0.1809 -1.1003
   95MOL   C31147499   2.520   7.398   3.026 -0.4708  0.0305 -0.6641
   95MOL   C31247500   2.521   7.320   2.911 -0.0950 -0.3927 -0.2492
   95MOL   C31347501   2.645   7.276   2.859  0.3983 -0.0746  0.2730
   95MOL   C31447502   2.763   7.310   2.925  0.0558 -0.5317 -0.2711
   95MOL   H31547503   3.240   7.368   3.296  1.8016 -0.1651  1.5153
   95MOL   H31647504   3.090   7.314   3.353  0.1175 -2.1026  2.6231
   95MOL   H31747505   3.349   7.263   3.115 -1.9794  0.3746 -1.0412
   95MOL   H31847506   3.277   7.154   3.012  2.0933 -1.2277 -0.0220
   95MOL   H31947507   3.351   7.090   3.156 -0.5293  0.2623  2.2251
   95MOL   H32047508   2.833   7.454   3.225 -1.2704  0.7247 -1.0430
   95MOL   H32147509   2.922   7.500   3.080  1.5422 -0.7059  0.3487
   95MOL   H32247510   2.624   7.491   3.183  0.3918 -1.1345 -0.0286
   95MOL   H32347511   2.426   7.433   3.066  1.0293  2.8223  0.5875
   95MOL   H32447512   2.431   7.295   2.857 -0.0744  0.4232 -0.6820
   95MOL   H32547513   2.645   7.223   2.765 -3.0554  0.2022  0.0320
   95MOL   H32647514   2.856   7.269   2.889 -1.0528 -1.6181 -1.9425
   95MOL   C32747515   3.085   7.062   3.227  0.1072 -0.7329  0.7858
   95MOL   C32847516   3.052   6.955   3.123 -0.0565  0.4475  0.4880
   95MOL   C32947517   2.948   6.880   3.205  0.0024 -0.6697  0.4903
   95MOL   C33047518   3.176   6.863   3.078  0.9305 -0.0889 -0.9518
   95MOL   O33147519   3.211   6.768   3.143  0.2799  0.3428  0.5465
   95MOL   O33247520   3.242   6.891   2.964 -0.0743  0.0679 -0.0062
   95MOL   C33347521   3.374   6.842   2.947 -1.0254  0.2232 -0.9134
   95MOL   C33447522   3.464   6.958   2.903  0.5560 -0.8600 -0.6975
   95MOL   C33547523   3.430   7.040   2.790  0.0766 -0.2251 -0.7039
   95MOL   C33647524   3.513   7.152   2.757  1.0907  0.3423 -0.4832
   95MOL   C33747525   3.634   7.168   2.825 -0.2352 -0.1155 -0.2677
   95MOL   C33847526   3.673   7.088   2.929 -0.0374  0.4370 -0.1172
   95MOL   C33947527   3.584   6.987   2.974  0.6794 -0.1173 -0.1478
   95MOL   H34047528   2.999   7.087   3.289  1.1146 -0.3658  2.0709
   95MOL   H34147529   3.151   7.014   3.300  1.5224  0.4710  0.3340
   95MOL   H34247530   2.931   6.777   3.172 -1.9201 -0.4135  0.5794
   95MOL   H34347531   2.849   6.927   3.199 -0.0313 -0.8773 -0.6956
   95MOL   H34447532   2.967   6.862   3.310 -1.8672 -1.7390  0.6627
   95MOL   H34547533   3.418   6.795   3.035  0.6721 -0.1824 -1.9604
   95MOL   H34647534   3.379   6.769   2.866  0.6139 -1.6837  0.8585
   95MOL   H34747535   3.348   7.009   2.726  0.1343  1.6751 -1.7103
   95MOL   H34847536   3.502   7.218   2.671  0.5789 -0.4595 -1.0373
   95MOL   H34947537   3.699   7.251   2.801 -1.5865  1.1650  0.3949
   95MOL   H35047538   3.771   7.091   2.975  1.6503  1.6271 -3.5736
   95MOL   H35147539   3.624   6.912   3.040  2.2403  1.0705  0.2967
   95MOL   C35247540   2.974   7.019   2.999 -0.2782 -0.6768  0.1931
   95MOL   C35347541   2.903   6.931   2.881 -0.8623 -0.7049 -0.4998
   95MOL   C35447542   2.945   6.999   2.745 -0.2622  0.4333  0.1068
   95MOL   C35547543   2.750   6.942   2.889 -0.6110 -0.0371  0.4791
   95MOL   O35647544   2.678   6.981   2.797  0.2111  0.3093  0.3450
   95MOL   O35747545   2.702   6.898   3.011  0.1707 -0.1188 -0.5027
   95MOL   C35847546   2.565   6.882   3.040  0.1853  0.2948  0.0485
   95MOL   C35947547   2.512   6.954   3.163  1.1284  0.1146  0.1746
   95MOL   C36047548   2.587   7.068   3.208 -0.0500  0.2475 -0.4348
   95MOL   C36147549   2.544   7.141   3.328 -0.2020  0.3774  0.3119
   95MOL   C36247550   2.444   7.082   3.405  0.0356 -0.2761 -0.1137
   95MOL   C36347551   2.372   6.969   3.359  0.5334 -0.5312 -0.6121
   95MOL   C36447552   2.398   6.915   3.234 -0.7202  0.4771 -0.8688
   95MOL   H36547553   3.049   7.080   2.948 -0.1582 -1.7863 -0.9863
   95MOL   H36647554   2.899   7.091   3.033 -1.5075 -1.4632 -0.7844
   95MOL   H36747555   3.053   7.010   2.733 -0.0050 -2.0100 -0.0814
   95MOL   H36847556   2.915   7.102   2.728  0.5204  0.8723  1.3109
   95MOL   H36947557   2.893   6.955   2.660 -1.8119 -3.8613  3.1072
   95MOL   H37047558   2.514   6.912   2.948 -2.1332 -0.1561  1.1541
   95MOL   H37147559   2.535   6.777   3.050 -0.5380  0.6070  1.1698
   95MOL   H37247560   2.671   7.113   3.157  0.9002  0.0321  0.8934
   95MOL   H37347561   2.592   7.234   3.355 -1.5494  0.2640  3.2740
   95MOL   H37447562   2.429   7.124   3.503 -1.7863  0.4189 -0.6695
   95MOL   H37547563   2.302   6.932   3.433  0.3858 -1.4872 -1.2188
   95MOL   H37647564   2.338   6.830   3.204 -0.2071 -0.1429 -0.1664
   95MOL   C37747565   2.961   6.782   2.879  0.3897  0.1588  0.3760
   95MOL   C37847566   2.898   6.666   2.797  0.4948  0.1057 -0.0756
   95MOL   C37947567   2.871   6.709   2.644 -0.2629  0.4506  0.7884
   95MOL   C38047568   2.761   6.619   2.861  0.3633 -0.3291 -1.0206
   95MOL   O38147569   2.649   6.617   2.800 -0.7289  0.4942 -0.3078
   95MOL   O38247570   2.772   6.579   2.986  0.1490  0.1808  0.6532
   95MOL   C38347571   2.690   6.466   3.036 -0.2074  0.5719 -0.0710
   95MOL   C38447572   2.639   6.488   3.176 -0.4808 -0.2357  0.8398
   95MOL   C38547573   2.506   6.460   3.210  0.2566  0.2913 -0.7452
   95MOL   C38647574   2.456   6.491   3.337 -0.5365 -0.4505  0.1362
   95MOL   C38747575   2.541   6.546   3.434  0.0162  0.3962  1.0055
   95MOL   C38847576   2.673   6.573   3.401 -0.2845 -0.5876  0.3993
   95MOL   C38947577   2.724   6.547   3.271  0.0020 -0.4781 -0.0392
   95MOL   H39047578   2.978   6.738   2.977  2.4920 -0.9827 -0.4730
   95MOL   H39147579   3.056   6.790   2.825 -0.1751 -1.6787 -0.9275
   95MOL   H39247580   2.953   6.762   2.596 -0.0351  0.1699  0.8662
   95MOL   H39347581   2.782   6.771   2.633  0.2462  1.2858  1.3160
   95MOL   H39447582   2.840   6.615   2.598 -2.2431  0.8669  1.2109
   95MOL   H39547583   2.617   6.437   2.960  1.2460  3.5893 -2.7764
   95MOL   H39647584   2.756   6.380   3.040  2.2876  2.3687 -1.4148
   95MOL   H39747585   2.436   6.414   3.142 -1.9806 -0.5984  2.0412
   95MOL   H39847586   2.356   6.470   3.371 -0.3046  0.0707  1.1413
   95MOL   H39947587   2.501   6.585   3.526 -0.9113  0.4402  0.5885
   95MOL   H40047588   2.742   6.619   3.471  0.8231 -1.3492 -0.1839
   95MOL   H40147589   2.829   6.571   3.257 -0.1478  0.4820  0.4857
   95MOL   C40247590   3.005   6.547   2.796 -0.3441  0.2006  0.1287
   95MOL   C40347591   2.999   6.405   2.729  0.6004 -0.3959 -0.5169
   95MOL   C40447592   3.046   6.427   2.584 -0.1046 -0.3035 -0.5054
   95MOL   C40547593   2.862   6.340   2.737 -0.4177 -0.1626 -0.1152
   95MOL   O40647594   2.823   6.278   2.835 -0.2385  0.0570 -0.6425
   95MOL   O40747595   2.783   6.367   2.621 -0.2466 -0.1511 -0.4904
   95MOL   C40847596   2.646   6.334   2.615 -0.0166  0.1712 -0.0447
   95MOL   C40947597   2.589   6.408   2.495  1.0458  0.0734  0.5622
   95MOL   C41047598   2.652   6.420   2.370  0.2315 -0.2075  0.7328
   95MOL   C41147599   2.591   6.480   2.259  0.0304  0.3511 -0.3504
   95MOL   C41247600   2.464   6.535   2.269  0.0953 -0.1434 -0.0293
   95MOL   C41347601   2.405   6.539   2.397 -0.1067 -0.3646 -0.0504
   95MOL   C41447602   2.466   6.477   2.505 -0.1731 -0.4038 -0.2268
   95MOL   H41547603   3.019   6.527   2.902  0.4542 -1.4026 -0.2562
   95MOL   H41647604   3.097   6.588   2.755  0.0203  0.9425  1.6392
   95MOL   H41747605   2.986   6.497   2.525 -3.7721 -2.1304  0.9057
   95MOL   H41847606   3.050   6.331   2.532  0.4522 -0.2727 -0.5231
   95MOL   H41947607   3.143   6.474   2.569  0.0763 -0.6162 -0.3129
   95MOL   H42047608   2.629   6.227   2.605  0.1707  0.0248  1.1170
   95MOL   H42147609   2.587   6.372   2.699 -1.4940  2.3391 -2.0034
   95MOL   H42247610   2.740   6.360   2.356  0.6575  0.0352  2.2750
   95MOL   H42347611   2.640   6.464   2.164  1.8727 -0.9592  0.7784
   95MOL   H42447612   2.409   6.575   2.185 -2.0599 -3.0729 -0.0966
   95MOL   H42547613   2.305   6.579   2.404 -0.6731 -1.7030 -0.4030
   95MOL   H42647614   2.435   6.477   2.608 -1.0327  0.8290 -0.4797
   95MOL   C42747615   3.110   6.317   2.804  0.8375 -0.4640 -0.5406
   95MOL   C42847616   3.173   6.181   2.762  0.1263  0.1607  0.3147
   95MOL   C42947617   3.293   6.220   2.668 -0.3914 -0.0889 -0.0110
   95MOL   C43047618   3.074   6.093   2.682 -0.5307 -0.0131  0.6280
   95MOL   O43147619   3.101   6.068   2.565  0.3863  0.3896 -0.0728
   95MOL   O43247620   2.966   6.037   2.746 -0.0451  0.2670 -0.0519
   95MOL   C43347621   2.896   5.924   2.672  0.4461  0.5963 -0.1771
   95MOL   C43447622   2.760   5.894   2.722 -0.1782  0.3679 -0.2777
   95MOL   C43547623   2.697   5.778   2.667 -0.0567  0.2967  0.5834
   95MOL   C43647624   2.563   5.763   2.700 -0.1290  0.2045 -0.3951
   95MOL   C43747625   2.493   5.852   2.779 -0.0894  0.0706 -0.2284
   95MOL   C43847626   2.564   5.960   2.840 -0.2291  0.2892  0.6182
   95MOL   C43947627   2.700   5.982   2.812  0.3725  0.1157  0.1391
   95MOL   H44047628   3.066   6.298   2.902  0.1195  0.1304 -0.7442
   95MOL   H44147629   3.193   6.378   2.841 -0.8224  1.7534 -0.3979
   95MOL   H44247630   3.340   6.141   2.610  1.0380  1.6600 -1.2945
   95MOL   H44347631   3.374   6.263   2.727  0.3401 -0.5954 -0.6385
   95MOL   H44447632   3.263   6.293   2.593  1.2711  2.3793  1.6460
   95MOL   H44547633   2.886   5.947   2.566 -0.8219  0.8612 -0.0050
   95MOL   H44647634   2.968   5.844   2.685 -2.1621 -1.8610 -0.4101
   95MOL   H44747635   2.741   5.717   2.590  1.7374  1.1745  0.8946
   95MOL   H44847636   2.513   5.673   2.665 -0.2473  0.4027 -0.7319
   95MOL   H44947637   2.392   5.833   2.812  0.1128  0.4166  0.6252
   95MOL   H45047638   2.516   6.024   2.913 -0.0816 -1.1525  1.9966
   95MOL   H45147639   2.757   6.057   2.865  0.1855  0.6615 -0.4251
   95MOL   C45247640   3.225   6.111   2.895 -0.1905 -0.2315  0.2525
   95MOL   C45347641   3.257   5.958   2.912  0.1361  0.2010 -0.2949
   95MOL   C45447642   3.329   5.899   2.785 -0.2985 -0.1937 -0.4550
   95MOL   C45547643   3.131   5.873   2.939 -0.0963  1.0374  0.7940
   95MOL   O45647644   3.111   5.761   2.883 -0.4499  1.0149 -0.0208
   95MOL   O45747645   3.040   5.932   3.032  0.2116 -0.3630  0.1245
   95MOL   C45847646   2.933   5.854   3.079 -0.5820  0.1816  0.0128
   95MOL   C45947647   2.866   5.928   3.194  0.0470  0.0158  0.0738
   95MOL   C46047648   2.851   6.068   3.185  0.1394 -0.0410 -1.0426
   95MOL   C46147649   2.803   6.142   3.292  0.2941 -0.2467  0.3919
   95MOL   C46247650   2.752   6.074   3.400  0.0602 -0.4396 -0.6846
   95MOL   C46347651   2.756   5.929   3.411 -0.4704 -0.5730 -0.2578
   95MOL   C46447652   2.828   5.855   3.311  0.0748  0.1376 -0.3501
   95MOL   H46547653   3.158   6.141   2.975 -2.8391 -2.4155 -1.0426
   95MOL   H46647654   3.324   6.148   2.919 -0.1861 -0.5120  0.6688
   95MOL   H46747655   3.429   5.939   2.766 -0.2750  1.2017  2.3958
   95MOL   H46847656   3.277   5.888   2.690 -1.0446  0.3306 -0.1084
   95MOL   H46947657   3.353   5.793   2.800  0.8028  0.1057 -0.0019
   95MOL   H47047658   2.851   5.833   3.009 -0.4066  1.1908 -0.5183
   95MOL   H47147659   2.965   5.758   3.118  1.2885  0.4704 -0.7679
   95MOL   H47247660   2.888   6.110   3.093  3.6412  0.0601  0.3146
   95MOL   H47347661   2.797   6.250   3.290  0.5448 -0.1816  2.4824
   95MOL   H47447662   2.714   6.129   3.486 -0.9452 -0.9205 -0.8100
   95MOL   H47547663   2.716   5.878   3.497  0.5027  0.4686  0.8308
   95MOL   H47647664   2.830   5.747   3.315 -1.5214  0.1529  2.5425
   95MOL   C47747665   3.355   5.939   3.041  0.6281  0.1476  0.2416
   95MOL   C47847666   3.312   6.009   3.173 -0.9955 -0.3829  0.0497
   95MOL   C47947667   3.417   6.122   3.204  0.1563 -0.1215 -0.6267
   95MOL   C48047668   3.304   5.909   3.288  0.1432 -0.2262  0.4014
   95MOL   O48147669   3.194   5.878   3.337  0.2796 -0.1853 -0.0076
   95MOL   O48247670   3.427   5.857   3.325  0.1835 -0.2921 -0.0673
   95MOL   C48347671   3.443   5.744   3.415 -0.4433  0.6398 -0.2463
   95MOL   C48447672   3.489   5.613   3.351  0.2657  0.3974  0.1540
   95MOL   C48547673   3.572   5.606   3.235  0.0041 -0.6326  0.6011
   95MOL   C48647674   3.594   5.485   3.167 -0.1344  0.2355 -0.1897
   95MOL   C48747675   3.537   5.370   3.220  0.6666  0.0459  0.0454
   95MOL   C48847676   3.463   5.372   3.335 -0.2587  0.5821 -0.2579
   95MOL   C48947677   3.443   5.492   3.399  0.2538  0.0786  0.3969
   95MOL   H49047678   3.457   5.968   3.019  0.1192  0.9099 -1.1283
   95MOL   H49147679   3.365   5.832   3.062  0.7476 -0.3519 -2.2475
   95MOL   H49247680   3.380   6.192   3.279  1.8182 -0.0279  0.1389
   95MOL   H49347681   3.444   6.176   3.114 -0.2594  1.2355  0.0507
   95MOL   H49447682   3.516   6.099   3.243 -0.1640 -0.5319 -0.0279
   95MOL   H49547683   3.511   5.763   3.497  1.6671 -0.3966 -1.6966
   95MOL   H49647684   3.345   5.722   3.457 -0.5643 -0.9815 -1.3142
   95MOL   H49747685   3.626   5.693   3.201 -0.4376 -1.5008 -2.5094
   95MOL   H49847686   3.664   5.485   3.086 -1.0534  1.5692 -1.0005
   95MOL   H49947687   3.549   5.279   3.164 -0.4699 -0.8270  1.1671
   95MOL   H50047688   3.417   5.281   3.372  0.5730  0.2904  0.0638
   95MOL   H50147689   3.377   5.494   3.484 -1.5586  1.3631 -0.9911
   95MOL   H50247690   3.212   6.040   3.144 -1.7941 -1.8858  1.1380
   96MOL     C147691   5.357   0.505   6.455 -0.5260  0.3916 -0.2842
   96MOL     C247692   5.371   0.565   6.601  0.5552  0.9348  0.2006
   96MOL     C347693   5.285   0.475   6.694 -0.4225 -0.1587  0.4377
   96MOL     C447694   5.297   0.706   6.593 -1.3688  0.0037 -0.1521
   96MOL     O547695   5.203   0.733   6.664 -0.2808  0.0565 -0.5090
   96MOL     O647696   5.347   0.785   6.500  0.0913  0.1741 -0.2433
   96MOL     C747697   5.295   0.913   6.478  0.2930  0.6513  0.7130
   96MOL     C847698   5.374   1.023   6.549 -0.7961  0.5273  0.7303
   96MOL     C947699   5.489   1.088   6.499  0.2986 -0.4479 -0.4686
   96MOL    C1047700   5.566   1.171   6.586  0.6439 -0.7186 -0.4112
   96MOL    C1147701   5.527   1.189   6.722  0.1229 -0.3668  0.3246
   96MOL    C1247702   5.415   1.132   6.766  0.7523 -0.7621 -0.0944
   96MOL    C1347703   5.328   1.057   6.678 -0.3916 -0.1059  0.1706
   96MOL    H1447704   5.387   0.405   6.425 -0.2388 -0.0208  1.3117
   96MOL    H1547705   5.258   0.516   6.411 -0.9842 -2.0054  0.1009
   96MOL    H1647706   5.323   0.373   6.689 -2.5523 -0.9765  0.1690
   96MOL    H1747707   5.178   0.480   6.673 -0.6017 -0.0335  1.3278
   96MOL    H1847708   5.299   0.504   6.798 -1.1334 -0.0685  0.5123
   96MOL    H1947709   5.301   0.918   6.370  0.6692 -1.3183  0.6303
   96MOL    H2047710   5.190   0.922   6.508 -0.5067 -2.1090 -1.0861
   96MOL    H2147711   5.521   1.064   6.399  1.0133 -3.6135  0.4448
   96MOL    H2247712   5.658   1.219   6.555  0.6595  0.4816  1.4299
   96MOL    H2347713   5.593   1.250   6.782  0.4789  3.0009 -3.2990
   96MOL    H2447714   5.395   1.147   6.871 -0.7656 -1.4794 -0.2567
   96MOL    H2547715   5.243   1.003   6.715  0.0634 -0.4962  0.6463
   96MOL    H2647716   5.418   0.567   6.389 -1.4530  0.5299 -1.0233
   96MOL    C2747717   5.518   0.552   6.653  0.4862 -0.3163  0.7949
   96MOL    C2847718   5.649   0.623   6.605  0.3688  0.2386  0.8039
   96MOL    C2947719   5.631   0.778   6.614 -0.1099  0.9527  0.4607
   96MOL    C3047720   5.699   0.597   6.456 -0.1294 -0.3213 -0.5120
   96MOL    O3147721   5.652   0.497   6.395  0.4487 -0.0720 -0.1387
   96MOL    O3247722   5.794   0.676   6.407  0.2652  0.2052 -0.6102
   96MOL    C3347723   5.848   0.667   6.276  0.9342  0.4431  0.2328
   96MOL    C3447724   5.983   0.601   6.285 -0.0822 -0.0040 -0.2395
   96MOL    C3547725   6.043   0.539   6.175 -0.7789  0.1682  0.6583
   96MOL    C3647726   6.168   0.482   6.175  0.3728 -0.4971  0.4823
   96MOL    C3747727   6.235   0.480   6.296  0.3314 -0.4668 -0.1282
   96MOL    C3847728   6.182   0.531   6.418  0.2164  0.1485  0.2616
   96MOL    C3947729   6.056   0.601   6.407  0.3878 -0.3425 -0.2891
   96MOL    H4047730   5.544   0.446   6.644  0.7342 -0.2675  0.9420
   96MOL    H4147731   5.511   0.559   6.761 -0.2684  0.5212  0.6996
   96MOL    H4247732   5.565   0.810   6.695 -0.4786 -2.2086  1.4891
   96MOL    H4347733   5.586   0.822   6.525 -2.3135  0.7427  1.4430
   96MOL    H4447734   5.723   0.836   6.614  0.0833  0.6613 -1.3318
   96MOL    H4547735   5.780   0.631   6.199 -0.5108 -0.6329  1.9708
   96MOL    H4647736   5.859   0.773   6.253  0.9061  0.3221 -0.3357
   96MOL    H4747737   5.990   0.551   6.081  0.7933  1.3152 -0.1012
   96MOL    H4847738   6.227   0.446   6.091 -1.1764 -1.8028 -0.0705
   96MOL    H4947739   6.335   0.439   6.296  0.2922 -0.6332 -2.1582
   96MOL    H5047740   6.241   0.520   6.507  0.7772 -0.5946 -0.1905
   96MOL    H5147741   6.009   0.652   6.489 -1.3002  0.2999 -1.6340
   96MOL    C5247742   5.767   0.595   6.703 -0.2353 -0.1058  0.0359
   96MOL    C5347743   5.809   0.457   6.756 -0.7823 -0.1897  0.2205
   96MOL    C5447744   5.795   0.357   6.642  0.2790  0.0267 -0.6192
   96MOL    C5547745   5.724   0.410   6.873 -0.3271 -0.2170  0.6368
   96MOL    O5647746   5.639   0.475   6.934  0.2844  0.0429  0.1435
   96MOL    O5747747   5.745   0.276   6.895 -0.1396 -0.5032  0.6416
   96MOL    C5847748   5.692   0.218   7.015  0.1889  0.0346  0.7470
   96MOL    C5947749   5.764   0.268   7.139  0.2569 -0.5586 -0.8226
   96MOL    C6047750   5.718   0.374   7.222 -0.4802  0.7960 -0.5563
   96MOL    C6147751   5.808   0.424   7.323 -0.1080  0.4785 -0.4353
   96MOL    C6247752   5.932   0.365   7.352 -0.4219  0.4672 -0.3471
   96MOL    C6347753   5.969   0.249   7.274 -0.2868 -0.3847  0.1959
   96MOL    C6447754   5.890   0.204   7.166  0.5670  0.3017  0.3725
   96MOL    H6547755   5.745   0.657   6.791 -1.1886 -1.0924  0.5103
   96MOL    H6647756   5.853   0.649   6.664 -0.5329  1.6313  1.6586
   96MOL    H6747757   5.694   0.316   6.640  0.3061 -0.1693  1.1883
   96MOL    H6847758   5.869   0.278   6.657  0.2469 -0.2972 -2.0810
   96MOL    H6947759   5.820   0.391   6.541 -0.0919 -0.5508 -0.9095
   96MOL    H7047760   5.589   0.251   7.033  0.7495  0.4250  3.5964
   96MOL    H7147761   5.694   0.109   7.012  1.4464  0.0610  0.3725
   96MOL    H7247762   5.629   0.429   7.195  1.1632  2.7738 -2.1762
   96MOL    H7347763   5.777   0.516   7.371 -1.7058  0.5868 -1.6421
   96MOL    H7447764   5.999   0.402   7.427 -0.8529  1.4421 -0.4389
   96MOL    H7547765   6.055   0.196   7.312 -1.4580 -2.5003 -0.0272
   96MOL    H7647766   5.914   0.118   7.105 -2.3201  0.0955 -0.5524
   96MOL    C7747767   5.964   0.450   6.798 -0.2887  0.5546  0.0675
   96MOL    C7847768   6.033   0.560   6.893 -0.2565  0.2456 -0.6335
   96MOL    C7947769   5.940   0.600   7.008 -0.0738  0.2722 -0.3783
   96MOL    C8047770   6.069   0.692   6.819 -0.4969  0.3380  0.3187
   96MOL    O8147771   6.075   0.700   6.699  0.2241 -0.2740 -0.6790
   96MOL    O8247772   6.112   0.790   6.903 -0.5158 -0.4888 -1.2294
   96MOL    C8347773   6.181   0.900   6.858 -0.2927 -0.2582 -0.1111
   96MOL    C8447774   6.327   0.872   6.830 -0.2438  0.2967  0.4293
   96MOL    C8547775   6.370   0.873   6.697  0.1068  0.1099  0.2024
   96MOL    C8647776   6.506   0.875   6.660  0.3794 -0.4953 -0.2165
   96MOL    C8747777   6.603   0.858   6.760  0.3079 -0.2179 -0.5054
   96MOL    C8847778   6.564   0.851   6.899  0.4091  0.5321  0.1061
   96MOL    C8947779   6.427   0.853   6.928  0.0631  0.0066  0.2565
   96MOL    H9047780   6.025   0.431   6.709  0.0717  2.3909 -0.0811
   96MOL    H9147781   5.961   0.359   6.859  0.9703  0.5058  0.0836
   96MOL    H9247782   5.999   0.662   7.075  0.1996  1.8811 -2.0942
   96MOL    H9347783   5.897   0.512   7.056  1.7265 -0.5788 -0.2931
   96MOL    H9447784   5.857   0.659   6.969 -1.8452  0.4886  3.4787
   96MOL    H9547785   6.128   0.938   6.771  2.4233 -0.5602 -2.0028
   96MOL    H9647786   6.184   0.974   6.937 -1.0624  0.3045 -0.6005
   96MOL    H9747787   6.302   0.881   6.613 -0.9594  2.1971  1.2299
   96MOL    H9847788   6.529   0.896   6.556 -0.7745  1.7928 -0.0329
   96MOL    H9947789   6.708   0.851   6.736  0.3957 -0.3481 -0.0844
   96MOL   H10047790   6.632   0.839   6.983  0.6661 -0.0386 -0.1763
   96MOL   H10147791   6.395   0.859   7.031  1.3887 -2.2124  0.8308
   96MOL   C10247792   6.161   0.498   6.965 -0.4053  0.4012 -0.3375
   96MOL   C10347793   6.280   0.417   6.893 -0.7648  0.0427  0.9033
   96MOL   C10447794   6.311   0.465   6.753  0.7116  0.2832 -0.5902
   96MOL   C10547795   6.250   0.266   6.893 -0.3602  0.2832  0.1943
   96MOL   O10647796   6.156   0.223   6.953 -0.0813  0.1476  0.1519
   96MOL   O10747797   6.344   0.184   6.849 -0.3331 -0.1797 -0.2443
   96MOL   C10847798   6.323   0.042   6.846  0.0652 -0.4483  0.3382
   96MOL   C10947799   6.431   7.963   6.777  0.2961 -0.5837 -0.1125
   96MOL   C11047800   6.568   7.970   6.817  1.0583 -0.0195  0.5153
   96MOL   C11147801   6.654   7.865   6.763 -0.0679 -0.4769 -0.7650
   96MOL   C11247802   6.605   7.768   6.675  0.0596 -0.1676 -0.0350
   96MOL   C11347803   6.467   7.762   6.642 -0.0348 -0.3618 -0.2892
   96MOL   C11447804   6.386   7.865   6.685 -0.0919 -0.8329  0.6085
   96MOL   H11547805   6.122   0.438   7.047  1.7317 -0.8872 -0.2216
   96MOL   H11647806   6.205   0.581   7.019 -0.2097 -0.5087  0.9285
   96MOL   H11747807   6.408   0.432   6.715  0.0385 -1.5888 -0.7560
   96MOL   H11847808   6.321   0.573   6.765  0.3926  0.2303  0.1586
   96MOL   H11947809   6.234   0.436   6.682 -0.2183  0.8026  0.1911
   96MOL   H12047810   6.324   0.010   6.951 -1.3421 -0.8371  0.2451
   96MOL   H12147811   6.226   0.016   6.803  0.0682  1.2470 -0.7239
   96MOL   H12247812   6.594   0.043   6.885 -1.3447 -0.3850  1.9235
   96MOL   H12347813   6.760   7.874   6.777 -0.1071  2.0945 -1.8751
   96MOL   H12447814   6.679   7.699   6.636 -1.6831 -0.7095 -2.4994
   96MOL   H12547815   6.435   7.678   6.582  0.3788 -2.1298  1.8813
   96MOL   H12647816   6.282   7.845   6.662  0.4794 -0.5474 -2.4206
   96MOL   C12747817   6.418   0.442   6.970  0.0817 -0.3637  0.3423
   96MOL   C12847818   6.464   0.385   7.106 -0.9459 -0.4918 -0.1640
   96MOL   C12947819   6.500   0.231   7.107 -0.0369 -0.0464  0.2158
   96MOL   C13047820   6.337   0.405   7.199  0.1118 -0.2159  0.1329
   96MOL   O13147821   6.270   0.312   7.241 -0.0326  0.1528  0.1587
   96MOL   O13247822   6.323   0.532   7.239 -0.6495  0.0464 -0.6042
   96MOL   C13347823   6.258   0.559   7.361 -0.3017 -0.0613 -0.1117
   96MOL   C13447824   6.348   0.592   7.483  0.3784  0.0006 -0.7167
   96MOL   C13547825   6.341   0.722   7.539 -0.1460  0.2471  0.0997
   96MOL   C13647826   6.423   0.764   7.645 -0.1894 -0.3628 -0.0262
   96MOL   C13747827   6.502   0.659   7.702  0.6973 -0.0539 -0.2339
   96MOL   C13847828   6.509   0.527   7.649  0.2056 -0.4818 -0.1498
   96MOL   C13947829   6.424   0.493   7.548  0.0543 -0.0855 -0.3489
   96MOL   H14047830   6.451   0.546   6.978  1.2219 -0.7208  0.3390
   96MOL   H14147831   6.493   0.394   6.908  0.7534  1.9205 -0.6593
   96MOL   H14247832   6.572   0.195   7.033 -0.7157  0.6541 -0.7919
   96MOL   H14347833   6.409   0.173   7.088  0.0840  0.0823 -0.7734
   96MOL   H14447834   6.537   0.208   7.207  0.9918  0.4636 -0.0435
   96MOL   H14547835   6.192   0.638   7.329 -1.5013 -0.6178  0.9131
   96MOL   H14647836   6.192   0.475   7.384 -0.5810 -0.7590 -3.3210
   96MOL   H14747837   6.271   0.792   7.495 -0.7470 -0.7967 -0.6248
   96MOL   H14847838   6.431   0.863   7.690  1.0871  0.2527 -1.5583
   96MOL   H14947839   6.549   0.683   7.796  0.2693 -0.0426 -0.0218
   96MOL   H15047840   6.560   0.450   7.706  0.5384  1.9646  2.9634
   96MOL   H15147841   6.422   0.392   7.509  0.3365  1.0992 -3.5715
   96MOL   C15247842   6.574   0.468   7.171  0.4934 -0.7784 -0.1964
   96MOL   C15347843   6.734   0.453   7.138  0.5100  0.6156 -0.4925
   96MOL   C15447844   6.733   0.449   6.986 -0.2827  0.2645 -0.0400
   96MOL   C15547845   6.799   0.321   7.181  0.6802  0.5125  0.1000
   96MOL   O15647846   6.871   0.248   7.110 -0.7280  0.1063  0.1771
   96MOL   O15747847   6.755   0.280   7.304 -0.7457 -0.0580  0.0477
   96MOL   C15847848   6.782   0.144   7.344  0.4628 -0.6035  0.0842
   96MOL   C15947849   6.742   0.113   7.482  0.0515 -0.0892  0.2447
   96MOL   C16047850   6.683   0.213   7.569 -0.9141 -0.0810 -0.1644
   96MOL   C16147851   6.655   0.176   7.704  0.5875  0.0387  0.4286
   96MOL   C16247852   6.650   0.041   7.747 -0.1685 -0.2577 -0.0720
   96MOL   C16347853   6.691   7.953   7.653 -0.7263  0.2156 -0.7345
   96MOL   C16447854   6.740   7.984   7.524  0.1738  0.2444  0.5102
   96MOL   H16547855   6.564   0.455   7.279 -0.2720 -0.2181 -0.1944
   96MOL   H16647856   6.547   0.574   7.171 -0.3282 -0.9734  0.6982
   96MOL   H16747857   6.830   0.457   6.937  0.2783 -0.9926  0.8411
   96MOL   H16847858   6.677   0.536   6.953  1.8680  2.5427  2.0759
   96MOL   H16947859   6.699   0.355   6.943 -0.0245  1.2069 -2.4016
   96MOL   H17047860   6.739   0.071   7.274 -0.9043  1.2774 -1.1029
   96MOL   H17147861   6.890   0.132   7.342  0.2221 -3.0567  0.3170
   96MOL   H17247862   6.669   0.310   7.523  0.2867  0.2845  0.2196
   96MOL   H17347863   6.634   0.262   7.766 -0.3632 -0.2115  0.4657
   96MOL   H17447864   6.621   0.011   7.846  0.4678 -0.0847  0.1637
   96MOL   H17547865   6.688   7.849   7.684 -0.7762  0.3651 -0.2373
   96MOL   H17647866   6.771   7.903   7.460  0.2008  1.6107 -1.2281
   96MOL   C17747867   6.814   0.578   7.178 -0.0930  0.0892  1.1709
   96MOL   C17847868   6.857   0.621   7.321 -0.3241  0.0011  0.0715
   96MOL   C17947869   6.738   0.603   7.414 -0.0792 -0.3977  0.8118
   96MOL   C18047870   6.890   0.774   7.316 -0.3736  0.0212  0.2219
   96MOL   O18147871   7.003   0.820   7.310  0.4495 -0.1803 -0.1686
   96MOL   O18247872   6.781   0.842   7.308 -0.3049 -0.3515  0.7263
   96MOL   C18347873   6.776   0.983   7.320  0.5112 -0.6308  0.0510
   96MOL   C18447874   6.739   1.048   7.451 -0.1366  0.2473  0.1174
   96MOL   C18547875   6.735   1.187   7.459  0.5249 -0.2491  0.0346
   96MOL   C18647876   6.691   1.252   7.581  0.2436  0.0331 -0.3908
   96MOL   C18747877   6.663   1.175   7.694  0.2023 -0.2068 -0.1000
   96MOL   C18847878   6.666   1.035   7.680  0.5261  0.5176 -0.4224
   96MOL   C18947879   6.699   0.969   7.556 -0.2952 -0.1328  0.2529
   96MOL   H19047880   6.759   0.660   7.130 -1.6047 -1.7866 -0.3714
   96MOL   H19147881   6.903   0.562   7.119  0.6093  0.5865  2.0766
   96MOL   H19247882   6.651   0.647   7.366  2.0102  1.9727 -0.8988
   96MOL   H19347883   6.761   0.623   7.519  0.0518  1.3077  0.4702
   96MOL   H19447884   6.706   0.499   7.413  1.6042 -0.9331  0.6206
   96MOL   H19547885   6.869   1.023   7.279  1.0366 -1.6497  0.2367
   96MOL   H19647886   6.701   1.012   7.246  1.9636 -0.0942 -1.2484
   96MOL   H19747887   6.763   1.248   7.375  2.0512 -0.3591  0.4451
   96MOL   H19847888   6.691   1.360   7.585  1.4339  0.0334 -0.4007
   96MOL   H19947889   6.623   1.207   7.789  0.0340  0.7484 -0.4888
   96MOL   H20047890   6.655   0.971   7.766 -0.6158  0.5688 -0.5277
   96MOL   H20147891   6.711   0.862   7.552 -0.7465 -0.2465  1.5532
   96MOL   C20247892   6.988   0.541   7.361 -0.3254 -0.2168  0.3477
   96MOL   C20347893   7.053   0.515   7.503 -0.1932 -0.1989  0.1202
   96MOL   C20447894   6.964   0.408   7.574  0.0848  0.2246 -0.3907
   96MOL   C20547895   7.061   0.647   7.595 -0.7972 -0.3381  0.3274
   96MOL   O20647896   6.990   0.666   7.695 -0.1348  0.2721  0.1894
   96MOL   O20747897   7.159   0.734   7.554  0.1953 -0.0338  0.2984
   96MOL   C20847898   7.166   0.860   7.608 -0.1129 -0.4673  0.2138
   96MOL   C20947899   7.260   0.871   7.721 -0.3267  0.4780  0.3081
   96MOL   C21047900   7.390   0.907   7.690 -0.5838  0.7660 -0.2990
   96MOL   C21147901   7.475   0.920   7.800  0.0306 -1.0710 -0.6746
   96MOL   C21247902   7.433   0.911   7.934  0.2092  0.2100  0.2633
   96MOL   C21347903   7.302   0.872   7.960 -0.3992 -0.3240 -0.2463
   96MOL   C21447904   7.212   0.848   7.849  0.1147  0.2962  0.1012
   96MOL   H21547905   7.071   0.592   7.312 -1.4360  2.2880  0.9452
   96MOL   H21647906   6.982   0.447   7.307  0.7074 -0.2051  0.2165
   96MOL   H21747907   6.862   0.447   7.577  0.3784  1.0099 -0.3558
   96MOL   H21847908   6.989   0.392   7.679  0.0819  0.0521 -0.4167
   96MOL   H21947909   6.952   0.308   7.534  1.6649 -0.7713  1.5502
   96MOL   H22047910   7.211   0.908   7.521  2.5996  0.5511  2.1234
   96MOL   H22147911   7.070   0.911   7.617 -1.0297 -2.2911  1.1877
   96MOL   H22247912   7.419   0.930   7.589 -0.3131 -0.9412 -0.6309
   96MOL   H22347913   7.575   0.955   7.779  0.1298  0.8397  2.5783
   96MOL   H22447914   7.492   0.926   0.016 -0.9160  2.8083  0.6179
   96MOL   H22547915   7.268   0.848   0.052  1.3777 -0.8959  0.2382
   96MOL   H22647916   7.107   0.830   7.867 -0.1975 -0.5887 -2.3702
   96MOL   C22747917   7.197   0.451   7.490  0.6838 -0.1073 -0.2273
   96MOL   C22847918   7.275   0.368   7.591  0.0169  0.2497 -0.7899
   96MOL   C22947919   7.268   0.431   7.731  0.5796 -0.2375 -0.1581
   96MOL   C23047920   7.416   0.367   7.537 -0.1586  0.8101  0.0851
   96MOL   O23147921   7.465   0.273   7.475 -0.5130 -0.1635  0.6824
   96MOL   O23247922   7.485   0.482   7.569 -0.4413 -0.0128  0.1084
   96MOL   C23347923   7.624   0.483   7.546  0.6717  0.6618  0.0315
   96MOL   C23447924   7.700   0.532   7.662  0.5027 -0.7834  0.2454
   96MOL   C23547925   7.844   0.528   7.660 -0.5565  0.1478  0.0180
   96MOL   C23647926   7.918   0.576   7.768 -0.5474  0.9864 -0.8347
   96MOL   C23747927   7.854   0.612   7.881  0.1413 -0.0065 -0.2253
   96MOL   C23847928   7.714   0.622   7.893  1.0236 -0.3156  0.0123
   96MOL   C23947929   7.641   0.576   7.786  0.7818 -0.3614 -0.6926
   96MOL   H24047930   7.249   0.541   7.458  0.5501 -0.0012 -0.1460
   96MOL   H24147931   7.192   0.398   7.396  0.4016 -0.4914  0.0051
   96MOL   H24247932   7.354   0.390   7.784 -0.9091 -0.3427  2.2058
   96MOL   H24347933   7.183   0.409   7.795  1.5366  1.4787  1.7280
   96MOL   H24447934   7.271   0.539   7.725 -0.4571 -0.3320 -3.5630
   96MOL   H24547935   7.670   0.390   7.512 -2.3030 -1.5550  1.8009
   96MOL   H24647936   7.641   0.547   7.459  0.1530  2.3212  1.1281
   96MOL   H24747937   7.890   0.506   7.565  0.0043  3.5007 -0.5436
   96MOL   H24847938   0.019   0.572   7.767 -0.3857  4.0537  0.8981
   96MOL   H24947939   7.913   0.621   7.970  0.9531 -1.6557 -0.5658
   96MOL   H25047940   7.664   0.646   7.985 -0.1520 -2.7907  0.0622
   96MOL   H25147941   7.533   0.573   7.789  0.7905 -2.2512 -1.5181
   96MOL   C25247942   7.215   0.216   7.590 -0.0501  0.1593 -0.8978
   96MOL   C25347943   7.280   0.088   7.659  0.7766  0.4323 -0.1363
   96MOL   C25447944   7.355   0.134   7.787 -0.0061  0.8597 -0.7023
   96MOL   C25547945   7.379   0.021   7.561  0.0296  0.7860  0.3611
   96MOL   O25647946   7.488   7.987   7.597  0.3559 -0.4237  0.4902
   96MOL   O25747947   7.334   0.012   7.434 -0.1619  0.6014  0.1851
   96MOL   C25847948   7.420   7.951   7.343 -0.0991 -0.2683  0.1935
   96MOL   C25947949   7.361   7.925   7.207  0.8132 -0.2996  0.2024
   96MOL   C26047950   7.444   7.874   7.111  0.3632 -0.2228 -0.2886
   96MOL   C26147951   7.403   7.880   6.976  0.2935  0.1671 -0.0617
   96MOL   C26247952   7.270   7.917   6.949 -0.2792  0.1338 -0.3753
   96MOL   C26347953   7.178   7.950   7.051 -0.0712  0.0764 -0.8695
   96MOL   C26447954   7.223   7.961   7.181 -0.3486  0.9723  0.4794
   96MOL   H26547955   7.182   0.186   7.491 -2.0708  0.2693 -0.2940
   96MOL   H26647956   7.125   0.239   7.648  1.7789  0.0308  2.1308
   96MOL   H26747957   7.290   0.189   7.855  2.4102 -0.2387  2.6132
   96MOL   H26847958   7.449   0.188   7.776  2.1901 -2.7657 -0.3290
   96MOL   H26947959   7.390   0.043   7.835  0.0709  1.8599  1.1684
   96MOL   H27047960   7.511   0.002   7.333  0.4996 -1.6101 -2.6959
   96MOL   H27147961   7.450   7.856   7.388  2.6053  0.7719  0.6721
   96MOL   H27247962   7.546   7.842   7.127 -0.0488 -0.7744  1.3131
   96MOL   H27347963   7.469   7.834   6.904 -1.1328  0.1107 -1.3606
   96MOL   H27447964   7.238   7.920   6.846  1.5848 -0.3919 -0.9883
   96MOL   H27547965   7.077   7.984   7.032 -0.4996 -0.6987 -0.0446
   96MOL   H27647966   7.158   8.005   7.255 -0.7171 -1.8804  1.8922
   96MOL   C27747967   7.155   0.004   7.696  0.1318 -0.4853 -0.5637
   96MOL   C27847968   7.156   7.856   7.733 -0.0697  0.0744  0.6704
   96MOL   C27947969   7.275   7.809   7.823  0.5716 -0.1195  0.2076
   96MOL   C28047970   7.149   7.771   7.601 -0.3722  0.9561 -0.3927
   96MOL   O28147971   7.043   7.777   7.542 -0.3060 -0.4388 -0.4230
   96MOL   O28247972   7.256   7.724   7.554 -0.3950  0.7065 -0.1182
   96MOL   C28347973   7.247   7.645   7.436  0.9419 -0.4722  0.0341
   96MOL   C28447974   7.182   7.509   7.468 -0.2069 -0.2908  0.2179
   96MOL   C28547975   7.112   7.447   7.365 -0.0560 -0.1904  0.2292
   96MOL   C28647976   7.059   7.319   7.378 -0.6285  0.0826  0.2093
   96MOL   C28747977   7.095   7.235   7.483  0.1906  0.0976  0.0317
   96MOL   C28847978   7.174   7.291   7.585 -0.0409  0.1786  0.0168
   96MOL   C28947979   7.213   7.431   7.583  0.8067 -0.4135  0.6353
   96MOL   H29047980   7.089   0.009   7.609 -1.1764  0.3300  0.4551
   96MOL   H29147981   7.101   0.066   7.768  0.5195 -1.6506  0.7539
   96MOL   H29247982   7.264   7.865   7.916 -0.5194 -0.1205  0.0847
   96MOL   H29347983   7.371   7.838   7.782 -1.0137  2.1761 -2.0941
   96MOL   H29447984   7.265   7.705   7.852 -1.3910  0.1792  0.6935
   96MOL   H29547985   7.197   7.705   7.360  0.1630 -1.5643 -0.3200
   96MOL   H29647986   7.350   7.630   7.404  1.8578  0.0189  2.5940
   96MOL   H29747987   7.109   7.497   7.269 -1.6290 -0.7502 -0.0259
   96MOL   H29847988   7.008   7.271   7.296  0.7666  1.8025 -1.7329
   96MOL   H29947989   7.063   7.132   7.482  1.6815 -0.3858  0.8419
   96MOL   H30047990   7.195   7.249   7.682 -0.5392  0.9223  0.4483
   96MOL   H30147991   7.269   7.477   7.663 -1.3891 -1.7546  3.0186
   96MOL   C30247992   7.019   7.829   7.807 -0.0933  0.2011 -0.1818
   96MOL   C30347993   6.988   7.849   7.968 -0.0823 -0.8481  0.8110
   96MOL   C30447994   6.838   7.837   7.977 -0.4333  1.1695 -0.1214
   96MOL   C30547995   7.043   7.986   0.003 -0.7764 -0.4346  0.1969
   96MOL   O30647996   7.135   7.993   0.083  0.2502 -0.7465  0.2075
   96MOL   O30747997   6.972   0.075   7.961 -0.1040 -0.8273 -0.1152
   96MOL   C30847998   7.007   0.213   7.974 -0.1910  0.0230  0.0678
   96MOL   C30947999   6.883   0.295   7.982 -0.0003  0.6050  0.0282
   96MOL   C31048000   6.879   0.421   7.926  0.7879  0.2152  0.1973
   96MOL   C31148001   6.765   0.504   7.940 -0.1424  0.0377 -0.1106
   96MOL   C31248002   6.653   0.459   0.010  0.1107  0.1828 -1.1628
   96MOL   C31348003   6.655   0.336   0.063  0.6252  0.1580 -0.1377
   96MOL   C31448004   6.767   0.248   0.047 -0.1369 -0.1272  0.8269
   96MOL   H31548005   6.979   7.731   7.780 -1.1641  0.4418  0.4786
   96MOL   H31648006   6.955   7.896   7.748  0.1614  1.2506  0.7301
   96MOL   H31748007   6.807   7.755   7.913 -0.6407  1.0992  0.0695
   96MOL   H31848008   6.790   7.933   7.960 -2.9593  0.0410  0.4220
   96MOL   H31948009   6.791   7.805   0.063  0.2723 -2.7482 -1.0433
   96MOL   H32048010   7.040   0.232   0.068  0.2218  0.2702 -0.1141
   96MOL   H32148011   7.083   0.239   7.900  0.1706 -2.2498 -0.3997
   96MOL   H32248012   6.947   0.466   7.856 -1.2113  0.6845 -1.4804
   96MOL   H32348013   6.774   0.600   7.891  1.1819  1.5536  2.9766
   96MOL   H32448014   6.571   0.526   0.025  0.7759  0.7188  0.0796
   96MOL   H32548015   6.575   0.289   0.119  1.0376 -1.1942 -0.6606
   96MOL   H32648016   6.770   0.148   0.089  0.3696 -1.4679 -2.2399
   96MOL   C32748017   7.048   7.726   0.050  0.0571 -0.2941 -0.3764
   96MOL   C32848018   7.056   7.722   0.215  0.5058  0.2939  0.3099
   96MOL   C32948019   6.949   7.816   0.274  0.5332 -0.4948  0.5669
   96MOL   C33048020   7.192   7.771   0.266  0.6872 -0.9179 -0.1130
   96MOL   O33148021   7.289   7.770   0.190 -0.2106 -0.5465  0.0524
   96MOL   O33248022   7.204   7.813   0.392  0.1689  0.6781 -0.2894
   96MOL   C33348023   7.319   7.891   0.430 -0.4148 -0.2573  0.0592
   96MOL   C33448024   7.332   7.942   0.574  0.1531 -0.3871 -0.3929
   96MOL   C33548025   7.450   7.999   0.614 -0.4682 -0.1832  0.1608
   96MOL   C33648026   7.457   0.042   0.746  0.1179  0.0173  0.9054
   96MOL   C33748027   7.350   0.048   0.834 -0.5543  0.2626 -0.5491
   96MOL   C33848028   7.229   7.997   0.789 -0.4680  0.1096  0.1688
   96MOL   C33948029   7.218   7.936   0.659 -0.3252  0.7235 -0.3438
   96MOL   H34048030   7.154   7.711   0.027  0.3936 -3.6788  2.7753
   96MOL   H34148031   6.992   7.640   0.013  1.5955 -1.4858 -0.0076
   96MOL   H34248032   6.941   7.921   0.246  2.2211 -0.9197 -1.6544
   96MOL   H34348033   6.949   7.823   0.383  1.0026  0.0840  0.5339
   96MOL   H34448034   6.851   7.774   0.252  1.2534 -1.8340 -0.1302
   96MOL   H34548035   7.413   7.839   0.415  0.1130  0.7751 -0.2191
   96MOL   H34648036   7.327   7.982   0.371  0.2926  0.6613  1.5567
   96MOL   H34748037   7.541   7.995   0.557 -0.0129 -0.1478  0.8846
   96MOL   H34848038   7.551   0.086   0.779 -0.9248  2.0622  1.2497
   96MOL   H34948039   7.363   0.091   0.933  1.2121  0.6549 -0.9428
   96MOL   H35048040   7.144   8.001   0.855  1.0501  1.0294  2.1073
   96MOL   H35148041   7.123   7.898   0.625 -0.6271  1.6104 -0.4949
   96MOL   C35248042   7.028   7.583   0.288  0.1162 -0.5919 -0.0420
   96MOL   C35348043   7.080   7.442   0.232  0.2410 -0.5027  0.1072
   96MOL   C35448044   7.227   7.457   0.191 -0.5341  0.2975 -0.0752
   96MOL   C35548045   6.989   7.397   0.123  0.2682 -0.7773 -0.3295
   96MOL   O35648046   7.033   7.344   0.023 -0.4273  0.4345 -0.3814
   96MOL   O35748047   6.857   7.415   0.151 -0.4041  0.5005 -0.2090
   96MOL   C35848048   6.760   7.389   0.049 -0.3375 -0.1742  0.1946
   96MOL   C35948049   6.642   7.481   0.049 -0.1909 -0.0585 -0.4433
   96MOL   C36048050   6.551   7.480   7.942 -0.0823  0.2037 -0.7844
   96MOL   C36148051   6.436   7.567   7.937  0.0709  0.1060 -0.2107
   96MOL   C36248052   6.406   7.650   0.047 -0.6499 -0.2134  0.6136
   96MOL   C36348053   6.492   7.643   0.156 -0.2963  0.0648 -0.2692
   96MOL   C36448054   6.609   7.568   0.155  0.1898 -0.5122  0.9152
   96MOL   H36548055   6.923   7.564   0.314 -0.3788  0.4643 -1.2345
   96MOL   H36648056   7.072   7.591   0.388  1.7335 -2.8202 -0.5432
   96MOL   H36748057   7.262   7.363   0.149 -0.3551  0.3689 -0.0839
   96MOL   H36848058   7.291   7.490   0.273 -0.8003 -0.0360  0.2704
   96MOL   H36948059   7.246   7.534   0.117 -3.4207  0.9605 -0.1899
   96MOL   H37048060   6.807   7.407   7.960 -0.4942 -1.6960 -0.1746
   96MOL   H37148061   6.733   7.284   0.056  0.8026 -0.5761 -1.2760
   96MOL   H37248062   6.588   7.422   7.859 -1.2238 -0.5694 -0.7534
   96MOL   H37348063   6.367   7.568   7.854  1.6512 -0.2668 -1.5627
   96MOL   H37448064   6.313   7.706   0.050  0.0740  1.0785 -0.5445
   96MOL   H37548065   6.471   7.707   0.240  0.4427 -1.0562  0.7970
   96MOL   H37648066   6.681   7.583   0.234  0.3038  3.5049  0.1527
   96MOL   C37748067   7.077   7.338   0.354 -0.7087 -0.5457  0.3229
   96MOL   C37848068   7.093   7.182   0.351  0.1164 -0.3784 -0.2380
   96MOL   C37948069   7.218   7.137   0.273  0.3878 -0.4362  0.0056
   96MOL   C38048070   6.963   7.115   0.304  0.2107  0.2706  0.6842
   96MOL   O38148071   6.855   7.177   0.299 -0.0702  0.3812  0.3598
   96MOL   O38248072   6.972   6.984   0.272 -0.1982 -0.7665  0.2611
   96MOL   C38348073   6.869   6.916   0.214 -0.3542  0.1079 -0.2417
   96MOL   C38448074   6.774   6.834   0.297  0.1016 -1.0455 -0.0906
   96MOL   C38548075   6.653   6.792   0.244 -0.6911 -0.5735 -0.0070
   96MOL   C38648076   6.561   6.710   0.319  0.2259  0.4209 -0.3005
   96MOL   C38748077   6.598   6.671   0.447  0.2410  0.0787 -0.4349
   96MOL   C38848078   6.719   6.716   0.503 -0.4132 -0.1301  0.1702
   96MOL   C38948079   6.808   6.791   0.428 -0.0982 -0.4676  0.0867
   96MOL   H39048080   6.984   7.356   0.406  0.5502  0.4966  2.2866
   96MOL   H39148081   7.156   7.377   0.418 -0.0597 -0.1463 -0.7069
   96MOL   H39248082   7.245   7.032   0.267 -0.9395 -0.7669 -0.2472
   96MOL   H39348083   7.311   7.189   0.299 -0.7031  2.5881 -1.8918
   96MOL   H39448084   7.199   7.155   0.167  0.8904  2.0849  0.3035
   96MOL   H39548085   6.815   6.991   0.157 -1.0584 -0.6057 -0.5174
   96MOL   H39648086   6.901   6.852   0.132 -2.1291 -0.9267 -0.1596
   96MOL   H39748087   6.628   6.837   0.149 -1.5814  1.1227  0.9957
   96MOL   H39848088   6.464   6.691   0.276  0.6629 -1.0383 -0.6890
   96MOL   H39948089   6.519   6.631   0.509  0.6253  1.4492  1.0014
   96MOL   H40048090   6.737   6.700   0.608  2.5657  1.9442  0.0374
   96MOL   H40148091   6.889   6.844   0.476 -0.5782  0.6300 -0.2781
   96MOL   C40248092   7.119   7.127   0.497  0.4841  0.1329  0.2005
   96MOL   C40348093   7.025   7.175   0.624  0.8421  0.7844  0.5032
   96MOL   C40448094   6.871   7.149   0.604  0.4836  0.9150  0.3513
   96MOL   C40548095   7.052   7.326   0.667  0.3472  0.1167 -0.1344
   96MOL   O40648096   6.959   7.403   0.690  0.0546  0.2659  0.2180
   96MOL   O40748097   7.179   7.352   0.688 -0.0606 -0.3091  0.2208
   96MOL   C40848098   7.222   7.486   0.711  0.0826  0.6733 -0.3425
   96MOL   C40948099   7.366   7.514   0.666  0.1600 -0.4395  0.2737
   96MOL   C41048100   7.435   7.427   0.585  0.1267 -0.3030  0.2127
   96MOL   C41148101   7.567   7.449   0.539 -0.1197  0.4967 -0.2423
   96MOL   C41248102   7.622   7.568   0.573 -0.0442  0.6343  0.5573
   96MOL   C41348103   7.555   7.658   0.651  0.6701  0.1242  0.1329
   96MOL   C41448104   7.424   7.635   0.699 -0.2093  0.3129 -0.4213
   96MOL   H41548105   7.225   7.144   0.518  0.6870 -0.8115 -0.0273
   96MOL   H41648106   7.109   7.019   0.500 -1.5655  0.3461  1.7534
   96MOL   H41748107   6.855   7.051   0.560  0.5659  0.8242  0.5256
   96MOL   H41848108   6.845   7.230   0.535  3.6264  0.4162 -1.5012
   96MOL   H41948109   6.809   7.162   0.693 -3.7779  0.1709 -2.3538
   96MOL   H42048110   7.163   7.571   0.678  0.3567  0.0909 -2.3792
   96MOL   H42148111   7.230   7.490   0.820 -0.2770 -0.3974 -0.2699
   96MOL   H42248112   7.386   7.338   0.549 -1.1625  0.4805  0.0128
   96MOL   H42348113   7.613   7.382   0.467  0.2896  1.8410 -1.2432
   96MOL   H42448114   7.721   7.576   0.531 -1.4660 -1.5125 -3.6058
   96MOL   H42548115   7.606   7.750   0.675  0.6352 -0.3446  2.0669
   96MOL   H42648116   7.378   7.709   0.763  1.8255 -0.3840  1.9380
   96MOL   C42748117   7.062   7.074   0.742 -0.0234  0.3357 -0.4134
   96MOL   C42848118   7.046   7.094   0.898  0.5103 -0.1269 -1.4307
   96MOL   C42948119   7.146   7.204   0.959  0.1954  0.5210 -0.0836
   96MOL   C43048120   7.084   6.954   0.956 -0.0979  0.4693  0.1830
   96MOL   O43148121   7.191   6.932   1.017 -0.7553 -0.4477 -0.2146
   96MOL   O43248122   6.999   6.852   0.932 -0.9384 -0.5075 -0.3567
   96MOL   C43348123   7.058   6.720   0.928 -0.0141 -0.4003  0.3195
   96MOL   C43448124   6.996   6.621   1.025 -0.0017  0.1958 -0.7277
   96MOL   C43548125   6.934   6.663   1.139  0.2937  0.8460  0.3123
   96MOL   C43648126   6.852   6.569   1.212 -0.4982  0.2980 -0.4390
   96MOL   C43748127   6.858   6.434   1.183  0.8243  0.3698  0.6144
   96MOL   C43848128   6.943   6.390   1.076  0.0435 -0.0958 -0.2290
   96MOL   C43948129   7.004   6.487   0.993  0.5124  0.1672  0.2843
   96MOL   H44048130   7.170   7.078   0.729 -0.0645  0.1088 -0.8297
   96MOL   H44148131   7.037   6.973   0.711  3.1603 -1.2224  1.8220
   96MOL   H44248132   7.246   7.186   0.921  0.0964 -2.3019  0.8226
   96MOL   H44348133   7.155   7.189   1.067  1.3547 -0.0761 -0.2552
   96MOL   H44448134   7.121   7.310   0.955  1.3934  0.8222  0.2318
   96MOL   H44548135   7.052   6.681   0.827 -4.0819  1.0450 -0.0759
   96MOL   H44648136   7.163   6.718   0.959  0.7230  1.1238 -1.9235
   96MOL   H44748137   6.928   6.769   1.163 -1.2330  0.7330  0.5225
   96MOL   H44848138   6.795   6.599   1.300  2.1509  1.5975  0.8982
   96MOL   H44948139   6.799   6.368   1.243 -2.1749  2.5063  0.1085
   96MOL   H45048140   6.952   6.283   1.058  1.0839 -0.2172  0.9282
   96MOL   H45148141   7.062   6.451   0.909 -0.0353  0.1618 -0.0955
   96MOL   C45248142   6.893   7.130   0.931 -0.7692  0.1154  0.1014
   96MOL   C45348143   6.833   7.157   1.076 -0.0879  0.0671  0.4491
   96MOL   C45448144   6.684   7.200   1.057  0.4503 -0.6741 -0.4379
   96MOL   C45548145   6.902   7.275   1.141 -0.2417 -0.7001  0.2014
   96MOL   O45648146   6.975   7.265   1.240 -0.4280 -0.6567 -0.4193
   96MOL   O45748147   6.874   7.392   1.079 -0.5174 -0.0662 -0.1831
   96MOL   C45848148   6.897   7.519   1.139  0.4566 -0.6874  0.4943
   96MOL   C45948149   6.877   7.624   1.037 -0.4763  0.2459  1.1946
   96MOL   C46048150   6.952   7.629   0.916  0.1501 -0.1216 -0.4978
   96MOL   C46148151   6.927   7.735   0.826 -0.5128  0.0302  0.1474
   96MOL   C46248152   6.834   7.836   0.857 -0.4775  0.1975  0.2185
   96MOL   C46348153   6.751   7.825   0.968 -0.7416  0.2137  0.8197
   96MOL   C46448154   6.771   7.721   1.061 -0.0115  0.2290  0.1850
   96MOL   H46548155   6.834   7.053   0.882 -1.8376 -0.4743  2.2365
   96MOL   H46648156   6.869   7.224   0.882  1.2127  0.0777 -0.9897
   96MOL   H46748157   6.671   7.267   0.972  0.6637  0.7505  0.6425
   96MOL   H46848158   6.637   7.242   1.146  0.7624 -1.5055  0.1310
   96MOL   H46948159   6.627   7.110   1.029 -0.2575  0.0471 -1.3411
   96MOL   H47048160   6.820   7.522   1.216 -1.4716 -1.6090 -1.3524
   96MOL   H47148161   6.991   7.537   1.191  0.0249 -1.2064  1.4799
   96MOL   H47248162   7.021   7.550   0.891  1.4654  0.2310  1.9514
   96MOL   H47348163   6.991   7.740   0.739 -0.4113 -0.2575  0.2064
   96MOL   H47448164   6.817   7.919   0.789  0.3939 -1.0594 -1.5787
   96MOL   H47548165   6.681   7.905   0.987 -0.4799  0.9569 -1.1595
   96MOL   H47648166   6.718   7.707   1.154 -0.3783  0.4949  0.0174
   96MOL   C47748167   6.853   7.030   1.161 -0.5866  0.4321 -0.1479
   96MOL   C47848168   6.769   7.027   1.296 -0.1618  0.3324 -0.3037
   96MOL   C47948169   6.841   6.956   1.409  0.5884  0.5476 -0.1621
   96MOL   C48048170   6.628   6.959   1.276  0.1079 -0.2416  0.1808
   96MOL   O48148171   6.616   6.835   1.264  0.1095  0.3792  0.0559
   96MOL   O48248172   6.533   7.052   1.279  0.4124  0.2722  0.5467
   96MOL   C48348173   6.398   7.009   1.287 -0.2882 -0.1534  0.0151
   96MOL   C48448174   6.334   7.080   1.408 -0.0706 -0.2849  0.1546
   96MOL   C48548175   6.371   7.036   1.537 -0.1899 -0.7329 -0.6258
   96MOL   C48648176   6.322   7.088   1.651  0.4053 -0.1134 -0.8753
   96MOL   C48748177   6.214   7.177   1.647  0.4485  0.4460 -0.2825
   96MOL   C48848178   6.177   7.232   1.517  0.0566 -0.5064  0.3894
   96MOL   C48948179   6.234   7.184   1.399 -0.7998 -0.1445 -0.8894
   96MOL   H49048180   6.960   7.022   1.180 -0.3420 -0.2064 -1.7387
   96MOL   H49148181   6.823   6.943   1.104 -2.7756  1.7379 -1.0447
   96MOL   H49248182   6.875   6.858   1.375  0.0693  0.2016  0.3256
   96MOL   H49348183   6.779   6.951   1.498 -0.5017  3.9335 -0.6257
   96MOL   H49448184   6.932   7.007   1.441  1.8428 -0.5479 -1.9291
   96MOL   H49548185   6.354   7.019   1.188  1.5739  1.4328 -0.6751
   96MOL   H49648186   6.382   6.905   1.313 -0.6116  0.3678  1.9678
   96MOL   H49748187   6.439   6.954   1.555 -2.6852 -2.2395  2.3737
   96MOL   H49848188   6.361   7.061   1.748  0.0387 -0.2550 -0.7696
   96MOL   H49948189   6.159   7.209   1.734 -0.2467  0.9092 -0.8830
   96MOL   H50048190   6.101   7.309   1.521  1.1825  0.6015  0.7252
   96MOL   H50148191   6.201   7.229   1.306  0.6953  1.9259 -0.4596
   96MOL   H50248192   6.753   7.129   1.331 -1.5942  0.4406 -1.2379
   97MOL     C148193   2.498   4.149   2.625  0.5088  0.8434 -0.4388
   97MOL     C248194   2.478   3.995   2.644 -0.6802  0.1467 -0.0475
   97MOL     C348195   2.332   3.966   2.670 -0.0381 -0.2811  0.0549
   97MOL     C448196   2.571   3.959   2.762  0.5088 -0.1389  0.0022
   97MOL     O548197   2.523   3.905   2.861  0.1483 -0.2968 -0.8668
   97MOL     O648198   2.703   3.980   2.740 -0.3656  0.0307  0.3422
   97MOL     C748199   2.794   3.959   2.844 -0.6360 -0.5259  0.0457
   97MOL     C848200   2.895   4.082   2.858 -0.4680  0.1517  0.0304
   97MOL     C948201   3.035   4.059   2.847 -0.1203 -0.2206  0.4834
   97MOL    C1048202   3.127   4.158   2.880 -0.7007  0.3480  0.1039
   97MOL    C1148203   3.077   4.286   2.914 -0.1412 -0.3360  1.1508
   97MOL    C1248204   2.934   4.309   2.930  0.3912 -0.6200 -0.2970
   97MOL    C1348205   2.843   4.208   2.904 -0.3086  0.1083  0.4303
   97MOL    H1448206   2.447   4.193   2.539 -1.2977 -0.2980  0.0123
   97MOL    H1548207   2.448   4.209   2.701 -1.6994  0.9990 -1.9714
   97MOL    H1648208   2.312   4.020   2.762  0.1116 -0.7282  0.3486
   97MOL    H1748209   2.307   3.861   2.684 -2.9121  0.0313 -2.1177
   97MOL    H1848210   2.273   4.006   2.587  0.7427  0.8964  0.0585
   97MOL    H1948211   2.750   3.928   2.939  0.2833  1.3988  1.1086
   97MOL    H2048212   2.856   3.875   2.811  0.7839  0.0825  1.1154
   97MOL    H2148213   3.072   3.959   2.826  2.9008  0.9575 -0.0031
   97MOL    H2248214   3.234   4.148   2.886 -0.6682  1.3384  1.3806
   97MOL    H2348215   3.153   4.361   2.933  0.0452  0.4090 -2.1139
   97MOL    H2448216   2.892   4.400   2.970 -0.0058 -0.4250 -1.1557
   97MOL    H2548217   2.739   4.231   2.922 -0.5408 -1.3063  1.0070
   97MOL    H2648218   2.603   4.173   2.612  1.3404 -1.2799  2.0300
   97MOL    C2748219   2.531   3.936   2.500 -0.1138  0.0230 -0.0519
   97MOL    C2848220   2.504   3.790   2.452 -0.4046  1.2489 -0.4688
   97MOL    C2948221   2.571   3.788   2.308  0.2902 -0.1111 -0.1167
   97MOL    C3048222   2.352   3.766   2.426 -0.4541 -0.5977 -0.8904
   97MOL    O3148223   2.277   3.680   2.481 -0.1752 -0.6114  0.1109
   97MOL    O3248224   2.303   3.848   2.333  0.4390  0.3389 -0.3347
   97MOL    C3348225   2.160   3.844   2.306 -0.0755  0.1647  0.2903
   97MOL    C3448226   2.107   3.960   2.223  0.2301  1.0315  0.3944
   97MOL    C3548227   1.973   3.962   2.177 -0.4567 -0.0883  0.4102
   97MOL    C3648228   1.934   4.069   2.089  0.2437 -1.4894  0.1454
   97MOL    C3748229   2.021   4.169   2.055 -0.3940  0.2294 -0.4189
   97MOL    C3848230   2.149   4.168   2.112 -0.5003  0.4636  0.4976
   97MOL    C3948231   2.186   4.069   2.195 -0.8172  0.4354 -0.8071
   97MOL    H4048232   2.638   3.953   2.506 -0.6023  3.8581 -0.8648
   97MOL    H4148233   2.475   4.005   2.437 -0.3417  1.2020  1.4058
   97MOL    H4248234   2.678   3.807   2.314  0.3639 -0.6734  0.4787
   97MOL    H4348235   2.525   3.861   2.242 -0.4650 -1.3052 -0.9241
   97MOL    H4448236   2.569   3.691   2.258 -0.7691 -0.1042 -0.1050
   97MOL    H4548237   2.142   3.751   2.252  2.0153  1.2729 -2.4351
   97MOL    H4648238   2.098   3.838   2.395  0.3979  0.2550  0.6249
   97MOL    H4748239   1.902   3.882   2.186  0.4696 -1.0966 -0.9899
   97MOL    H4848240   1.830   4.074   2.060  0.2059 -1.3117  0.3144
   97MOL    H4948241   1.988   4.255   1.997  1.7116  1.2423 -0.1552
   97MOL    H5048242   2.212   4.256   2.107  2.0936 -1.2574  1.8832
   97MOL    H5148243   2.284   4.077   2.240 -0.3918 -0.3464 -1.5931
   97MOL    C5248244   2.576   3.692   2.559  0.0784 -0.1393 -0.2515
   97MOL    C5348245   2.625   3.546   2.515  0.1531  0.0944  0.0610
   97MOL    C5448246   2.520   3.461   2.424 -0.0247  0.0181  0.5467
   97MOL    C5548247   2.650   3.462   2.642 -0.7456  0.1045 -0.1741
   97MOL    O5648248   2.603   3.350   2.648 -0.6145 -0.4046  0.2305
   97MOL    O5748249   2.728   3.522   2.738  0.6888  0.6093  0.4274
   97MOL    C5848250   2.744   3.456   2.861 -0.4304 -0.0047  0.2253
   97MOL    C5948251   2.826   3.542   2.958  0.0344  0.4562 -0.4942
   97MOL    C6048252   2.958   3.496   2.986  0.2877 -0.4812 -0.3790
   97MOL    C6148253   3.042   3.588   3.047  0.5080  0.5206  0.0297
   97MOL    C6248254   2.993   3.708   3.109 -0.7336 -0.3904  0.1797
   97MOL    C6348255   2.858   3.744   3.099 -0.4757  0.1220 -0.5500
   97MOL    C6448256   2.777   3.662   3.018  0.3539  0.4519 -0.7526
   97MOL    H6548257   2.509   3.678   2.644  1.2203 -1.9070  0.3877
   97MOL    H6648258   2.667   3.739   2.597 -0.1556  0.3948 -0.3537
   97MOL    H6748259   2.552   3.360   2.400 -0.5547  0.0457 -0.2955
   97MOL    H6848260   2.498   3.504   2.326  2.7901 -2.1521 -1.1198
   97MOL    H6948261   2.425   3.455   2.477  0.0634  0.0965  0.7138
   97MOL    H7048262   2.649   3.436   2.911 -0.4087  2.1309  1.1647
   97MOL    H7148263   2.802   3.367   2.838  0.7831  0.7728  0.2570
   97MOL    H7248264   2.999   3.404   2.947  1.8156 -0.3009  0.7439
   97MOL    H7348265   3.144   3.558   3.067  0.3637  0.1854  0.2759
   97MOL    H7448266   3.059   3.768   3.169  0.4382 -1.1152 -0.3606
   97MOL    H7548267   2.830   3.840   3.140 -0.5502 -0.1505  0.0469
   97MOL    H7648268   2.679   3.699   2.992 -0.9782 -1.0270  1.9121
   97MOL    C7748269   2.763   3.567   2.435 -0.1586 -0.2150 -0.3853
   97MOL    C7848270   2.876   3.455   2.409  0.1751 -0.1354 -0.3042
   97MOL    C7948271   2.954   3.503   2.284 -0.1820 -0.2927  0.2488
   97MOL    C8048272   2.808   3.324   2.376 -0.3766 -0.3988 -0.2448
   97MOL    O8148273   2.800   3.231   2.455 -0.3386 -0.3149  0.5036
   97MOL    O8248274   2.757   3.323   2.249  0.4149  0.5717  0.0975
   97MOL    C8348275   2.722   3.197   2.194  0.3134  0.5691  0.1390
   97MOL    C8448276   2.584   3.149   2.234 -0.3438 -0.2026  0.6783
   97MOL    C8548277   2.476   3.225   2.187 -0.5223  0.0885 -0.2127
   97MOL    C8648278   2.342   3.189   2.220 -0.4342  0.0018  0.2616
   97MOL    C8748279   2.320   3.079   2.308  0.3913 -1.1174 -0.2089
   97MOL    C8848280   2.424   3.005   2.352 -0.4036 -0.1323  0.2857
   97MOL    C8948281   2.560   3.039   2.319 -0.1710  0.0158  0.0133
   97MOL    H9048282   2.808   3.664   2.458 -0.3425 -0.0251 -0.8266
   97MOL    H9148283   2.733   3.585   2.332  0.9072 -1.6359 -0.9548
   97MOL    H9248284   2.887   3.510   2.198 -0.3698 -1.3296  0.3081
   97MOL    H9348285   3.028   3.434   2.242  2.7257  1.5472  2.1558
   97MOL    H9448286   2.998   3.602   2.299 -0.4351  0.1708 -1.8701
   97MOL    H9548287   2.720   3.207   2.086  1.7517  1.4696  0.1941
   97MOL    H9648288   2.801   3.126   2.219  1.1802  1.5174  0.1062
   97MOL    H9748289   2.490   3.309   2.120  1.9031  0.2567  0.4487
   97MOL    H9848290   2.260   3.244   2.175 -1.5510 -0.9439  1.1008
   97MOL    H9948291   2.224   3.045   2.344 -0.0581  0.6540  0.3051
   97MOL   H10048292   2.408   2.915   2.409  3.3874 -0.7353  0.5084
   97MOL   H10148293   2.642   2.976   2.351 -1.9187 -3.5631 -2.2823
   97MOL   C10248294   2.962   3.446   2.542  0.0234 -0.0807 -0.2535
   97MOL   C10348295   3.112   3.393   2.548  0.0533  0.0072 -0.2406
   97MOL   C10448296   3.167   3.421   2.692 -0.2378 -0.3288 -0.0354
   97MOL   C10548297   3.201   3.477   2.452  0.1803  0.2817 -0.5589
   97MOL   O10648298   3.267   3.428   2.362 -0.0117 -0.6502  0.0934
   97MOL   O10748299   3.192   3.607   2.473  0.1211 -0.0576  1.0192
   97MOL   C10848300   3.257   3.698   2.389  0.1361  0.1143 -0.1084
   97MOL   C10948301   3.230   3.847   2.427  0.1080  0.0700 -0.0933
   97MOL   C11048302   3.331   3.932   2.461  0.0692 -0.4794  0.3244
   97MOL   C11148303   3.309   4.062   2.507 -0.2929 -0.2624 -1.0163
   97MOL   C11248304   3.184   4.109   2.518  0.2891 -0.2311  0.1538
   97MOL   C11348305   3.077   4.025   2.468  0.1326 -0.1659 -0.4722
   97MOL   C11448306   3.098   3.890   2.432 -0.2452  0.0069 -0.3891
   97MOL   H11548307   2.908   3.379   2.610  1.1940 -2.3188 -1.4871
   97MOL   H11648308   2.947   3.543   2.588 -0.3270 -1.3193  2.3346
   97MOL   H11748309   3.096   3.385   2.768 -0.2234  1.4200  0.8272
   97MOL   H11848310   3.172   3.529   2.707 -0.6873 -0.3454  0.2554
   97MOL   H11948311   3.264   3.373   2.703 -0.4892 -1.2375 -1.7436
   97MOL   H12048312   3.364   3.680   2.392  0.0043 -1.0729 -1.6752
   97MOL   H12148313   3.214   3.677   2.291  0.7072  3.1456 -1.0587
   97MOL   H12248314   3.433   3.897   2.470  0.2676 -0.9371 -3.1451
   97MOL   H12348315   3.388   4.126   2.543 -2.3564  1.0862  1.2946
   97MOL   H12448316   3.171   4.211   2.548 -1.5323  0.1615 -1.7930
   97MOL   H12548317   2.974   4.053   2.451  0.1515  0.5603  0.5739
   97MOL   H12648318   3.013   3.833   2.397  0.2337  0.2165 -1.9764
   97MOL   C12748319   3.107   3.237   2.523  0.3735 -0.3544  0.1210
   97MOL   C12848320   3.213   3.128   2.557  0.1683 -0.4074  0.1366
   97MOL   C12948321   3.354   3.172   2.513 -1.0154 -0.3249  0.8831
   97MOL   C13048322   3.158   3.005   2.465 -0.7116 -0.4534  0.4968
   97MOL   O13148323   3.225   2.957   2.375 -0.4668 -0.4198 -0.2052
   97MOL   O13248324   3.035   2.965   2.501 -0.7633  0.4045  0.7476
   97MOL   C13348325   2.983   2.840   2.457 -0.4536  0.7810  0.0331
   97MOL   C13448326   3.032   2.719   2.540  0.4064  0.0430 -0.6988
   97MOL   C13548327   3.143   2.648   2.491 -0.3927 -0.1749 -0.2356
   97MOL   C13648328   3.201   2.538   2.552  0.1063  0.5942  0.0089
   97MOL   C13748329   3.132   2.482   2.666  0.5812 -0.0717 -0.0333
   97MOL   C13848330   3.026   2.553   2.725  0.6220 -0.0316  1.0561
   97MOL   C13948331   2.971   2.671   2.662 -0.7579  0.7457  0.2308
   97MOL   H14048332   3.088   3.226   2.417  1.6188 -2.0308  0.0561
   97MOL   H14148333   3.013   3.205   2.568  0.2048 -0.3528 -0.2340
   97MOL   H14248334   3.385   3.267   2.557 -0.3154  0.0540 -0.3984
   97MOL   H14348335   3.358   3.192   2.406  0.6644  0.2163  1.0370
   97MOL   H14448336   3.430   3.095   2.524 -0.6938 -0.3788 -1.4885
   97MOL   H14548337   2.875   2.856   2.445 -0.5806  1.6013  2.0416
   97MOL   H14648338   3.018   2.816   2.357  2.3870  1.7990  0.7347
   97MOL   H14748339   3.200   2.684   2.406 -0.3953  0.3553 -0.0125
   97MOL   H14848340   3.292   2.489   2.520 -0.4633 -0.9650  0.7157
   97MOL   H14948341   3.161   2.387   2.708 -1.2848 -0.5190  0.2957
   97MOL   H15048342   2.963   2.510   2.801  0.4513  0.9523  1.4815
   97MOL   H15148343   2.878   2.710   2.701 -1.1926 -0.4877  0.4677
   97MOL   C15248344   3.200   3.095   2.710 -0.4326  0.3245 -0.4121
   97MOL   C15348345   3.317   3.042   2.798 -0.2386  0.3222  0.3661
   97MOL   C15448346   3.433   3.141   2.800 -0.4010 -0.3883 -0.0334
   97MOL   C15548347   3.365   2.900   2.753  0.0843 -0.2863 -0.0360
   97MOL   O15648348   3.325   2.841   2.658  0.5104  0.1069  0.3398
   97MOL   O15748349   3.455   2.850   2.838 -0.2772 -0.2512 -0.7378
   97MOL   C15848350   3.499   2.716   2.825 -1.1701  1.0968  0.4275
   97MOL   C15948351   3.634   2.695   2.891 -0.0235 -0.4667 -0.1460
   97MOL   C16048352   3.752   2.735   2.828 -0.3531 -0.2730  0.1705
   97MOL   C16148353   3.873   2.730   2.903  0.0097 -0.5530 -0.3374
   97MOL   C16248354   3.875   2.691   3.042 -0.2016  0.2166  0.0143
   97MOL   C16348355   3.757   2.646   3.109 -0.5431  1.3566  0.2578
   97MOL   C16448356   3.638   2.650   3.026 -0.3632 -0.4970  0.4270
   97MOL   H16548357   3.110   3.033   2.719  0.3976 -1.0788 -1.6634
   97MOL   H16648358   3.157   3.179   2.765  1.4763  0.0723  1.5344
   97MOL   H16748359   3.398   3.241   2.772 -1.0641 -0.5652  0.1482
   97MOL   H16848360   3.514   3.099   2.740  1.5477  1.3041  1.3276
   97MOL   H16948361   3.476   3.148   2.900 -1.4471  0.4082  0.3737
   97MOL   H17048362   3.428   2.644   2.864 -0.1326 -0.8365 -1.1242
   97MOL   H17148363   3.510   2.684   2.721  0.4026 -1.0582  1.2138
   97MOL   H17248364   3.755   2.777   2.728 -0.9443 -0.0730  0.2362
   97MOL   H17348365   3.969   2.761   2.865 -0.0306 -0.4886 -0.3875
   97MOL   H17448366   3.972   2.696   3.090  0.2074  1.0715 -0.8705
   97MOL   H17548367   3.760   2.622   3.214  0.1274  1.8368  0.3565
   97MOL   H17648368   3.543   2.630   3.074  0.3393 -1.7378  1.3034
   97MOL   C17748369   3.281   3.025   2.949  0.1381  0.5491 -0.2265
   97MOL   C17848370   3.157   2.945   3.002 -0.1281 -0.0354  1.1434
   97MOL   C17948371   3.125   2.808   2.929 -0.1945 -0.1156  0.0931
   97MOL   C18048372   3.040   3.044   2.995  0.1146 -0.1572  0.1882
   97MOL   O18148373   3.050   3.167   2.993 -0.3099 -0.6504  0.1922
   97MOL   O18248374   2.921   2.976   2.998  0.2149 -0.2588  0.5226
   97MOL   C18348375   2.798   3.046   3.022 -0.2549 -0.0162 -0.4026
   97MOL   C18448376   2.691   3.000   2.923  0.2406  0.4928 -0.3455
   97MOL   C18548377   2.711   3.023   2.784 -0.3264 -0.5082  0.3881
   97MOL   C18648378   2.615   2.980   2.691 -0.8197 -0.0240  0.4794
   97MOL   C18748379   2.492   2.933   2.743 -0.1377  0.3964  0.1499
   97MOL   C18848380   2.473   2.901   2.883  0.1290 -0.0928 -0.0457
   97MOL   C18948381   2.571   2.934   2.979 -0.6204 -0.1053 -0.1147
   97MOL   H19048382   3.281   3.125   2.991 -0.2775  0.6703 -0.5187
   97MOL   H19148383   3.364   2.990   3.011 -0.8318  0.3527  0.9583
   97MOL   H19248384   3.044   2.749   2.972 -2.9667  2.3407 -1.5539
   97MOL   H19348385   3.209   2.740   2.914  0.5405  1.4565 -3.6654
   97MOL   H19448386   3.082   2.828   2.831 -0.6188  3.0752  0.8642
   97MOL   H19548387   2.789   3.044   3.130  1.6874  2.8811 -0.1141
   97MOL   H19648388   2.821   3.149   2.992 -0.7486  0.0969 -0.3847
   97MOL   H19748389   2.801   3.076   2.758 -1.1782  2.3256  3.0119
   97MOL   H19848390   2.623   3.008   2.587 -2.6633  0.3955  0.4435
   97MOL   H19948391   2.406   2.915   2.680 -0.6363  0.2080  0.8816
   97MOL   H20048392   2.383   2.854   2.921 -0.3274  0.2353 -0.7059
   97MOL   H20148393   2.564   2.916   3.085  0.4954  0.5629  0.0896
   97MOL   C20248394   3.185   2.929   3.153  0.2383  0.4307 -0.3090
   97MOL   C20348395   3.088   2.896   3.265  0.3950 -0.2444  0.0162
   97MOL   C20448396   2.993   2.771   3.228 -0.3409 -0.8355  0.5742
   97MOL   C20548397   2.998   3.013   3.315  0.0877 -0.1610  0.1606
   97MOL   O20648398   2.880   2.997   3.352 -0.3883 -0.3537  0.3124
   97MOL   O20748399   3.054   3.135   3.310  0.4299  0.3720 -0.2337
   97MOL   C20848400   2.973   3.253   3.343  0.5209 -0.6025  0.5949
   97MOL   C20948401   3.057   3.381   3.361 -0.1481 -0.6006 -0.7247
   97MOL   C21048402   3.189   3.384   3.331  0.7136 -0.5198  0.3546
   97MOL   C21148403   3.261   3.500   3.350  0.3665  0.2051  0.2728
   97MOL   C21248404   3.212   3.625   3.395 -0.8561 -0.3171  0.4403
   97MOL   C21348405   3.071   3.621   3.419 -0.0467 -0.4918  0.1630
   97MOL   C21448406   2.999   3.499   3.409 -0.6295 -0.6935  0.4375
   97MOL   H21548407   3.239   3.013   3.197  2.0186 -1.2462  0.7884
   97MOL   H21648408   3.255   2.846   3.149  0.3106  0.3433  2.0142
   97MOL   H21748409   2.945   2.731   3.317  0.3125 -1.2761  0.7289
   97MOL   H21848410   3.042   2.691   3.173 -0.3405 -1.5195  1.5737
   97MOL   H21948411   2.905   2.806   3.173 -0.0473 -1.2995 -0.1988
   97MOL   H22048412   2.885   3.268   3.281 -0.6552 -0.3206  2.2918
   97MOL   H22148413   2.930   3.240   3.442 -2.1184  1.7206 -0.2014
   97MOL   H22248414   3.231   3.298   3.282  0.2728  0.5308 -1.9174
   97MOL   H22348415   3.365   3.495   3.319  0.0876  0.8650 -0.8156
   97MOL   H22448416   3.268   3.717   3.399 -1.3971 -0.0241  1.5215
   97MOL   H22548417   3.026   3.718   3.437  2.7830  0.4098  2.8702
   97MOL   H22648418   2.892   3.511   3.419 -0.5270 -0.3226  1.1757
   97MOL   C22748419   3.165   2.843   3.400  0.1174  0.1763 -0.1470
   97MOL   C22848420   3.283   2.910   3.475  0.0350  0.5768  0.0872
   97MOL   C22948421   3.255   3.059   3.511 -0.4510  0.2553 -0.1737
   97MOL   C23048422   3.424   2.913   3.397 -0.5632 -0.0151  0.2896
   97MOL   O23148423   3.441   2.852   3.293 -0.2649  0.0661  0.0646
   97MOL   O23248424   3.525   2.997   3.447  0.3015 -0.0234 -0.1518
   97MOL   C23348425   3.657   3.000   3.392  0.9173  0.9177  0.0094
   97MOL   C23448426   3.660   3.078   3.259  0.7149  0.2446  0.0508
   97MOL   C23548427   3.686   3.013   3.135  0.1869 -0.1508 -0.1249
   97MOL   C23648428   3.691   3.094   3.021  0.2504  0.3962  0.7352
   97MOL   C23748429   3.680   3.232   3.026 -0.1773 -0.2584  0.1265
   97MOL   C23848430   3.655   3.294   3.151  0.2367  0.8391  0.0299
   97MOL   C23948431   3.653   3.215   3.270 -0.4172 -0.4087  0.9556
   97MOL   H24048432   3.203   2.744   3.376 -0.3446 -0.5996  2.1775
   97MOL   H24148433   3.090   2.820   3.476 -1.1198  1.6288 -0.9170
   97MOL   H24248434   3.323   3.106   3.583 -1.7393  1.3751  0.3250
   97MOL   H24348435   3.154   3.073   3.550  0.6232  2.5878  1.9522
   97MOL   H24448436   3.275   3.124   3.426 -2.8041  3.1782  1.3877
   97MOL   H24548437   3.712   3.054   3.469  0.1384  1.2211  0.3689
   97MOL   H24648438   3.693   2.899   3.376 -0.4370  0.6415 -1.4535
   97MOL   H24748439   3.692   2.905   3.128  1.1521 -0.1678  0.8143
   97MOL   H24848440   3.708   3.043   2.928 -0.7028  4.1584 -1.6003
   97MOL   H24948441   3.703   3.290   2.938 -0.8897  0.6875  0.5533
   97MOL   H25048442   3.650   3.401   3.162 -0.5364  0.5541  2.8634
   97MOL   H25148443   3.643   3.262   3.367 -0.2365  0.4750  0.5420
   97MOL   C25248444   3.305   2.835   3.611  0.1523 -0.1095 -0.0338
   97MOL   C25348445   3.344   2.680   3.631  0.1275  0.1221  0.7585
   97MOL   C25448446   3.460   2.630   3.536  0.7142 -0.4103 -0.4162
   97MOL   C25548447   3.225   2.583   3.603  0.0475 -0.0336 -0.3705
   97MOL   O25648448   3.230   2.490   3.522  0.3985  0.5701  0.2303
   97MOL   O25748449   3.121   2.613   3.683 -0.1420  0.2329  0.2347
   97MOL   C25848450   3.030   2.505   3.718 -0.7679 -0.2824 -0.9679
   97MOL   C25948451   2.915   2.492   3.621 -0.4580 -0.1910  0.6801
   97MOL   C26048452   2.923   2.399   3.516 -0.5922  0.6367 -0.2957
   97MOL   C26148453   2.815   2.383   3.430 -0.1436  0.3568 -0.2926
   97MOL   C26248454   2.701   2.460   3.448  0.4266  0.2197 -0.2355
   97MOL   C26348455   2.697   2.560   3.547 -0.6776  0.6295 -0.4905
   97MOL   C26448456   2.801   2.574   3.633  0.0089 -0.3462 -0.1223
   97MOL   H26548457   3.217   2.843   3.674  1.1264 -1.9498  1.6041
   97MOL   H26648458   3.390   2.890   3.652  0.1507 -2.7133  3.7256
   97MOL   H26748459   3.492   2.527   3.553  0.3436 -0.6808 -1.3334
   97MOL   H26848460   3.548   2.694   3.537  0.4527 -0.0044  2.5166
   97MOL   H26948461   3.436   2.633   3.430  0.3297  1.4631 -0.2870
   97MOL   H27048462   3.086   2.413   3.734 -1.6999 -1.0473 -2.0393
   97MOL   H27148463   2.999   2.518   3.822  0.0386  1.3829 -0.9112
   97MOL   H27248464   3.001   2.326   3.499 -2.0174 -0.5228 -1.9987
   97MOL   H27348465   2.824   2.309   3.351  0.5064 -0.0434  0.1514
   97MOL   H27448466   2.618   2.456   3.379 -1.4108 -3.6821  2.0669
   97MOL   H27548467   2.606   2.615   3.567 -0.0447  2.1354 -1.6822
   97MOL   H27648468   2.794   2.634   3.723 -2.2389  0.0193 -0.5019
   97MOL   C27748469   3.384   2.682   3.784  0.4027  0.3363  0.5915
   97MOL   C27848470   3.468   2.575   3.866 -0.2253 -0.1910  0.4614
   97MOL   C27948471   3.472   2.633   4.006 -0.5004 -0.3068  0.7442
   97MOL   C28048472   3.611   2.570   3.811 -0.5040  0.7976  0.0346
   97MOL   O28148473   3.653   2.470   3.760  0.0349 -0.2378 -0.1018
   97MOL   O28248474   3.682   2.682   3.825 -0.0979 -0.1371 -0.0588
   97MOL   C28348475   3.825   2.681   3.799 -0.4617  0.5419 -0.1226
   97MOL   C28448476   3.872   2.757   3.676  0.2967 -0.7717 -0.6537
   97MOL   C28548477   3.845   2.711   3.547 -0.5065 -0.7199  0.4766
   97MOL   C28648478   3.901   2.786   3.437  0.3061  0.1379  0.2201
   97MOL   C28748479   3.973   2.902   3.464 -0.1769  0.9058  0.0711
   97MOL   C28848480   3.990   2.954   3.592  0.9829  0.7080  0.3499
   97MOL   C28948481   3.936   2.877   3.700 -0.1040 -0.1226 -0.0908
   97MOL   H29048482   3.302   2.706   3.851 -0.0784 -4.0187  1.7423
   97MOL   H29148483   3.444   2.771   3.802  1.4199 -0.5424  1.6919
   97MOL   H29248484   3.376   2.648   4.056 -0.1989  2.9088  0.4645
   97MOL   H29348485   3.529   2.725   4.004 -0.1042 -0.5583  0.5057
   97MOL   H29448486   3.529   2.573   4.077 -0.3521 -0.7968  0.2162
   97MOL   H29548487   3.884   2.719   3.883 -1.5477 -1.3275  1.5328
   97MOL   H29648488   3.874   2.584   3.802  0.5115  1.0512  1.3256
   97MOL   H29748489   3.778   2.628   3.530 -0.0930 -1.8734  4.1043
   97MOL   H29848490   3.883   2.752   3.336  0.1075  1.0493 -0.0600
   97MOL   H29948491   4.003   2.967   3.383 -0.7498  2.6776  1.2464
   97MOL   H30048492   4.027   3.053   3.613  0.3685  1.0517 -0.1831
   97MOL   H30148493   3.933   2.907   3.804 -1.9609 -2.3389  0.5653
   97MOL   C30248494   3.387   2.439   3.855  0.3985 -0.7666  0.0320
   97MOL   C30348495   3.398   2.320   3.959 -0.6263 -0.1740 -0.6231
   97MOL   C30448496   3.312   2.356   4.088 -0.5870 -0.4253 -0.3240
   97MOL   C30548497   3.545   2.297   4.005 -0.4901  0.0229 -0.2444
   97MOL   O30648498   3.594   2.327   4.111 -0.0462  0.2910 -0.3710
   97MOL   O30748499   3.619   2.228   3.918  0.8756  0.4920  0.1194
   97MOL   C30848500   3.742   2.177   3.953  0.3754  0.0266  0.4319
   97MOL   C30948501   3.803   2.091   3.843 -0.4955 -0.1457  0.0060
   97MOL   C31048502   3.858   1.964   3.879 -0.1239 -0.1203 -0.5087
   97MOL   C31148503   3.913   1.887   3.776 -0.1870  0.0101 -0.8230
   97MOL   C31248504   3.915   1.933   3.648  0.7789 -0.3330  0.3321
   97MOL   C31348505   3.863   2.059   3.608  0.3689  0.1265  0.4193
   97MOL   C31448506   3.814   2.138   3.714  0.3985  0.2482 -0.7759
   97MOL   H31548507   3.412   2.405   3.754  0.4715 -0.4086 -0.0733
   97MOL   H31648508   3.285   2.473   3.841  1.4296  0.8532 -4.3638
   97MOL   H31748509   3.332   2.456   4.126 -0.1068 -1.0561  1.1129
   97MOL   H31848510   3.329   2.287   4.171 -0.0210  0.3952  0.2564
   97MOL   H31948511   3.206   2.362   4.065 -1.0221  0.7348  1.8150
   97MOL   H32048512   3.811   2.261   3.966  0.5277  0.4784 -2.7696
   97MOL   H32148513   3.737   2.119   4.045 -1.2338  1.6221  1.3750
   97MOL   H32248514   3.866   1.922   3.978  0.4005  0.6974 -0.2027
   97MOL   H32348515   3.950   1.788   3.799 -0.6785 -0.5439 -2.3669
   97MOL   H32448516   3.963   1.864   3.581  0.4817 -1.6763  1.4796
   97MOL   H32548517   3.853   2.095   3.507  0.9327  1.3416  0.7868
   97MOL   H32648518   3.759   2.229   3.695  0.1352 -0.0454 -1.4472
   97MOL   C32748519   3.341   2.189   3.887  0.7811 -0.0696  0.1149
   97MOL   C32848520   3.314   2.049   3.956  0.2391  1.1027 -0.5897
   97MOL   C32948521   3.178   2.055   4.028  0.1740 -0.1460 -0.0090
   97MOL   C33048522   3.422   1.994   4.054  0.0256 -0.2831 -0.4038
   97MOL   O33148523   3.497   1.899   4.028  0.3851  0.1210 -0.1881
   97MOL   O33248524   3.417   2.067   4.171 -0.1274 -0.0848 -0.2557
   97MOL   C33348525   3.526   2.059   4.256 -0.1200  0.6990 -0.6642
   97MOL   C33448526   3.528   1.933   4.345  0.5094  0.2099  0.3916
   97MOL   C33548527   3.409   1.871   4.371  0.6890 -0.1134 -1.1444
   97MOL   C33648528   3.403   1.770   4.469  0.1142 -0.6032  0.1239
   97MOL   C33748529   3.526   1.731   4.529  0.1062 -0.4141 -0.0605
   97MOL   C33848530   3.649   1.783   4.485 -0.6093  1.0114  0.2883
   97MOL   C33948531   3.646   1.889   4.395  0.4701 -0.4858 -0.4204
   97MOL   H34048532   3.394   2.174   3.792  0.6857  1.9602 -0.2716
   97MOL   H34148533   3.246   2.218   3.844  0.9277 -1.5628 -1.2919
   97MOL   H34248534   3.097   2.080   3.959 -1.3217 -1.4548  1.2481
   97MOL   H34348535   3.170   2.130   4.107 -0.5423  0.4508 -0.6384
   97MOL   H34448536   3.143   1.962   4.073  1.9542  0.1211  1.9882
   97MOL   H34548537   3.623   2.074   4.208  0.1540  1.9183  0.2498
   97MOL   H34648538   3.510   2.141   4.326 -2.9516 -0.1726 -0.2354
   97MOL   H34748539   3.314   1.904   4.331  0.0445 -0.7219 -0.1566
   97MOL   H34848540   3.309   1.727   4.500  0.4870  0.2032  2.4277
   97MOL   H34948541   3.515   1.673   4.619 -1.2669  3.0554  2.1381
   97MOL   H35048542   3.738   1.739   4.527  0.9088  1.1259 -2.6163
   97MOL   H35148543   3.733   1.943   4.360 -0.2578  0.5982 -0.5857
   97MOL   C35248544   3.285   1.939   3.836  0.1302  0.7301 -0.1085
   97MOL   C35348545   3.363   1.919   3.707  0.2668 -0.1573 -0.2039
   97MOL   C35448546   3.516   1.961   3.715  0.0707  1.0265  0.4855
   97MOL   C35548547   3.302   2.008   3.588 -0.4928 -0.1934 -0.9415
   97MOL   O35648548   3.197   2.068   3.595  0.5768  0.5685 -0.3636
   97MOL   O35748549   3.388   2.017   3.486 -0.1070 -0.3582 -0.1453
   97MOL   C35848550   3.371   2.124   3.396  0.0548 -0.2254 -0.0204
   97MOL   C35948551   3.505   2.168   3.350  0.3979 -0.0624  0.6973
   97MOL   C36048552   3.571   2.272   3.423 -0.2860  0.0468  0.9241
   97MOL   C36148553   3.706   2.300   3.390  0.3362 -0.6627  0.3691
   97MOL   C36248554   3.770   2.219   3.299  0.7116  0.3453  0.1483
   97MOL   C36348555   3.697   2.132   3.218  0.2658  0.2478 -0.1900
   97MOL   C36448556   3.566   2.108   3.238  0.9985  0.6029 -0.5731
   97MOL   H36548557   3.181   1.959   3.811 -1.0657 -1.2418  3.0761
   97MOL   H36648558   3.277   1.840   3.879 -0.8442 -0.1043 -2.1450
   97MOL   H36748559   3.568   1.927   3.626 -0.5568 -4.6405  2.0926
   97MOL   H36848560   3.570   1.899   3.787 -1.8139  0.7111  1.6831
   97MOL   H36948561   3.539   2.068   3.714  0.8971  0.8470  0.0740
   97MOL   H37048562   3.318   2.091   3.306 -0.5156  2.8169 -0.8348
   97MOL   H37148563   3.313   2.207   3.436 -0.8287 -0.3189 -1.0615
   97MOL   H37248564   3.523   2.329   3.501  1.1369  2.0498  0.3736
   97MOL   H37348565   3.760   2.377   3.443  2.2884  0.7204 -3.4717
   97MOL   H37448566   3.874   2.226   3.274  0.4164 -1.5283 -1.8041
   97MOL   H37548567   3.752   2.094   3.133  0.3037  0.5352 -0.2939
   97MOL   H37648568   3.520   2.028   3.182  0.1970  1.0196 -0.5035
   97MOL   C37748569   3.354   1.766   3.667  0.0226  0.0586 -0.6606
   97MOL   C37848570   3.218   1.704   3.600  0.1288 -0.3062 -0.5392
   97MOL   C37948571   3.080   1.736   3.680 -0.5159 -0.2951 -0.3763
   97MOL   C38048572   3.250   1.552   3.626 -0.8014 -0.3231 -0.2271
   97MOL   O38148573   3.335   1.497   3.559 -0.1428 -0.4379  0.2036
   97MOL   O38248574   3.183   1.488   3.719  0.5697 -0.7330 -0.0204
   97MOL   C38348575   3.210   1.353   3.754 -1.0640 -0.6524 -0.1963
   97MOL   C38448576   3.339   1.341   3.836 -0.0933 -0.1885  0.6539
   97MOL   C38548577   3.438   1.263   3.786  0.8582  0.1931  0.2338
   97MOL   C38648578   3.552   1.237   3.867  1.0647 -0.0006  0.2085
   97MOL   C38748579   3.562   1.284   3.996  0.1649  0.2024 -0.2710
   97MOL   C38848580   3.456   1.362   4.047  0.2320 -0.2699  0.0032
   97MOL   C38948581   3.347   1.400   3.968  0.3174  0.2611  0.7044
   97MOL   H39048582   3.391   1.703   3.748 -0.6684  0.4249 -0.0516
   97MOL   H39148583   3.439   1.741   3.604  0.7033 -1.7668  0.9225
   97MOL   H39248584   3.092   1.737   3.788 -2.4444 -1.2803 -0.1311
   97MOL   H39348585   2.993   1.675   3.654  0.9667 -2.5583 -0.1220
   97MOL   H39448586   3.066   1.839   3.647 -0.8342 -1.0820 -2.8256
   97MOL   H39548587   3.121   1.303   3.790 -1.0267 -1.0585 -0.6637
   97MOL   H39648588   3.222   1.306   3.657 -0.2732  0.1464 -0.4973
   97MOL   H39748589   3.444   1.221   3.687 -1.4670 -2.0933  1.0035
   97MOL   H39848590   3.622   1.165   3.828  0.1700 -1.9443  2.1085
   97MOL   H39948591   3.649   1.257   4.053 -0.1495 -1.5024 -0.5960
   97MOL   H40048592   3.471   1.413   4.141  0.8097  1.3996 -0.9660
   97MOL   H40148593   3.274   1.464   4.016 -1.1568 -1.5636  1.0121
   97MOL   C40248594   3.207   1.732   3.453  0.2886 -0.2376 -0.3604
   97MOL   C40348595   3.095   1.668   3.362  0.3520 -0.9184  0.0458
   97MOL   C40448596   3.169   1.652   3.221  0.8782  0.7361  0.6926
   97MOL   C40548597   2.975   1.769   3.348  0.6319 -0.2927  0.1342
   97MOL   O40648598   2.974   1.844   3.250  0.2744 -0.0031 -0.2847
   97MOL   O40748599   2.891   1.784   3.448  0.3450  0.3424 -0.0714
   97MOL   C40848600   2.795   1.897   3.441  0.2288 -0.5080  0.2384
   97MOL   C40948601   2.690   1.890   3.551 -0.1272 -0.1272  0.1629
   97MOL   C41048602   2.652   1.774   3.621  0.3744 -0.2455  0.2550
   97MOL   C41148603   2.539   1.771   3.707  0.5657  0.5269  0.1114
   97MOL   C41248604   2.472   1.888   3.734 -0.6661 -0.2825  0.2497
   97MOL   C41348605   2.509   2.002   3.670  0.7572 -0.8947  0.0356
   97MOL   C41448606   2.618   2.007   3.577 -0.2474 -0.0199  0.0929
   97MOL   H41548607   3.301   1.690   3.416 -0.4952 -2.5423  0.1633
   97MOL   H41648608   3.214   1.839   3.432 -1.3606 -0.3700 -1.6586
   97MOL   H41748609   3.210   1.749   3.193  1.2313  0.7199  1.1404
   97MOL   H41848610   3.101   1.634   3.139  0.9199  0.5717  0.6937
   97MOL   H41948611   3.251   1.580   3.222 -0.6468 -1.0613 -0.9052
   97MOL   H42048612   2.833   1.999   3.439 -2.5617  0.5847 -0.4369
   97MOL   H42148613   2.753   1.881   3.341 -3.2577 -0.5792  1.6393
   97MOL   H42248614   2.706   1.682   3.606  1.5649  0.2609  1.2844
   97MOL   H42348615   2.498   1.683   3.755 -1.7047  0.2185 -2.2974
   97MOL   H42448616   2.386   1.885   3.800 -0.8132  0.4839  0.0971
   97MOL   H42548617   2.462   2.097   3.693 -0.0535 -1.0325 -1.0101
   97MOL   H42648618   2.630   2.096   3.517 -0.5285 -1.1616 -1.6933
   97MOL   C42748619   3.036   1.529   3.398 -0.3025  0.1758  0.1150
   97MOL   C42848620   2.934   1.434   3.324 -1.0808 -0.2263  0.0284
   97MOL   C42948621   2.943   1.298   3.401  0.3715  0.3089 -0.5246
   97MOL   C43048622   2.973   1.410   3.178 -0.3460  0.2350  0.3259
   97MOL   O43148623   2.915   1.460   3.092 -0.2432  0.3907 -1.1898
   97MOL   O43248624   3.081   1.339   3.161 -0.4372  0.2065 -0.4137
   97MOL   C43348625   3.130   1.323   3.028  0.4220  0.3787  0.8144
   97MOL   C43448626   3.083   1.199   2.957 -0.3829  0.4146  0.1364
   97MOL   C43548627   3.172   1.105   2.898  0.3157  0.2830 -0.3482
   97MOL   C43648628   3.122   0.987   2.833  0.2858 -0.2931 -0.3133
   97MOL   C43748629   2.983   0.972   2.821 -0.9204  0.6338  0.4437
   97MOL   C43848630   2.896   1.068   2.872 -0.5692  0.3858 -0.0147
   97MOL   C43948631   2.947   1.175   2.945  0.3058  0.2590 -0.0145
   97MOL   H44048632   3.020   1.525   3.506 -0.0965 -4.4262  0.0652
   97MOL   H44148633   3.125   1.467   3.388  0.9077  1.8583  0.1868
   97MOL   H44248634   2.890   1.219   3.349  0.1246 -1.6817  2.6525
   97MOL   H44348635   2.915   1.310   3.505  2.6253  0.1978  0.1340
   97MOL   H44448636   3.046   1.263   3.402  0.4969  0.6096 -1.5277
   97MOL   H44548637   3.126   1.411   2.964  0.5284 -0.7624 -0.8118
   97MOL   H44648638   3.237   1.310   3.038  0.7598  1.2094 -1.4319
   97MOL   H44748639   3.279   1.116   2.908  0.5287 -1.2054 -0.7750
   97MOL   H44848640   3.188   0.912   2.791  2.8809  1.9817 -0.4535
   97MOL   H44948641   2.944   0.888   2.765  1.2073 -0.1870  0.1585
   97MOL   H45048642   2.791   1.056   2.848  0.0735  0.8981 -3.4070
   97MOL   H45148643   2.881   1.246   2.991 -0.3250  0.3502 -1.0495
   97MOL   C45248644   2.791   1.501   3.336 -0.2028  0.1885  0.0801
   97MOL   C45348645   2.656   1.420   3.308 -0.1649 -0.3625 -0.3855
   97MOL   C45448646   2.542   1.529   3.289  0.4258 -0.4359  0.5675
   97MOL   C45548647   2.622   1.339   3.435  0.9545  0.0985 -0.1704
   97MOL   O45648648   2.611   1.220   3.435 -0.1932  0.3735  0.1805
   97MOL   O45748649   2.605   1.403   3.547  0.3463  0.0874 -0.2783
   97MOL   C45848650   2.568   1.340   3.672  0.0318 -0.3789  0.7847
   97MOL   C45948651   2.631   1.409   3.791  0.3935 -0.2325 -0.1051
   97MOL   C46048652   2.771   1.428   3.802 -0.4404 -0.2303 -0.2537
   97MOL   C46148653   2.828   1.508   3.901 -0.4560 -0.4493 -0.0554
   97MOL   C46248654   2.745   1.559   4.002 -0.3734 -0.6013  0.4603
   97MOL   C46348655   2.607   1.541   3.998 -0.0212 -0.0523  0.6192
   97MOL   C46448656   2.552   1.464   3.890 -0.4384  0.4698 -0.1631
   97MOL   H46548657   2.795   1.591   3.275  0.1681 -0.1132 -0.3451
   97MOL   H46648658   2.784   1.540   3.437  0.5927 -1.6879  0.8993
   97MOL   H46748659   2.550   1.615   3.357 -1.6314  0.9408 -0.8898
   97MOL   H46848660   2.442   1.485   3.292  0.4885 -0.5565  0.9407
   97MOL   H46948661   2.556   1.576   3.192  0.2903  2.6094  1.9732
   97MOL   H47048662   2.460   1.333   3.684 -0.0845 -0.4378 -0.2243
   97MOL   H47148663   2.594   1.234   3.678 -0.6503 -0.6609 -0.9085
   97MOL   H47248664   2.835   1.391   3.724 -0.5021 -0.2486 -0.2948
   97MOL   H47348665   2.934   1.526   3.897 -0.3012 -1.0887  0.9487
   97MOL   H47448666   2.788   1.622   4.079  1.1195  0.6200 -1.3260
   97MOL   H47548667   2.550   1.585   4.078 -0.4344 -1.8685  1.3538
   97MOL   H47648668   2.444   1.457   3.886 -0.6281  2.9197 -0.5469
   97MOL   C47748669   2.665   1.323   3.178  0.3311  0.1903  0.2917
   97MOL   C47848670   2.537   1.250   3.131 -0.1428  0.2474 -0.1483
   97MOL   C47948671   2.566   1.112   3.063 -0.2081 -0.3348  0.3233
   97MOL   C48048672   2.442   1.333   3.046  0.0142 -0.0611 -0.9263
   97MOL   O48148673   2.485   1.432   2.980  0.1629  0.5605 -0.5287
   97MOL   O48248674   2.315   1.289   3.049 -0.2602 -0.9074  0.6863
   97MOL   C48348675   2.212   1.380   3.005  0.3242  0.2580  0.4723
   97MOL   C48448676   2.074   1.316   3.013  0.2169 -0.0234 -0.3751
   97MOL   C48548677   2.048   1.188   3.076  0.0357  0.1731 -0.7615
   97MOL   C48648678   1.915   1.144   3.091 -0.6375  0.1330 -0.1120
   97MOL   C48748679   1.805   1.229   3.057 -0.0140 -0.0822 -0.0646
   97MOL   C48848680   1.832   1.356   2.996  0.5106  0.7253 -1.0707
   97MOL   C48948681   1.965   1.397   2.984  0.9415  0.2451 -0.0478
   97MOL   H49048682   2.742   1.247   3.190 -0.1300 -0.5678 -1.3302
   97MOL   H49148683   2.700   1.387   3.097 -0.3581 -0.4523 -0.5228
   97MOL   H49248684   2.579   1.129   2.956 -0.0388  2.9513  0.8403
   97MOL   H49348685   2.493   1.031   3.074 -0.4471 -0.1930 -0.1709
   97MOL   H49448686   2.654   1.065   3.107 -0.7798 -0.6460  1.1391
   97MOL   H49548687   2.218   1.462   3.076  0.8410  0.0549  0.6685
   97MOL   H49648688   2.234   1.417   2.905 -1.3366  2.2898  0.8244
   97MOL   H49748689   2.135   1.129   3.101  0.7045 -0.2683 -3.8832
   97MOL   H49848690   1.899   1.046   3.133 -0.2950  0.0645 -0.1416
   97MOL   H49948691   1.704   1.205   3.090 -0.3339  1.2064 -0.0938
   97MOL   H50048692   1.759   1.428   2.961  0.4782  1.5354  0.6358
   97MOL   H50148693   1.981   1.500   2.955 -0.1934  0.1855 -0.9270
   97MOL   H50248694   2.490   1.233   3.228  1.0722 -2.5194  0.0007
   98MOL     C148695   1.835   6.661   2.364 -0.1459 -0.2866  0.0103
   98MOL     C248696   1.870   6.512   2.359 -0.1676 -0.4054  0.4439
   98MOL     C348697   2.017   6.503   2.389  0.1375 -0.3064 -0.3262
   98MOL     C448698   1.856   6.443   2.221 -0.0307 -0.2114 -0.9471
   98MOL     O548699   1.811   6.330   2.211  0.4000 -0.0386  0.2676
   98MOL     O648700   1.903   6.518   2.131 -0.0809 -0.3202 -0.1591
   98MOL     C748701   1.884   6.473   1.995  0.3498  0.3237  0.0297
   98MOL     C848702   1.962   6.554   1.892 -0.3073  0.4035  0.0274
   98MOL     C948703   2.028   6.670   1.928  0.1986  0.2641 -0.8068
   98MOL    C1048704   2.093   6.746   1.828 -0.7108  0.3465  0.2368
   98MOL    C1148705   2.105   6.703   1.695 -0.4227 -0.0570 -0.0084
   98MOL    C1248706   2.030   6.589   1.667 -0.5199 -0.1615  0.1374
   98MOL    C1348707   1.964   6.515   1.758 -0.1110  0.1894 -0.3505
   98MOL    H1448708   1.868   6.699   2.460 -0.3710 -1.3958  0.5402
   98MOL    H1548709   1.898   6.719   2.296 -0.5453  0.6813  0.4639
   98MOL    H1648710   2.051   6.411   2.435  0.9674  0.2931  0.2742
   98MOL    H1748711   2.055   6.584   2.451  5.1489 -2.6613 -0.0782
   98MOL    H1848712   2.084   6.521   2.305  1.8163  1.6498  1.3745
   98MOL    H1948713   1.898   6.368   1.972 -1.6972  0.1594 -0.5124
   98MOL    H2048714   1.779   6.495   1.981 -0.0756 -2.4368 -1.5174
   98MOL    H2148715   2.034   6.717   2.025 -2.9393  0.3252 -0.6169
   98MOL    H2248716   2.149   6.831   1.863  0.0242  0.0322 -0.1681
   98MOL    H2348717   2.152   6.764   1.620 -1.8504  2.2183  0.8638
   98MOL    H2448718   2.027   6.559   1.563  1.5653  0.1475 -0.0316
   98MOL    H2548719   1.908   6.429   1.724  1.3797 -0.0499 -2.3092
   98MOL    H2648720   1.730   6.689   2.356  0.8057  2.8934 -2.5120
   98MOL    C2748721   1.799   6.432   2.473  0.3452 -0.3943 -0.1592
   98MOL    C2848722   1.649   6.441   2.515  1.0685 -0.1239  0.1297
   98MOL    C2948723   1.561   6.440   2.391 -0.3555  0.2561  0.3227
   98MOL    C3048724   1.629   6.573   2.595 -0.0823 -0.2368 -1.3628
   98MOL    O3148725   1.724   6.619   2.659 -0.1400 -0.4492  0.4402
   98MOL    O3248726   1.512   6.625   2.583  0.1235  0.4336 -0.2609
   98MOL    C3348727   1.478   6.744   2.657  0.6581 -0.0803  0.2234
   98MOL    C3448728   1.501   6.874   2.582  0.2873 -0.5746 -0.2671
   98MOL    C3548729   1.495   6.992   2.655  0.2920 -0.1808 -0.7289
   98MOL    C3648730   1.531   7.114   2.589  0.0614  0.6680 -0.4119
   98MOL    C3748731   1.556   7.116   2.453 -0.1821 -0.3581 -0.0663
   98MOL    C3848732   1.576   6.996   2.386  0.6815  0.9631  0.6964
   98MOL    C3948733   1.529   6.879   2.446  0.3038 -0.2565  1.0094
   98MOL    H4048734   1.851   6.449   2.567 -2.4899  0.1378  1.3689
   98MOL    H4148735   1.833   6.330   2.460  1.1764 -0.1532  0.1253
   98MOL    H4248736   1.584   6.516   2.317 -1.4059 -0.7376 -1.0524
   98MOL    H4348737   1.458   6.438   2.427 -0.3720  0.6123  0.3015
   98MOL    H4448738   1.585   6.351   2.334 -1.0516 -0.7686  1.5909
   98MOL    H4548739   1.374   6.735   2.689  0.7882 -1.4117  0.3009
   98MOL    H4648740   1.536   6.752   2.749  0.5286 -1.0627  0.3881
   98MOL    H4748741   1.466   6.989   2.759 -1.1941  0.7277 -1.1158
   98MOL    H4848742   1.531   7.205   2.648  0.0820 -1.0477  2.3612
   98MOL    H4948743   1.580   7.207   2.401  1.2530 -0.1641  0.9078
   98MOL    H5048744   1.619   6.999   2.287 -2.8968  2.6625 -0.9007
   98MOL    H5148745   1.520   6.788   2.388 -1.4916  0.2658  0.4469
   98MOL    C5248746   1.618   6.329   2.632 -0.1962  0.0935  0.5042
   98MOL    C5348747   1.562   6.184   2.611  0.3983  0.3784 -0.5329
   98MOL    C5448748   1.645   6.112   2.506  0.3258 -0.3325  0.1972
   98MOL    C5548749   1.410   6.185   2.562  0.0417  0.5121 -0.3735
   98MOL    O5648750   1.336   6.278   2.577  0.5672  0.5747 -0.3395
   98MOL    O5748751   1.369   6.067   2.519 -0.1523 -0.2323 -0.1196
   98MOL    C5848752   1.238   6.037   2.474  0.3494 -0.0208 -0.2132
   98MOL    C5948753   1.208   5.889   2.494  0.4985 -0.5991  0.4542
   98MOL    C6048754   1.251   5.820   2.607 -0.9409  0.8545  0.2849
   98MOL    C6148755   1.206   5.681   2.617 -0.5245 -0.2319  0.0916
   98MOL    C6248756   1.132   5.613   2.517 -0.8959 -0.6607  1.1666
   98MOL    C6348757   1.114   5.682   2.395 -0.4639  0.2909 -0.1248
   98MOL    C6448758   1.146   5.822   2.390  0.0845 -0.0808 -0.5074
   98MOL    H6548759   1.559   6.380   2.707 -0.3345  1.4552 -0.5029
   98MOL    H6648760   1.709   6.317   2.691 -0.5554 -0.6396  0.9116
   98MOL    H6748761   1.615   6.148   2.407 -2.3556 -2.0891  0.3159
   98MOL    H6848762   1.621   6.006   2.515  1.8455 -0.8199 -1.1845
   98MOL    H6948763   1.749   6.143   2.505  0.3379 -0.3405  1.0060
   98MOL    H7048764   1.167   6.096   2.532  1.6135 -1.0792  2.4935
   98MOL    H7148765   1.225   6.055   2.368 -0.4162 -0.7436 -0.2463
   98MOL    H7248766   1.313   5.870   2.679  1.6590 -0.8513 -0.7041
   98MOL    H7348767   1.215   5.625   2.709 -0.7907 -0.4196  0.0062
   98MOL    H7448768   1.107   5.509   2.529 -1.2702 -0.6822  0.2822
   98MOL    H7548769   1.077   5.633   2.306  1.4355  0.5810 -1.0960
   98MOL    H7648770   1.140   5.878   2.298  1.3459  2.8270  1.1041
   98MOL    C7748771   1.569   6.110   2.747  0.3834  0.0288 -0.7634
   98MOL    C7848772   1.696   6.086   2.842  0.4725 -0.2948  0.0832
   98MOL    C7948773   1.698   6.207   2.933 -0.3400 -0.2555 -1.0699
   98MOL    C8048774   1.831   6.080   2.763  0.1050  0.3067  0.5541
   98MOL    O8148775   1.846   6.016   2.662  0.1578  0.1789  0.3666
   98MOL    O8248776   1.926   6.151   2.819 -0.0566  0.2213  0.0373
   98MOL    C8348777   2.063   6.111   2.789 -0.0546 -0.0606  0.5795
   98MOL    C8448778   2.169   6.224   2.812  0.4192 -0.0201  0.6633
   98MOL    C8548779   2.142   6.360   2.780  0.2881 -0.3306  0.0532
   98MOL    C8648780   2.241   6.458   2.811 -0.4073  0.0936 -0.2356
   98MOL    C8748781   2.360   6.420   2.876 -0.3891  0.3052 -1.0045
   98MOL    C8848782   2.390   6.283   2.911  0.0127  0.4198  0.2045
   98MOL    C8948783   2.293   6.188   2.874 -0.1195  0.1757  0.1296
   98MOL    H9048784   1.530   6.013   2.716 -2.8900  1.4792 -1.2925
   98MOL    H9148785   1.496   6.160   2.810  0.4014 -0.5957 -0.2431
   98MOL    H9248786   1.614   6.215   3.002  1.0791 -0.5780  0.7336
   98MOL    H9348787   1.692   6.305   2.885 -2.2175  1.4825  2.4837
   98MOL    H9448788   1.786   6.207   2.997 -0.3459 -0.7026 -1.0636
   98MOL    H9548789   2.095   6.017   2.834  0.8599 -0.3553 -0.6941
   98MOL    H9648790   2.080   6.101   2.682  1.8734  2.0179  0.6611
   98MOL    H9748791   2.042   6.380   2.742  0.0036 -0.8508  0.5249
   98MOL    H9848792   2.223   6.562   2.789 -0.6373  1.0858  4.2692
   98MOL    H9948793   2.421   6.502   2.908 -0.8484 -0.5573  2.1918
   98MOL   H10048794   2.479   6.258   2.967 -0.3973  0.6959  0.9855
   98MOL   H10148795   2.301   6.089   2.916  0.7138  0.5860  0.9464
   98MOL   C10248796   1.690   5.948   2.918  0.4472 -0.3625  0.1252
   98MOL   C10348797   1.590   5.910   3.036 -0.9330 -0.3100 -0.2279
   98MOL   C10448798   1.447   5.935   2.999  0.3447 -0.4697 -0.1980
   98MOL   C10548799   1.626   5.985   3.165 -0.1948 -0.2672 -0.4265
   98MOL   O10648800   1.735   6.041   3.178 -0.5053  0.4355  0.1355
   98MOL   O10748801   1.526   5.980   3.261  0.3688  0.3628  0.2153
   98MOL   C10848802   1.534   6.056   3.383  0.7993  0.4052 -0.1703
   98MOL   C10948803   1.514   6.201   3.369  0.3373  0.3278  0.4993
   98MOL   C11048804   1.465   6.260   3.254 -0.5311 -0.6919 -0.7238
   98MOL   C11148805   1.439   6.395   3.241  0.4898  0.4028 -0.4819
   98MOL   C11248806   1.476   6.474   3.349 -0.2799  0.4622  0.3059
   98MOL   C11348807   1.533   6.420   3.468  0.0070 -0.0014 -0.5728
   98MOL   C11448808   1.555   6.282   3.475  0.2205  0.3472 -0.5770
   98MOL   H11548809   1.791   5.932   2.955  0.0938 -0.7853  0.9202
   98MOL   H11648810   1.677   5.871   2.842  1.1551 -2.0064  1.6441
   98MOL   H11748811   1.425   6.040   2.978 -0.2912 -0.3930  0.8708
   98MOL   H11848812   1.365   5.911   3.066  0.9791 -2.5304 -0.1426
   98MOL   H11948813   1.421   5.889   2.903 -1.8445 -1.0870  0.6750
   98MOL   H12048814   1.452   6.037   3.451  0.3731  1.5236 -0.3563
   98MOL   H12148815   1.622   6.039   3.444  0.2305 -0.1206  0.5052
   98MOL   H12248816   1.423   6.200   3.174  0.8278 -0.6308 -1.4981
   98MOL   H12348817   1.387   6.436   3.157 -2.1906  2.0013  1.8686
   98MOL   H12448818   1.460   6.580   3.337  0.9748  0.7478  1.0657
   98MOL   H12548819   1.571   6.485   3.545  1.1101 -0.8318 -0.4029
   98MOL   H12648820   1.601   6.246   3.566 -2.1802 -0.2740  0.4379
   98MOL   C12748821   1.599   5.755   3.057  0.4493  1.2571 -0.1141
   98MOL   C12848822   1.715   5.667   3.127 -0.4258  0.2648  0.7288
   98MOL   C12948823   1.715   5.709   3.274 -0.4229  0.3892  0.4816
   98MOL   C13048824   1.858   5.696   3.068  0.5894 -0.5609 -0.2058
   98MOL   O13148825   1.869   5.689   2.946  0.2996  0.3309 -0.2175
   98MOL   O13248826   1.954   5.705   3.158 -0.4420  0.1538  0.3602
   98MOL   C13348827   2.092   5.698   3.117 -0.0325  0.2232 -0.1623
   98MOL   C13448828   2.165   5.827   3.140  0.4120  0.2846  0.0399
   98MOL   C13548829   2.109   5.956   3.129 -0.0869 -0.3708 -0.1100
   98MOL   C13648830   2.178   6.071   3.164 -0.2240  0.1294  0.3174
   98MOL   C13748831   2.305   6.060   3.226  0.1025 -0.1914 -0.1762
   98MOL   C13848832   2.368   5.933   3.237  0.6639  0.0070  0.0595
   98MOL   C13948833   2.297   5.818   3.191  0.0458  0.5099  0.0604
   98MOL   H14048834   1.590   5.709   2.958 -1.6421 -1.1999  1.1618
   98MOL   H14148835   1.512   5.717   3.110  1.3307 -1.7427 -0.7281
   98MOL   H14248836   1.783   5.647   3.333  0.2468  1.3777  0.7590
   98MOL   H14348837   1.623   5.701   3.333  0.0800 -2.5179  0.9497
   98MOL   H14448838   1.760   5.806   3.296  2.7181 -1.1547  1.1566
   98MOL   H14548839   2.140   5.608   3.157 -0.2953  0.6838  1.1989
   98MOL   H14648840   2.096   5.673   3.011  0.9619  0.1192 -0.1074
   98MOL   H14748841   2.012   5.972   3.085 -0.0418 -0.7733 -0.3522
   98MOL   H14848842   2.143   6.172   3.146 -3.8514 -1.0950  0.0010
   98MOL   H14948843   2.356   6.147   3.264 -2.1887  0.7810  0.7633
   98MOL   H15048844   2.467   5.913   3.277  0.8303  1.9693  0.6879
   98MOL   H15148845   2.334   5.716   3.189 -0.5215  0.3153 -0.6617
   98MOL   C15248846   1.658   5.509   3.119  0.4185 -0.3452  0.7961
   98MOL   C15348847   1.757   5.384   3.108  0.3819  0.2745 -0.4999
   98MOL   C15448848   1.843   5.385   3.225 -0.1271 -0.1933  0.1523
   98MOL   C15548849   1.836   5.393   2.972  0.3483  0.0247 -0.6255
   98MOL   O15648850   1.955   5.377   2.969 -0.5139  0.3473  0.1317
   98MOL   O15748851   1.764   5.413   2.864  0.3143  0.3098 -0.1725
   98MOL   C15848852   1.820   5.410   2.734 -0.9789  0.7078 -0.6102
   98MOL   C15948853   1.741   5.484   2.633  0.3274 -0.7941 -1.0132
   98MOL   C16048854   1.713   5.432   2.506  0.0167  0.7411 -0.4496
   98MOL   C16148855   1.637   5.508   2.413 -0.0581  0.0432 -0.1854
   98MOL   C16248856   1.595   5.637   2.448  0.7870 -0.2002 -0.3113
   98MOL   C16348857   1.619   5.683   2.577 -0.1253 -0.0769 -0.0234
   98MOL   C16448858   1.692   5.610   2.677  0.8808  0.2605  0.1373
   98MOL   H16548859   1.604   5.510   3.024  1.1787  0.7707  0.3713
   98MOL   H16648860   1.584   5.507   3.198 -0.0270  0.6800  0.4005
   98MOL   H16748861   1.795   5.441   3.306  0.5320 -2.3019  2.0617
   98MOL   H16848862   1.935   5.438   3.203  0.4578 -1.4114 -0.3434
   98MOL   H16948863   1.866   5.286   3.266  2.0987 -0.2073 -1.0635
   98MOL   H17048864   1.915   5.463   2.744 -0.1243 -0.6677 -1.2334
   98MOL   H17148865   1.841   5.308   2.701  0.0679 -0.2466  2.7781
   98MOL   H17248866   1.763   5.344   2.466  0.1457  1.5134 -2.0340
   98MOL   H17348867   1.620   5.480   2.310  0.5355  0.7482 -0.4796
   98MOL   H17448868   1.543   5.695   2.373 -1.3956 -0.7204  0.7720
   98MOL   H17548869   1.583   5.781   2.605 -0.8638 -0.4409  0.3283
   98MOL   H17648870   1.707   5.654   2.775 -0.2627 -0.2741  0.5528
   98MOL   C17748871   1.661   5.256   3.109 -0.1153 -0.3505  0.2546
   98MOL   C17848872   1.704   5.119   3.046 -0.6041  0.1606  0.0540
   98MOL   C17948873   1.694   5.119   2.891 -0.0217  0.4743 -0.4299
   98MOL   C18048874   1.584   5.026   3.098  0.1508 -0.0796  0.3259
   98MOL   O18148875   1.488   4.992   3.020  0.1240  0.1627 -0.3961
   98MOL   O18248876   1.603   4.983   3.228  0.1093  0.1962 -0.2100
   98MOL   C18348877   1.495   4.925   3.302 -0.1229 -0.1413  0.4058
   98MOL   C18448878   1.394   5.031   3.348 -0.8599  0.8601 -0.9075
   98MOL   C18548879   1.280   5.061   3.264 -0.0018  0.0110  0.3987
   98MOL   C18648880   1.198   5.169   3.296 -0.6521 -0.2691  0.2761
   98MOL   C18748881   1.224   5.235   3.421  0.1505 -0.4877  0.3982
   98MOL   C18848882   1.331   5.203   3.504 -0.0778  0.1147  0.9059
   98MOL   C18948883   1.429   5.111   3.462  0.4163  0.5548  0.0804
   98MOL   H19048884   1.566   5.285   3.064 -0.4840  1.2267  1.9562
   98MOL   H19148885   1.637   5.251   3.215 -1.3931 -2.9963 -0.1188
   98MOL   H19248886   1.783   5.164   2.848 -0.3840  0.8430 -0.8032
   98MOL   H19348887   1.607   5.178   2.861  2.2711  3.7489 -0.8954
   98MOL   H19448888   1.700   5.024   2.839  1.0438 -0.4751  1.3732
   98MOL   H19548889   1.440   4.854   3.241  0.4249  0.0999 -0.3851
   98MOL   H19648890   1.527   4.862   3.384  0.1780 -0.1854  0.2578
   98MOL   H19748891   1.260   5.005   3.174  0.7274  0.2839  0.0600
   98MOL   H19848892   1.110   5.192   3.238 -1.2227 -0.3277  1.1138
   98MOL   H19948893   1.154   5.313   3.448 -1.3959 -0.8752 -2.2514
   98MOL   H20048894   1.352   5.263   3.590 -0.0197 -1.4268  1.9886
   98MOL   H20148895   1.520   5.093   3.518 -1.2947 -2.4563  2.0464
   98MOL   C20248896   1.844   5.065   3.108 -0.6328 -0.5911 -0.4494
   98MOL   C20348897   1.939   4.951   3.040 -0.1342 -0.0333  0.3116
   98MOL   C20448898   1.992   5.006   2.900  0.7420 -0.0940 -0.2671
   98MOL   C20548899   1.859   4.821   3.025  0.5781  0.6617  0.4714
   98MOL   O20648900   1.866   4.759   2.916  0.2356 -0.5270  0.1117
   98MOL   O20748901   1.791   4.773   3.129  0.3942  0.1242 -1.0229
   98MOL   C20848902   1.748   4.637   3.135 -0.0233  0.2742  0.2608
   98MOL   C20948903   1.598   4.605   3.135  0.5239  0.4058  0.1795
   98MOL   C21048904   1.536   4.523   3.234 -0.1177 -0.2293 -0.3418
   98MOL   C21148905   1.402   4.484   3.217  0.5193  0.4444 -0.1207
   98MOL   C21248906   1.322   4.547   3.115 -0.4991 -0.1993  0.2236
   98MOL   C21348907   1.383   4.642   3.028  0.4863 -0.5736  0.1456
   98MOL   C21448908   1.520   4.656   3.034 -0.1704 -0.4187 -0.0547
   98MOL   H21548909   1.829   5.050   3.214 -1.8928 -0.8754 -0.6598
   98MOL   H21648910   1.909   5.152   3.117  0.1864 -1.1602 -0.7732
   98MOL   H21748911   1.921   4.994   2.818  0.3125  0.2585  0.0500
   98MOL   H21848912   2.081   4.960   2.859 -1.0951 -2.5677 -1.6357
   98MOL   H21948913   2.006   5.114   2.908 -0.7685  0.1587 -0.6954
   98MOL   H22048914   1.789   4.578   3.053 -0.6766  0.0171  0.1212
   98MOL   H22148915   1.791   4.602   3.229  1.5007  1.3502 -0.0087
   98MOL   H22248916   1.589   4.479   3.317 -1.1770 -0.0217  0.4514
   98MOL   H22348917   1.359   4.417   3.290  1.7964 -0.2707 -0.0003
   98MOL   H22448918   1.217   4.525   3.104 -0.6367  0.8481 -0.6721
   98MOL   H22548919   1.328   4.697   2.953 -1.0420 -1.2535  0.7495
   98MOL   H22648920   1.570   4.727   2.969  1.0535 -0.2271  1.0871
   98MOL   C22748921   2.074   4.945   3.129  0.5935  0.1942  0.1499
   98MOL   C22848922   2.177   4.825   3.124  0.5917 -0.1899  0.2601
   98MOL   C22948923   2.207   4.775   2.982  0.1258 -0.4841 -0.3207
   98MOL   C23048924   2.106   4.701   3.204 -0.3451  0.2447  0.3804
   98MOL   O23148925   2.011   4.722   3.280 -0.4148  0.1294 -0.7481
   98MOL   O23248926   2.155   4.577   3.178  0.5744 -0.4544  0.1527
   98MOL   C23348927   2.080   4.463   3.208  0.1140 -0.5202 -0.0405
   98MOL   C23448928   2.172   4.378   3.287  0.3942  0.0563  0.1239
   98MOL   C23548929   2.238   4.430   3.403  0.1756 -0.2684  0.1594
   98MOL   C23648930   2.336   4.356   3.474  0.2156  0.4571  0.3749
   98MOL   C23748931   2.357   4.226   3.430  0.0425 -0.8692 -0.1289
   98MOL   C23848932   2.288   4.175   3.321  0.6884  0.1033 -0.0433
   98MOL   C23948933   2.190   4.248   3.251  0.4564  0.2114  0.3345
   98MOL   H24048934   2.048   4.974   3.231  0.5746 -2.3308  0.8992
   98MOL   H24148935   2.134   5.032   3.104  2.8527 -1.3104  0.1835
   98MOL   H24248936   2.113   4.749   2.934 -1.5571  0.8545  2.1374
   98MOL   H24348937   2.254   4.676   2.978 -1.9904 -1.5285  0.1400
   98MOL   H24448938   2.272   4.838   2.922  1.4922  0.0532  1.6530
   98MOL   H24548939   1.993   4.484   3.271  0.4878 -2.2400  1.0781
   98MOL   H24648940   2.045   4.403   3.124 -0.5853 -0.2777  0.0698
   98MOL   H24748941   2.222   4.531   3.439 -2.9475 -0.0422 -1.7099
   98MOL   H24848942   2.388   4.396   3.560  0.6341 -1.8089  1.1980
   98MOL   H24948943   2.429   4.169   3.487  0.4016  0.9881  1.3424
   98MOL   H25048944   2.303   4.072   3.292 -1.6884 -0.3758  0.3428
   98MOL   H25148945   2.143   4.205   3.163 -0.6436 -0.1765  1.0945
   98MOL   C25248946   2.321   4.852   3.181  0.1957  0.8106  0.1011
   98MOL   C25348947   2.349   4.901   3.327 -0.3355 -0.0498  0.5565
   98MOL   C25448948   2.296   4.799   3.432 -0.5717  0.4801 -0.8886
   98MOL   C25548949   2.285   5.041   3.354 -0.8870  0.5608  0.4151
   98MOL   O25648950   2.200   5.053   3.443 -0.3378 -0.5119  0.2875
   98MOL   O25748951   2.324   5.140   3.278  0.0221  0.3578  0.2408
   98MOL   C25848952   2.255   5.269   3.274 -0.5706 -0.5159  0.8071
   98MOL   C25948953   2.331   5.358   3.185 -0.4179 -0.5970  0.8524
   98MOL   C26048954   2.289   5.383   3.050  0.8298 -0.3995 -0.3208
   98MOL   C26148955   2.352   5.470   2.965 -0.0604  0.9925  0.2882
   98MOL   C26248956   2.474   5.525   3.016 -0.0147 -0.0609  0.2390
   98MOL   C26348957   2.522   5.505   3.146  0.1375  0.5007 -1.0432
   98MOL   C26448958   2.453   5.413   3.234 -0.3051 -0.8915  0.8222
   98MOL   H26548959   2.372   4.909   3.104  2.0744 -0.1021  0.6300
   98MOL   H26648960   2.369   4.753   3.181  2.4238  1.8481  0.8211
   98MOL   H26748961   2.334   4.698   3.415  0.1130  0.7705 -1.0892
   98MOL   H26848962   2.188   4.813   3.442 -0.3934  1.3225 -0.0800
   98MOL   H26948963   2.324   4.819   3.535 -1.8743  1.1335 -0.6486
   98MOL   H27048964   2.154   5.254   3.237 -0.6261 -3.3607  2.0658
   98MOL   H27148965   2.252   5.302   3.377 -1.5434 -0.6070  0.8085
   98MOL   H27248966   2.193   5.341   3.023  0.9329 -0.8192 -0.0445
   98MOL   H27348967   2.306   5.491   2.869  0.5696  0.1748 -0.2033
   98MOL   H27448968   2.528   5.585   2.944 -0.6666  0.0170 -0.1901
   98MOL   H27548969   2.614   5.555   3.172 -1.0841  1.2456  2.0286
   98MOL   H27648970   2.490   5.385   3.332  1.7470 -2.8557 -0.4626
   98MOL   C27748971   2.511   4.916   3.330 -0.6083  0.4513 -0.0089
   98MOL   C27848972   2.600   4.934   3.462 -0.2711  0.7111  0.4882
   98MOL   C27948973   2.583   4.808   3.562 -0.7728 -0.8671  0.5539
   98MOL   C28048974   2.550   5.066   3.540 -0.3711 -0.1296 -0.9730
   98MOL   O28148975   2.525   5.169   3.483 -0.1469 -0.7965  0.2203
   98MOL   O28248976   2.536   5.040   3.673  0.2496 -0.2427  0.3528
   98MOL   C28348977   2.476   5.133   3.760  0.1315  0.2276 -0.0198
   98MOL   C28448978   2.583   5.213   3.833 -0.0009  0.1388  0.5838
   98MOL   C28548979   2.692   5.277   3.766  0.5552 -0.6135 -0.1631
   98MOL   C28648980   2.777   5.355   3.842  0.0073  0.1974 -0.8813
   98MOL   C28748981   2.765   5.360   3.985 -0.5530  0.0639 -0.3087
   98MOL   C28848982   2.666   5.291   4.050  0.7656  0.4469 -0.3587
   98MOL   C28948983   2.576   5.217   3.977  0.3921 -1.0636 -0.2494
   98MOL   H29048984   2.533   5.003   3.268  2.6831 -0.6067 -0.4274
   98MOL   H29148985   2.560   4.834   3.278  1.1813  1.3556  0.2363
   98MOL   H29248986   2.680   4.778   3.601 -1.1358 -1.0187  1.3573
   98MOL   H29348987   2.551   4.721   3.505  1.2721 -0.5532 -1.1372
   98MOL   H29448988   2.534   4.813   3.660 -0.7439 -1.5311  0.6010
   98MOL   H29548989   2.403   5.190   3.702 -2.0542 -0.6558  1.7699
   98MOL   H29648990   2.421   5.076   3.836 -0.7447  0.4515 -0.4797
   98MOL   H29748991   2.695   5.285   3.658  1.1051 -0.4260 -0.1345
   98MOL   H29848992   2.846   5.419   3.788 -2.7742  0.7011 -3.9767
   98MOL   H29948993   2.824   5.430   4.042  0.6180 -1.1867  0.0320
   98MOL   H30048994   2.645   5.288   4.156 -2.5405 -0.6902 -0.9771
   98MOL   H30148995   2.487   5.181   4.027 -0.7409  0.4354 -1.1409
   98MOL   C30248996   2.759   4.927   3.419  0.5877  0.8462 -1.0627
   98MOL   C30348997   2.877   5.009   3.494 -1.0150 -0.4478  0.4397
   98MOL   C30448998   2.859   4.980   3.649  0.2323 -0.1023 -0.0394
   98MOL   C30548999   2.868   5.164   3.470  0.6556  0.2363  0.4200
   98MOL   O30649000   2.917   5.245   3.542 -0.1610 -0.6625  0.3496
   98MOL   O30749001   2.797   5.193   3.354 -0.5123  0.0622 -0.2612
   98MOL   C30849002   2.765   5.328   3.329  0.8433 -0.3923 -0.0420
   98MOL   C30949003   2.883   5.407   3.265  0.4908 -0.0740  0.3569
   98MOL   C31049004   2.894   5.408   3.125 -0.3275  0.1359  0.2509
   98MOL   C31149005   3.012   5.460   3.058  0.7923 -0.3062 -0.8064
   98MOL   C31249006   3.107   5.528   3.136  0.4532 -0.2244 -0.3473
   98MOL   C31349007   3.085   5.540   3.274  0.5987 -0.0167 -0.1454
   98MOL   C31449008   2.978   5.473   3.337 -0.7935 -0.6177 -0.0155
   98MOL   H31549009   2.776   4.960   3.317 -0.6618  0.0069 -1.5535
   98MOL   H31649010   2.781   4.820   3.414 -0.7850  0.4587  0.6972
   98MOL   H31749011   2.874   4.874   3.671 -0.1094 -0.1703 -0.1313
   98MOL   H31849012   2.767   5.013   3.696 -0.6542 -1.5451 -0.7061
   98MOL   H31949013   2.938   5.036   3.699  1.3163  0.0112 -1.8419
   98MOL   H32049014   2.675   5.325   3.267  2.1393  2.0879 -2.1329
   98MOL   H32149015   2.741   5.377   3.423  0.5876  0.7009 -0.6673
   98MOL   H32249016   2.820   5.354   3.068  0.5726 -1.2485  0.3572
   98MOL   H32349017   3.022   5.439   2.953  1.0882  0.9746 -1.0410
   98MOL   H32449018   3.203   5.568   3.106  0.0327  1.6224  0.6907
   98MOL   H32549019   3.144   5.610   3.332 -2.0077  1.0278  1.3531
   98MOL   H32649020   2.962   5.490   3.442 -1.4595 -2.1968  0.1441
   98MOL   C32749021   3.019   4.949   3.451  0.4310 -0.2954 -0.3324
   98MOL   C32849022   3.103   4.980   3.323 -0.7576  0.1140 -0.6224
   98MOL   C32949023   3.153   5.130   3.325 -0.8006 -0.1363 -0.2520
   98MOL   C33049024   3.033   4.942   3.195 -0.3616 -0.1163  0.3926
   98MOL   O33149025   3.068   4.997   3.089  0.2145  0.3581  0.1668
   98MOL   O33249026   2.954   4.836   3.204 -0.1885  0.1412 -0.5838
   98MOL   C33349027   2.920   4.767   3.082 -0.7643 -0.0224 -0.1892
   98MOL   C33449028   2.778   4.695   3.105 -0.2880 -0.6789 -0.0457
   98MOL   C33549029   2.681   4.699   3.001  0.6573 -0.2896 -0.3025
   98MOL   C33649030   2.560   4.632   3.012  0.5749  0.7772 -0.1009
   98MOL   C33749031   2.535   4.555   3.124 -0.0882 -0.6685 -0.5714
   98MOL   C33849032   2.628   4.550   3.227 -0.1036  0.0173  0.1993
   98MOL   C33949033   2.754   4.612   3.216  0.6395  0.1457  0.0666
   98MOL   H34049034   2.997   4.842   3.458 -1.9005  0.2912  2.2306
   98MOL   H34149035   3.077   4.967   3.541 -0.9087  2.8151 -0.0318
   98MOL   H34249036   3.077   5.206   3.311  0.9229  1.2442 -2.4298
   98MOL   H34349037   3.213   5.141   3.235 -0.6513 -1.3717 -0.3229
   98MOL   H34449038   3.214   5.165   3.408 -1.3594 -1.8204  0.8897
   98MOL   H34549039   2.899   4.827   2.994 -3.9124 -2.3132 -1.0936
   98MOL   H34649040   2.991   4.688   3.055  1.8796  2.3474 -0.3878
   98MOL   H34749041   2.690   4.759   2.911 -0.8200  0.1237 -0.1918
   98MOL   H34849042   2.488   4.654   2.934  0.4715 -0.4624 -0.3668
   98MOL   H34949043   2.441   4.507   3.145 -0.8082  1.4274  1.1769
   98MOL   H35049044   2.613   4.508   3.326  3.1063  1.4183  1.3390
   98MOL   H35149045   2.826   4.607   3.297 -0.3175  0.1880  0.9294
   98MOL   C35249046   3.234   4.893   3.353 -0.2806 -0.5581  0.2188
   98MOL   C35349047   3.344   4.857   3.243 -0.4425  0.8703 -0.0510
   98MOL   C35449048   3.387   4.978   3.146 -0.3393 -0.1224  0.5612
   98MOL   C35549049   3.295   4.732   3.150  0.1823  0.5340  0.5317
   98MOL   O35649050   3.219   4.645   3.194 -0.2739 -0.1387  0.3905
   98MOL   O35749051   3.337   4.738   3.015  0.1554  0.0840 -0.4961
   98MOL   C35849052   3.297   4.637   2.926  0.2227  0.4049  0.5313
   98MOL   C35949053   3.397   4.529   2.893 -0.4020 -0.4695  0.2530
   98MOL   C36049054   3.429   4.490   2.759 -0.0554  0.3794 -0.5973
   98MOL   C36149055   3.499   4.374   2.730  0.3403 -0.0816  0.1729
   98MOL   C36249056   3.537   4.292   2.834  0.4039 -0.2958 -0.2146
   98MOL   C36349057   3.504   4.316   2.965  0.3931  0.2128 -0.1436
   98MOL   C36449058   3.433   4.440   2.993  0.2940  0.3274 -0.4361
   98MOL   H36549059   3.208   4.792   3.385 -0.6589 -0.2867  0.7705
   98MOL   H36649060   3.280   4.939   3.441 -0.2580  1.2358 -0.7028
   98MOL   H36749061   3.465   4.953   3.074 -1.4033  1.4044 -1.1643
   98MOL   H36849062   3.411   5.069   3.201 -3.5191 -0.0420  1.9164
   98MOL   H36949063   3.300   5.005   3.086 -0.7301 -1.7515  0.3612
   98MOL   H37049064   3.204   4.589   2.955  0.7342 -2.3244 -2.1803
   98MOL   H37149065   3.276   4.685   2.831  2.1812 -0.9953 -0.6473
   98MOL   H37249066   3.408   4.557   2.677  1.0077 -0.4183 -1.5370
   98MOL   H37349067   3.523   4.358   2.626  0.9890 -0.2723  0.3467
   98MOL   H37449068   3.586   4.196   2.821  1.1219 -0.4448  3.1904
   98MOL   H37549069   3.522   4.247   3.046  1.4236  0.3792 -0.2228
   98MOL   H37649070   3.426   4.468   3.097 -1.9719  0.3399 -0.5801
   98MOL   C37749071   3.469   4.794   3.323 -0.3760  0.2612  0.1171
   98MOL   C37849072   3.584   4.880   3.393  0.2302 -0.0435  0.3465
   98MOL   C37949073   3.524   4.997   3.474 -0.0244 -0.1752  0.3485
   98MOL   C38049074   3.684   4.926   3.286  0.2384 -0.2413  0.7338
   98MOL   O38149075   3.700   5.049   3.260 -0.0682  0.1614 -0.0059
   98MOL   O38249076   3.735   4.821   3.213 -0.1581  0.1360  0.0217
   98MOL   C38349077   3.841   4.842   3.116 -0.9895  0.3921 -0.2227
   98MOL   C38449078   3.780   4.825   2.978  0.0312 -0.0451  0.1700
   98MOL   C38549079   3.781   4.699   2.910  0.5663 -0.0324 -0.0846
   98MOL   C38649080   3.707   4.689   2.791  0.0007  1.0502 -0.0544
   98MOL   C38749081   3.637   4.793   2.733 -0.4127  0.2664 -0.0311
   98MOL   C38849082   3.639   4.915   2.798  0.5049 -0.0486  0.3614
   98MOL   C38949083   3.704   4.929   2.920  0.4602 -0.1119 -0.0282
   98MOL   H39049084   3.517   4.729   3.251  0.4394  0.9964 -0.0149
   98MOL   H39149085   3.430   4.720   3.393 -0.3305 -0.3382 -0.4912
   98MOL   H39249086   3.458   4.982   3.560 -1.4422 -0.0013 -0.6885
   98MOL   H39349087   3.464   5.064   3.412 -3.5897 -3.7037 -0.3012
   98MOL   H39449088   3.605   5.062   3.505  0.1833 -0.6763  0.8668
   98MOL   H39549089   3.898   4.934   3.120 -1.0632  0.5393 -2.0175
   98MOL   H39649090   3.915   4.766   3.140 -0.0442  1.3773  0.0132
   98MOL   H39749091   3.828   4.609   2.948 -0.1813  0.1878  1.3975
   98MOL   H39849092   3.716   4.589   2.751 -0.8072  0.6374  0.7647
   98MOL   H39949093   3.586   4.776   2.639  0.9103  1.3791 -0.9541
   98MOL   H40049094   3.586   4.993   2.744 -1.5258 -1.5829  0.0876
   98MOL   H40149095   3.706   5.024   2.971 -1.6708  0.2274 -0.5290
   98MOL   C40249096   3.660   4.787   3.498  0.2888 -1.1361 -0.5346
   98MOL   C40349097   3.805   4.816   3.566  0.3407 -0.3795 -0.2045
   98MOL   C40449098   3.841   4.970   3.568  0.0396 -0.1006 -0.1114
   98MOL   C40549099   3.921   4.761   3.480 -0.4087  0.3152  0.7119
   98MOL   O40649100   4.023   4.820   3.446 -0.0346  0.8384 -0.5556
   98MOL   O40749101   3.915   4.624   3.457  0.8532 -0.4243 -0.0148
   98MOL   C40849102   4.020   4.557   3.384 -0.6167  0.4369 -0.3388
   98MOL   C40949103   4.135   4.503   3.472 -0.3704  0.7168  0.0044
   98MOL   C41049104   4.252   4.449   3.421  0.3230 -0.0499  0.1404
   98MOL   C41149105   4.346   4.399   3.516  0.8314 -0.0342  0.4146
   98MOL   C41249106   4.329   4.400   3.657  0.0169 -0.0552  0.2092
   98MOL   C41349107   4.207   4.446   3.703  0.3001  0.1397  0.5092
   98MOL   C41449108   4.109   4.493   3.613 -0.4049 -0.7251 -0.8655
   98MOL   H41549109   3.676   4.694   3.443 -0.1732  0.0133 -2.6583
   98MOL   H41649110   3.586   4.752   3.569  2.0403 -1.7795  1.0294
   98MOL   H41749111   3.774   5.026   3.633 -0.7867 -0.2283 -0.8400
   98MOL   H41849112   3.851   5.020   3.471 -0.9857  0.7559  0.2158
   98MOL   H41949113   3.934   4.993   3.619 -0.7355 -0.4753  1.4860
   98MOL   H42049114   3.986   4.473   3.324 -1.0127 -1.1274  1.9957
   98MOL   H42149115   4.049   4.624   3.303  0.8660  0.0497 -0.1435
   98MOL   H42249116   4.267   4.442   3.314 -3.9789  0.1548 -0.5777
   98MOL   H42349117   4.438   4.365   3.471 -0.0077  0.7434 -1.9270
   98MOL   H42449118   4.395   4.360   3.732  0.5024 -1.0753 -0.7520
   98MOL   H42549119   4.184   4.432   3.808 -0.9573 -1.3095  0.0599
   98MOL   H42649120   4.008   4.520   3.640  0.2190 -0.0267  0.8049
   98MOL   C42749121   3.819   4.745   3.709  0.4848 -0.4200 -0.5307
   98MOL   C42849122   3.769   4.804   3.842  0.1262 -0.3457 -0.0605
   98MOL   C42949123   3.766   4.690   3.944 -0.3249 -0.1016  0.9164
   98MOL   C43049124   3.618   4.851   3.826 -0.1507 -0.4532  0.3793
   98MOL   O43149125   3.593   4.969   3.802 -0.2072 -0.6255  0.0171
   98MOL   O43249126   3.538   4.750   3.826 -0.5349  0.0630  0.0786
   98MOL   C43349127   3.404   4.774   3.798  0.6481 -0.0304  1.2315
   98MOL   C43449128   3.344   4.657   3.717  0.1991  0.3755  0.1239
   98MOL   C43549129   3.236   4.684   3.633  0.3310  0.3546  0.2814
   98MOL   C43649130   3.176   4.584   3.556 -0.3474  0.3362  0.4128
   98MOL   C43749131   3.200   4.447   3.580 -0.4334  0.4770 -0.3772
   98MOL   C43849132   3.307   4.413   3.665 -1.0456 -0.4168  0.3868
   98MOL   C43949133   3.378   4.522   3.731  0.2490  0.1955 -0.5573
   98MOL   H44049134   3.927   4.736   3.725  0.2963 -0.9880  0.5574
   98MOL   H44149135   3.771   4.648   3.692 -1.1690  0.3957 -0.5755
   98MOL   H44249136   3.719   4.595   3.918  0.6257 -0.6493  1.1651
   98MOL   H44349137   3.704   4.732   4.022 -1.4386  0.2319 -0.1407
   98MOL   H44449138   3.868   4.660   3.969 -0.9945 -1.3065  2.2913
   98MOL   H44549139   3.339   4.797   3.883  0.3925 -1.7875  1.5251
   98MOL   H44649140   3.390   4.857   3.728  1.3650  0.0970  1.2415
   98MOL   H44749141   3.200   4.785   3.629 -2.2969 -0.3453  3.7973
   98MOL   H44849142   3.099   4.611   3.485 -0.8660 -0.1302  0.8007
   98MOL   H44949143   3.159   4.366   3.521 -1.7008  0.6225  0.2832
   98MOL   H45049144   3.350   4.319   3.695 -1.5127  0.0480  2.6490
   98MOL   H45149145   3.451   4.497   3.806 -1.2245 -1.8832  0.2168
   98MOL   C45249146   3.840   4.921   3.911 -0.0232  0.6100 -0.0415
   98MOL   C45349147   3.987   4.919   3.980  0.6681 -0.1087 -0.4327
   98MOL   C45449148   4.029   5.067   3.994  1.1188  0.0007 -0.7914
   98MOL   C45549149   4.090   4.839   3.896 -0.1182  0.6432 -0.4567
   98MOL   O45649150   4.118   4.725   3.928 -0.2843  0.3574 -0.2446
   98MOL   O45749151   4.131   4.906   3.783  0.0715 -0.5245  0.0515
   98MOL   C45849152   4.232   4.856   3.705 -0.5020  0.3099  0.2647
   98MOL   C45949153   4.358   4.880   3.775  0.0495 -0.2485  0.3624
   98MOL   C46049154   4.432   4.772   3.825 -0.3782  0.0985  0.4262
   98MOL   C46149155   4.548   4.792   3.895 -0.1628  0.0018 -0.5809
   98MOL   C46249156   4.603   4.923   3.908 -0.0382 -0.2865 -0.2209
   98MOL   C46349157   4.531   5.033   3.847 -0.5001  0.9021 -0.2090
   98MOL   C46449158   4.407   5.010   3.786 -0.4997  0.2652  0.8535
   98MOL   H46549159   3.768   4.977   3.971 -0.3595  1.7174 -1.4588
   98MOL   H46649160   3.856   4.987   3.826 -0.8628 -0.0625 -0.7316
   98MOL   H46749161   4.017   5.114   3.897  1.4982 -0.6447 -1.1517
   98MOL   H46849162   4.129   5.077   4.035 -0.0971  0.7569  2.1360
   98MOL   H46949163   3.953   5.112   4.058  1.5141  2.3190 -1.8977
   98MOL   H47049164   4.231   4.751   3.676 -2.0731 -0.3580  2.5855
   98MOL   H47149165   4.224   4.912   3.611  0.7950 -1.0853 -0.7065
   98MOL   H47249166   4.389   4.673   3.818  1.0739 -0.6474  1.6917
   98MOL   H47349167   4.612   4.717   3.939  4.2309  3.2643 -1.0414
   98MOL   H47449168   4.700   4.937   3.953 -0.0277  0.7257 -0.5311
   98MOL   H47549169   4.574   5.132   3.856 -0.2577  0.7599  0.2439
   98MOL   H47649170   4.347   5.089   3.742  1.7420  2.4335  1.5900
   98MOL   C47749171   3.975   4.863   4.124  0.2657 -0.3470 -0.0037
   98MOL   C47849172   4.083   4.894   4.241  0.7907 -0.0347 -0.0957
   98MOL   C47949173   4.210   4.806   4.222 -0.8232 -0.1340 -0.0077
   98MOL   C48049174   4.023   4.883   4.384 -0.9162 -0.1819  0.8492
   98MOL   O48149175   4.033   4.977   4.461  0.3539  0.4930 -0.0410
   98MOL   O48249176   3.976   4.761   4.411 -0.5258  0.6140  0.1179
   98MOL   C48349177   3.909   4.727   4.532  0.2087  0.6886 -0.3761
   98MOL   C48449178   3.759   4.725   4.517 -0.1575 -0.2438  0.8793
   98MOL   C48549179   3.692   4.718   4.393  0.1501  0.0285  0.4880
   98MOL   C48649180   3.553   4.705   4.392  0.1645 -0.0379  0.6191
   98MOL   C48749181   3.477   4.694   4.510  0.0313 -0.1808  0.0230
   98MOL   C48849182   3.545   4.700   4.629 -0.2565  0.8959 -0.2459
   98MOL   C48949183   3.685   4.716   4.635 -0.3583 -0.0452  0.4070
   98MOL   H49049184   3.948   4.757   4.132 -4.3380  0.6671 -0.6266
   98MOL   H49149185   3.885   4.911   4.162  0.1079 -0.4516 -0.2457
   98MOL   H49249186   4.273   4.847   4.144  1.5571 -2.2964  0.7207
   98MOL   H49349187   4.170   4.710   4.188 -0.1805 -0.4091  0.0082
   98MOL   H49449188   4.268   4.791   4.313  0.5305 -0.3453 -0.8894
   98MOL   H49549189   3.930   4.625   4.564  0.4742  0.5135 -1.1003
   98MOL   H49649190   3.937   4.792   4.615 -1.0481 -0.2140  0.7717
   98MOL   H49749191   3.750   4.712   4.302 -0.2337  0.9265  0.1736
   98MOL   H49849192   3.491   4.692   4.304  0.3982 -0.0028  0.4479
   98MOL   H49949193   3.370   4.680   4.503 -0.1442  1.0998  0.0580
   98MOL   H50049194   3.491   4.678   4.720 -0.1953 -2.0643 -0.8796
   98MOL   H50149195   3.741   4.715   4.727  0.1545 -1.1645  0.0938
   98MOL   H50249196   4.116   4.997   4.227  0.0912 -0.1221 -2.7561
   99MOL     C149197   4.229   2.630   5.655 -0.1948 -0.1559 -0.6851
   99MOL     C249198   4.290   2.704   5.778  0.2995 -0.5771 -0.3541
   99MOL     C349199   4.170   2.721   5.877 -0.3984 -0.8990  0.3315
   99MOL     C449200   4.342   2.843   5.739  0.7301  0.2332  0.1309
   99MOL     O549201   4.276   2.945   5.749  0.1202 -0.1156 -0.1256
   99MOL     O649202   4.462   2.843   5.669 -0.1074 -0.4912  0.0233
   99MOL     C749203   4.516   2.963   5.610 -0.0195  0.2464  0.0565
   99MOL     C849204   4.577   3.054   5.713 -0.2635 -0.7945 -0.3449
   99MOL     C949205   4.709   3.036   5.755 -0.1954  0.3654  0.4422
   99MOL    C1049206   4.784   3.116   5.835 -0.3221  0.2618 -0.2268
   99MOL    C1149207   4.719   3.233   5.885 -0.3874 -0.3898 -0.3295
   99MOL    C1249208   4.580   3.256   5.861  0.0410  0.0174 -0.0536
   99MOL    C1349209   4.513   3.169   5.772 -0.4609  0.4661 -0.5388
   99MOL    H1449210   4.191   2.532   5.683  1.4376 -0.9109 -1.0499
   99MOL    H1549211   4.151   2.690   5.609 -1.1375 -0.4053  0.5431
   99MOL    H1649212   4.082   2.750   5.820  1.8210  0.0437 -2.7853
   99MOL    H1749213   4.196   2.797   5.950 -1.0992 -0.4109  0.0702
   99MOL    H1849214   4.149   2.624   5.923 -0.0139  0.5954  3.7845
   99MOL    H1949215   4.599   2.928   5.549  0.5783  0.5500  0.6940
   99MOL    H2049216   4.449   3.017   5.543 -1.6361 -0.2734  1.2240
   99MOL    H2149217   4.760   2.946   5.722 -1.6835 -0.8568  1.4054
   99MOL    H2249218   4.884   3.099   5.873 -0.6426  0.5368  0.7576
   99MOL    H2349219   4.772   3.314   5.933  1.7590 -0.6081 -2.2396
   99MOL    H2449220   4.535   3.347   5.899 -0.0252  0.5055 -1.2810
   99MOL    H2549221   4.407   3.185   5.761 -0.4754  2.1144  1.7284
   99MOL    H2649222   4.309   2.613   5.583  0.3888  1.5194 -0.4618
   99MOL    C2749223   4.407   2.607   5.825 -0.0363 -0.3291 -0.2230
   99MOL    C2849224   4.477   2.620   5.964 -0.5408  0.4728 -0.2625
   99MOL    C2949225   4.381   2.601   6.082  0.4585  0.0153  0.4924
   99MOL    C3049226   4.544   2.758   5.975 -0.2288 -0.6902  0.2328
   99MOL    O3149227   4.640   2.786   5.904 -0.2909  0.3873  0.4276
   99MOL    O3249228   4.486   2.842   6.054 -0.1943 -0.2309  0.1583
   99MOL    C3349229   4.524   2.970   6.073 -0.3694 -0.1001 -0.3554
   99MOL    C3449230   4.583   2.996   6.209 -0.4660  0.6893 -0.3394
   99MOL    C3549231   4.490   2.995   6.316  0.7795 -0.7084  0.4484
   99MOL    C3649232   4.539   3.025   6.439 -0.1908  0.0886 -1.0152
   99MOL    C3749233   4.675   3.037   6.476 -0.3214  0.2354  0.6003
   99MOL    C3849234   4.768   3.028   6.367 -0.1720  0.0839  0.4076
   99MOL    C3949235   4.723   3.005   6.235  0.1003 -0.3829 -1.0709
   99MOL    H4049236   4.476   2.602   5.740 -1.3681  0.7449 -1.3878
   99MOL    H4149237   4.358   2.510   5.834  2.2250 -1.5256 -0.3155
   99MOL    H4249238   4.330   2.507   6.060 -0.2350  0.5486 -0.2119
   99MOL    H4349239   4.312   2.685   6.089 -1.2220 -1.3066  0.2271
   99MOL    H4449240   4.441   2.596   6.172  1.6306  0.1746 -0.2709
   99MOL    H4549241   4.590   2.996   5.990  1.2202 -1.1892  0.5285
   99MOL    H4649242   4.434   3.031   6.069 -0.5058 -0.3341 -0.9258
   99MOL    H4749243   4.383   2.979   6.314  0.7598 -0.5004 -0.2340
   99MOL    H4849244   4.471   3.039   6.522  0.7041 -0.2037 -0.2266
   99MOL    H4949245   4.707   3.054   6.578 -0.4442 -2.4714  1.1172
   99MOL    H5049246   4.873   3.052   6.382 -0.9123  2.6008  2.0683
   99MOL    H5149247   4.782   3.010   6.145  1.8349  1.4130  0.1029
   99MOL    C5249248   4.571   2.491   5.961 -0.5044 -0.3552 -0.2826
   99MOL    C5349249   4.633   2.424   6.088  0.1909  0.4008  0.4262
   99MOL    C5449250   4.520   2.341   6.160 -0.0864 -0.0598  0.0786
   99MOL    C5549251   4.689   2.534   6.185 -0.1239  0.3887  0.0136
   99MOL    O5649252   4.646   2.552   6.294 -0.0032  0.3101 -0.5769
   99MOL    O5749253   4.784   2.606   6.123  0.0991  0.1191  0.0978
   99MOL    C5849254   4.884   2.675   6.191  0.4626  0.0501 -0.7268
   99MOL    C5949255   4.967   2.769   6.097 -0.5816 -0.3024 -0.0019
   99MOL    C6049256   5.071   2.846   6.162  0.3531  0.3219 -0.6803
   99MOL    C6149257   5.152   2.928   6.086 -0.5415  0.2991 -0.1510
   99MOL    C6249258   5.125   2.948   5.949 -0.1127 -0.9819  0.5843
   99MOL    C6349259   5.026   2.870   5.883  0.0947 -0.1894 -0.3338
   99MOL    C6449260   4.951   2.779   5.961  0.2144  0.2137 -0.3979
   99MOL    H6549261   4.659   2.520   5.904  0.4052 -1.1071  0.6984
   99MOL    H6649262   4.522   2.413   5.904 -0.6268 -0.0514 -0.5899
   99MOL    H6749263   4.571   2.269   6.224  0.1951  0.5208  0.5126
   99MOL    H6849264   4.481   2.277   6.081 -0.9628 -0.1685  0.5989
   99MOL    H6949265   4.447   2.389   6.225 -0.8313 -1.5436  0.3696
   99MOL    H7049266   4.847   2.729   6.278  3.1963  0.5532  0.1996
   99MOL    H7149267   4.945   2.598   6.238  0.6465  2.2583  2.8268
   99MOL    H7249268   5.087   2.844   6.268  0.4983  1.4681 -0.6842
   99MOL    H7349269   5.235   2.983   6.128  0.9083 -1.8197 -0.2062
   99MOL    H7449270   5.193   3.014   5.898 -0.4074 -1.5188 -0.4989
   99MOL    H7549271   5.005   2.864   5.777 -1.5212  0.6641 -0.0795
   99MOL    H7649272   4.875   2.721   5.911  1.8860 -1.4131 -1.1083
   99MOL    C7749273   4.753   2.336   6.030 -0.4216  0.0072  0.0478
   99MOL    C7849274   4.820   2.217   6.119  0.1337  0.6746 -0.1874
   99MOL    C7949275   4.840   2.258   6.259 -0.4998 -0.2217  0.4442
   99MOL    C8049276   4.967   2.200   6.058 -0.8219 -0.0318 -0.3477
   99MOL    O8149277   5.071   2.214   6.127  0.9735 -0.2465 -0.0359
   99MOL    O8249278   4.969   2.175   5.921 -0.5857 -0.3632  0.4846
   99MOL    C8349279   5.089   2.207   5.855  0.1685 -0.4268  0.3400
   99MOL    C8449280   5.091   2.152   5.713  0.0048 -0.1753  0.8798
   99MOL    C8549281   5.167   2.036   5.677 -0.6260  0.3369 -0.5243
   99MOL    C8649282   5.183   1.984   5.548  0.6387  0.2180  1.3210
   99MOL    C8749283   5.105   2.047   5.442 -0.5965 -0.5718 -0.4002
   99MOL    C8849284   5.037   2.166   5.479 -0.2733 -0.2045  0.4406
   99MOL    C8949285   5.031   2.225   5.608 -0.1926  0.0805 -0.4929
   99MOL    H9049286   4.830   2.408   6.003  0.2455 -0.7829 -0.1685
   99MOL    H9149287   4.732   2.284   5.936 -1.5347  1.3853 -0.4897
   99MOL    H9249288   4.914   2.193   6.305 -0.4937 -0.4450  0.1141
   99MOL    H9349289   4.751   2.251   6.322 -1.2976  1.6079 -0.4320
   99MOL    H9449290   4.879   2.359   6.272  1.7805 -1.1152  0.6185
   99MOL    H9549291   5.111   2.314   5.847  0.2007 -0.3378  1.5864
   99MOL    H9649292   5.170   2.167   5.915  0.9706 -1.4563 -1.3812
   99MOL    H9749293   5.209   1.973   5.755 -1.0955 -2.1780 -2.2590
   99MOL    H9849294   5.247   1.897   5.540 -0.7538 -0.6777 -0.3706
   99MOL    H9949295   5.108   2.004   5.343  0.0818  2.3595 -1.7185
   99MOL   H10049296   4.988   2.218   5.397  0.9854  1.4455  0.7184
   99MOL   H10149297   4.990   2.323   5.628 -0.7181  0.1727 -2.0334
   99MOL   C10249298   4.740   2.081   6.094  0.2548 -0.1137  0.1186
   99MOL   C10349299   4.755   1.946   6.171 -0.2468 -0.0650  0.1908
   99MOL   C10449300   4.899   1.892   6.164  0.0617 -0.3342  0.4641
   99MOL   C10549301   4.653   1.846   6.097 -0.0442  0.4533  0.3706
   99MOL   O10649302   4.691   1.743   6.043  0.1827 -0.5817 -0.0385
   99MOL   O10749303   4.525   1.893   6.096 -0.2843 -0.1867 -0.4456
   99MOL   C10849304   4.429   1.815   6.020  0.2538 -0.3919 -0.2179
   99MOL   C10949305   4.304   1.894   6.018  0.1071  0.2160  0.3100
   99MOL   C11049306   4.310   2.035   6.015 -0.2632 -0.7111 -0.1343
   99MOL   C11149307   4.191   2.111   6.000 -0.1955  0.7366  0.5017
   99MOL   C11249308   4.068   2.044   5.998 -0.0674 -0.0636  0.2764
   99MOL   C11349309   4.066   1.903   6.001 -0.8427  0.2814 -0.7859
   99MOL   C11449310   4.185   1.827   6.009  0.5851 -0.4125 -0.3031
   99MOL   H11549311   4.760   2.059   5.989 -0.5197 -1.9700  0.3516
   99MOL   H11649312   4.634   2.107   6.098 -0.0226 -1.3273  0.7109
   99MOL   H11749313   4.967   1.955   6.222 -0.6622 -0.6520  1.6566
   99MOL   H11849314   4.931   1.886   6.060 -1.7280  0.4641 -0.1458
   99MOL   H11949315   4.912   1.793   6.206  3.8734 -0.3577 -0.5580
   99MOL   H12049316   4.464   1.785   5.921  1.8567  1.6413 -0.3048
   99MOL   H12149317   4.407   1.728   6.081 -0.9498  1.7511  2.4747
   99MOL   H12249318   4.396   2.098   6.003 -1.3028  0.2052 -3.3444
   99MOL   H12349319   4.203   2.215   5.973  1.0372  0.3904 -0.3188
   99MOL   H12449320   3.972   2.093   5.986  0.6632  1.4113  0.4542
   99MOL   H12549321   3.979   1.846   5.972 -0.4046 -0.6033 -0.3497
   99MOL   H12649322   4.169   1.720   6.008  0.1085 -0.3390 -1.5052
   99MOL   C12749323   4.708   1.965   6.320  0.6682  0.0094  0.4082
   99MOL   C12849324   4.706   1.859   6.435  0.0393 -0.9061  0.1505
   99MOL   C12949325   4.669   1.719   6.382  0.9714 -0.2595  0.0783
   99MOL   C13049326   4.603   1.902   6.542  0.7885  0.2867  0.2234
   99MOL   O13149327   4.540   1.821   6.611  0.1317  0.6425 -0.3917
   99MOL   O13249328   4.595   2.034   6.552 -0.1169  0.3276  0.2958
   99MOL   C13349329   4.513   2.095   6.650  0.6056  0.3500  0.3285
   99MOL   C13449330   4.496   2.237   6.621 -0.0885  0.2957  0.3011
   99MOL   C13549331   4.612   2.311   6.593 -0.1230  0.0092  0.6818
   99MOL   C13649332   4.600   2.446   6.574 -0.9614  0.5573 -0.0253
   99MOL   C13749333   4.474   2.511   6.577 -0.1130  0.0312  0.2551
   99MOL   C13849334   4.361   2.437   6.603  0.3058  0.1883  0.5487
   99MOL   C13949335   4.372   2.296   6.621  0.0357  0.2942  0.5678
   99MOL   H14049336   4.609   2.008   6.302  1.7239  1.6674 -1.6784
   99MOL   H14149337   4.763   2.048   6.364  0.9099 -0.4118  0.9020
   99MOL   H14249338   4.568   1.714   6.341  1.1283  0.7028 -0.4202
   99MOL   H14349339   4.668   1.640   6.458 -0.1356  1.6821  2.1336
   99MOL   H14449340   4.739   1.675   6.311 -1.8012 -0.9162 -2.3504
   99MOL   H14549341   4.416   2.046   6.653  0.6859  0.2142  0.6847
   99MOL   H14649342   4.555   2.078   6.749  0.4041  2.1303  0.7358
   99MOL   H14749343   4.709   2.263   6.586 -0.6053 -0.6494 -1.7460
   99MOL   H14849344   4.682   2.512   6.549  0.9689 -1.9385 -0.4144
   99MOL   H14949345   4.471   2.619   6.569 -0.0411  0.1844  2.0720
   99MOL   H15049346   4.267   2.490   6.604 -0.1590 -0.3749 -3.6662
   99MOL   H15149347   4.288   2.229   6.629 -0.8369  1.1184 -1.2598
   99MOL   C15249348   4.855   1.859   6.490 -0.0467  0.1435  1.0947
   99MOL   C15349349   4.895   1.838   6.641  0.6002  0.0514  0.3350
   99MOL   C15449350   4.844   1.698   6.694 -0.0054  0.2213 -0.0140
   99MOL   C15549351   4.857   1.950   6.734 -0.2534 -0.0322  0.2527
   99MOL   O15649352   4.849   2.068   6.699 -0.0348  0.1820  0.9700
   99MOL   O15749353   4.856   1.910   6.863 -0.2663 -0.0305 -0.1792
   99MOL   C15849354   4.841   2.016   6.965 -0.2529  0.0527  0.0085
   99MOL   C15949355   4.840   1.970   7.106  0.4809 -0.2379 -0.1655
   99MOL   C16049356   4.933   1.874   7.147 -0.5709 -0.5093  0.0587
   99MOL   C16149357   4.955   1.840   7.278  0.0052  0.4473  0.5422
   99MOL   C16249358   4.885   1.899   7.377 -0.0035  0.3090  0.1135
   99MOL   C16349359   4.792   1.999   7.348  1.0320  0.2399 -0.1542
   99MOL   C16449360   4.777   2.041   7.212  0.5692 -0.0764 -0.1437
   99MOL   H16549361   4.896   1.957   6.466 -0.5832  0.5227  1.7105
   99MOL   H16649362   4.905   1.798   6.414 -1.7182  0.0963 -0.0047
   99MOL   H16749363   4.875   1.675   6.795  0.6587 -1.9369 -0.6784
   99MOL   H16849364   4.878   1.624   6.621  0.5338 -1.4210  1.8868
   99MOL   H16949365   4.735   1.692   6.696 -0.0480  1.0731  0.1123
   99MOL   H17049366   4.912   2.097   6.950 -0.0011 -0.6280 -2.7702
   99MOL   H17149367   4.745   2.066   6.953  0.5098  1.7637  0.9670
   99MOL   H17249368   4.996   1.835   7.069  1.5118  1.8545  0.4944
   99MOL   H17349369   5.032   1.769   7.303 -0.9600 -0.1188  1.9351
   99MOL   H17449370   4.902   1.855   7.474  2.4485 -1.6288 -1.1655
   99MOL   H17549371   4.720   2.045   7.413 -1.2244 -1.3933 -1.4436
   99MOL   H17649372   4.700   2.112   7.186  0.3194 -0.4707 -0.4905
   99MOL   C17749373   5.051   1.829   6.629 -0.1575  0.5776 -0.0436
   99MOL   C17849374   5.168   1.816   6.737  0.9504 -0.3032 -0.5506
   99MOL   C17949375   5.138   1.696   6.826  0.5674  0.3993  0.1894
   99MOL   C18049376   5.179   1.946   6.822  1.0200 -0.1808 -0.3254
   99MOL   O18149377   5.177   1.942   6.950 -0.2730 -0.5454 -0.1851
   99MOL   O18249378   5.183   2.054   6.757 -0.5065 -0.2660 -0.0040
   99MOL   C18349379   5.189   2.181   6.833  0.3063 -0.3892 -0.1224
   99MOL   C18449380   5.155   2.313   6.760  0.0931  0.5466  0.0500
   99MOL   C18549381   5.201   2.436   6.801  0.1692 -0.7657 -0.0454
   99MOL   C18649382   5.167   2.558   6.724 -0.3224  0.1525  0.0129
   99MOL   C18749383   5.078   2.550   6.619 -0.4287 -0.0782 -0.3252
   99MOL   C18849384   5.021   2.428   6.587  0.0221 -0.3467 -0.2943
   99MOL   C18949385   5.064   2.311   6.656  0.0426 -0.0518 -0.2199
   99MOL   H19049386   5.090   1.909   6.566  2.5131 -0.9245 -0.3581
   99MOL   H19149387   5.068   1.741   6.568 -1.9558  0.4676 -0.3928
   99MOL   H19249388   5.115   1.607   6.768 -0.7460 -1.0566  2.8586
   99MOL   H19349389   5.057   1.719   6.895  0.0717 -0.3864 -0.1340
   99MOL   H19449390   5.221   1.659   6.888  0.1353  0.4588  0.8116
   99MOL   H19549391   5.142   2.187   6.931 -1.4997 -2.4641 -0.8285
   99MOL   H19649392   5.296   2.198   6.846  0.0178 -0.2024  2.2211
   99MOL   H19749393   5.263   2.455   6.887  0.2263  1.0407 -0.4556
   99MOL   H19849394   5.211   2.650   6.759 -2.5470  1.1274  0.3042
   99MOL   H19949395   5.063   2.639   6.559  1.3486  0.7429  0.3912
   99MOL   H20049396   4.955   2.406   6.505 -1.5763 -0.6129  1.0274
   99MOL   H20149397   5.037   2.213   6.619  0.0328 -1.1879  2.6857
   99MOL   C20249398   5.290   1.789   6.648  0.4432  0.0965 -0.4816
   99MOL   C20349399   5.444   1.816   6.690 -0.1215  0.5084 -0.4692
   99MOL   C20449400   5.468   1.752   6.831 -0.0895 -0.0599 -0.3517
   99MOL   C20549401   5.477   1.964   6.693 -0.8995  0.0044 -0.5032
   99MOL   O20649402   5.420   2.041   6.616 -0.5402  0.2454  0.0557
   99MOL   O20749403   5.583   1.991   6.763 -0.1724  0.2535  0.1535
   99MOL   C20849404   5.639   2.123   6.760  0.2531 -0.2364  0.4358
   99MOL   C20949405   5.760   2.152   6.851 -0.6045 -0.3834 -0.0996
   99MOL   C21049406   5.775   2.283   6.904  0.7265  0.2526  0.4540
   99MOL   C21149407   5.884   2.310   6.990  0.8014  0.1044  0.3686
   99MOL   C21249408   5.972   2.210   7.025 -0.5540  0.4423 -0.4844
   99MOL   C21349409   5.964   2.081   6.972  0.2647 -0.4486  0.8044
   99MOL   C21449410   5.853   2.057   6.889 -0.3461  0.3465 -0.5963
   99MOL   H21549411   5.275   1.848   6.558 -1.2145  2.4951  1.2964
   99MOL   H21649412   5.282   1.686   6.613  0.5781 -1.1555  2.9781
   99MOL   H21749413   5.431   1.649   6.825  1.6516 -0.9920  3.3523
   99MOL   H21849414   5.405   1.792   6.910 -0.9210 -1.0002 -0.5345
   99MOL   H21949415   5.572   1.744   6.863 -0.0194 -0.9963 -0.7968
   99MOL   H22049416   5.674   2.126   6.657 -3.8161  0.1357 -1.0620
   99MOL   H22149417   5.562   2.200   6.773 -0.3785 -1.0157  1.4040
   99MOL   H22249418   5.702   2.360   6.887 -0.6931 -0.1795  4.0941
   99MOL   H22349419   5.893   2.410   7.030  0.9038  0.3889 -0.3650
   99MOL   H22449420   6.041   2.239   7.103  0.9535  0.8259 -1.9397
   99MOL   H22549421   6.028   2.011   7.022  1.2790  0.0961  0.2801
   99MOL   H22649422   5.848   1.955   6.853  0.1599  0.6120 -1.4400
   99MOL   C22749423   5.552   1.745   6.599 -0.7749  0.1361 -0.1590
   99MOL   C22849424   5.553   1.753   6.436 -0.6760  0.0773  0.4327
   99MOL   C22949425   5.502   1.885   6.370 -0.7062  0.1803 -0.2959
   99MOL   C23049426   5.446   1.649   6.390 -0.7492 -0.3541  0.3873
   99MOL   O23149427   5.336   1.674   6.344  0.1954  0.1893  0.0400
   99MOL   O23249428   5.499   1.529   6.393  0.1270 -0.0551  0.7681
   99MOL   C23349429   5.433   1.426   6.320  0.1220 -0.3938  0.6392
   99MOL   C23449430   5.503   1.418   6.186 -0.4875 -0.2761  0.4670
   99MOL   C23549431   5.642   1.400   6.185  0.4892  0.4626  0.0019
   99MOL   C23649432   5.714   1.387   6.063 -0.4041  0.6576  0.0061
   99MOL   C23749433   5.644   1.398   5.941 -0.0543 -0.0589  0.0669
   99MOL   C23849434   5.510   1.430   5.946  0.5493 -0.0265  0.0720
   99MOL   C23949435   5.438   1.425   6.065  0.7218 -0.4581 -0.1123
   99MOL   H24049436   5.563   1.638   6.617  0.6391 -0.1769 -2.6938
   99MOL   H24149437   5.652   1.772   6.633 -0.0179 -1.8172 -0.7642
   99MOL   H24249438   5.401   1.922   6.391 -0.5285  0.5189 -0.0315
   99MOL   H24349439   5.503   1.869   6.262 -0.0073 -0.6133 -0.1779
   99MOL   H24449440   5.558   1.977   6.384  0.4782 -0.8034  1.5864
   99MOL   H24549441   5.463   1.341   6.381  0.4999 -1.7374 -1.3515
   99MOL   H24649442   5.325   1.440   6.311  0.1775 -0.5401 -0.3841
   99MOL   H24749443   5.692   1.395   6.280  0.2531  1.3462  0.1810
   99MOL   H24849444   5.821   1.375   6.060 -0.3305  1.3371 -0.1141
   99MOL   H24949445   5.698   1.387   5.848  1.2552  0.4178  0.7433
   99MOL   H25049446   5.456   1.432   5.853 -2.8126  0.0183  1.9338
   99MOL   H25149447   5.331   1.439   6.068  1.0153  2.9490 -2.0557
   99MOL   C25249448   5.696   1.704   6.388  0.1951 -0.2862  0.3341
   99MOL   C25349449   5.817   1.807   6.360 -0.3580  0.0249 -0.4236
   99MOL   C25449450   5.825   1.902   6.478 -0.5408 -0.0315  0.2505
   99MOL   C25549451   5.790   1.875   6.224  0.4147 -0.3196  0.7108
   99MOL   O25649452   5.779   1.997   6.220 -0.0198  0.3161 -0.5575
   99MOL   O25749453   5.763   1.798   6.117  0.3675  0.0192 -0.1394
   99MOL   C25849454   5.716   1.852   5.996  0.2806 -0.0592 -0.5353
   99MOL   C25949455   5.566   1.898   6.000  0.3587 -0.4679 -0.4368
   99MOL   C26049456   5.538   2.038   6.016 -0.1665 -0.8959 -0.3642
   99MOL   C26149457   5.406   2.074   6.054 -0.8495  0.3520 -0.0131
   99MOL   C26249458   5.304   1.978   6.069 -0.0001  0.3947 -0.4224
   99MOL   C26349459   5.338   1.842   6.048  0.6995  0.3526 -0.2722
   99MOL   C26449460   5.465   1.804   6.006  0.0715 -0.6185  0.8343
   99MOL   H26549461   5.681   1.651   6.294 -0.8606  1.1105 -0.2841
   99MOL   H26649462   5.739   1.627   6.452  1.0207  0.3174  0.5173
   99MOL   H26749463   5.729   1.937   6.519 -0.7686 -0.5999  0.1980
   99MOL   H26849464   5.882   1.989   6.446 -1.6706 -0.2166 -2.4424
   99MOL   H26949465   5.892   1.857   6.551 -1.0998 -0.8723  0.2479
   99MOL   H27049466   5.777   1.934   5.959 -3.1586  3.2132  0.7022
   99MOL   H27149467   5.717   1.777   5.916 -1.2972  0.1556 -0.7688
   99MOL   H27249468   5.614   2.112   5.999 -1.0646 -0.1589 -1.2322
   99MOL   H27349469   5.380   2.177   6.068 -0.7969  0.1569  1.7309
   99MOL   H27449470   5.203   2.009   6.090  0.8247 -1.1676  7.3310
   99MOL   H27549471   5.259   1.771   6.071  1.9530 -0.4289  1.7975
   99MOL   H27649472   5.492   1.699   6.007  0.1857 -0.7047 -2.7639
   99MOL   C27749473   5.953   1.714   6.343 -0.0193  0.4160  1.1096
   99MOL   C27849474   6.101   1.766   6.303  0.1457 -0.0392 -0.6698
   99MOL   C27949475   6.137   1.868   6.416 -0.1444 -0.2147  0.2509
   99MOL   C28049476   6.099   1.839   6.161 -0.0567  0.3773 -0.1160
   99MOL   O28149477   6.066   1.791   6.056 -0.4014  0.0999  0.2618
   99MOL   O28249478   6.128   1.973   6.163  0.1859  0.0880 -0.4544
   99MOL   C28349479   6.134   2.049   6.044  0.3206 -0.1648  0.2126
   99MOL   C28449480   6.208   2.184   6.059  0.2964  0.0055  0.5385
   99MOL   C28549481   6.340   2.186   6.118  0.5798 -0.1293  0.1769
   99MOL   C28649482   6.408   2.306   6.120 -0.5625 -0.1916  0.1280
   99MOL   C28749483   6.340   2.425   6.088  0.2763 -0.5712 -0.3489
   99MOL   C28849484   6.205   2.420   6.043  0.1696 -0.4401 -0.1809
   99MOL   C28949485   6.133   2.302   6.028 -1.0853 -0.7982  0.6715
   99MOL   H29049486   5.913   1.636   6.279  2.4050 -1.0241  1.2912
   99MOL   H29149487   5.972   1.660   6.436  0.0711 -0.9363  0.3113
   99MOL   H29249488   6.095   1.968   6.406 -1.1072 -0.6763 -0.3830
   99MOL   H29349489   6.243   1.893   6.403  0.0436  0.3400  2.6336
   99MOL   H29449490   6.112   1.833   6.516 -0.8977  3.1727  1.2973
   99MOL   H29549491   6.188   1.995   5.966  1.4458 -0.8352  1.4448
   99MOL   H29649492   6.032   2.067   6.010  0.4497 -0.2360 -0.2138
   99MOL   H29749493   6.390   2.095   6.145 -1.6871 -0.9259  1.8886
   99MOL   H29849494   6.500   2.315   6.176  0.3245  1.7187 -1.5636
   99MOL   H29949495   6.397   2.516   6.102  1.0282 -0.9383 -0.9441
   99MOL   H30049496   6.157   2.514   6.022 -0.3282 -0.0296  2.5330
   99MOL   H30149497   6.033   2.309   5.987 -0.5679 -0.1218 -0.4943
   99MOL   C30249498   6.208   1.657   6.309  0.0142 -0.2366  0.3479
   99MOL   C30349499   6.199   1.505   6.255 -0.2556  0.0104  0.2999
   99MOL   C30449500   6.157   1.496   6.105  0.1470 -0.6086 -0.2647
   99MOL   C30549501   6.093   1.433   6.339 -0.1677 -0.3149 -0.1618
   99MOL   O30649502   5.982   1.397   6.304  0.3891 -0.0226 -0.1010
   99MOL   O30749503   6.135   1.412   6.463 -0.1243 -0.5078  0.4405
   99MOL   C30849504   6.046   1.354   6.564 -0.1451  0.3053  0.1939
   99MOL   C30949505   5.982   1.462   6.656  0.9454  0.6999 -0.0329
   99MOL   C31049506   6.053   1.564   6.716  0.2697  0.1842 -1.0589
   99MOL   C31149507   5.988   1.650   6.806  0.2323  0.2874 -0.4007
   99MOL   C31249508   5.857   1.626   6.845  0.8019  0.5721 -0.0117
   99MOL   C31349509   5.792   1.519   6.791 -0.7160  0.5646  0.0454
   99MOL   C31449510   5.843   1.439   6.688 -0.0265  0.6137  0.0006
   99MOL   H31549511   6.233   1.636   6.413  0.2331 -0.4445  0.2545
   99MOL   H31649512   6.301   1.694   6.265 -0.1197  1.3328  1.3706
   99MOL   H31749513   6.049   1.511   6.103  0.3013  0.6257 -3.4283
   99MOL   H31849514   6.181   1.400   6.059 -0.2912 -0.8203 -0.0563
   99MOL   H31949515   6.190   1.569   6.030  1.5653 -0.6181  0.3534
   99MOL   H32049516   5.971   1.298   6.510  1.2462 -0.9528 -0.4800
   99MOL   H32149517   6.097   1.278   6.624  0.3907  0.5675  0.0802
   99MOL   H32249518   6.160   1.570   6.703  0.5758 -0.1968  0.9761
   99MOL   H32349519   6.052   1.729   6.845  0.5255 -0.3507  0.4193
   99MOL   H32449520   5.813   1.689   6.921 -1.2363 -0.0627 -0.6367
   99MOL   H32549521   5.694   1.501   6.833 -0.1441 -0.5514  0.9482
   99MOL   H32649522   5.790   1.351   6.655  0.0239  0.1025  1.2314
   99MOL   C32749523   6.343   1.449   6.263  0.0917  1.2412  0.3513
   99MOL   C32849524   6.392   1.302   6.255 -0.0774 -0.3868 -0.4738
   99MOL   C32949525   6.306   1.212   6.158 -0.3426 -0.0138 -0.5579
   99MOL   C33049526   6.395   1.246   6.401 -0.9214  0.1425 -0.2907
   99MOL   O33149527   6.336   1.136   6.421  0.1359 -0.0620  0.5171
   99MOL   O33249528   6.471   1.308   6.490  0.2320  0.3906 -0.2890
   99MOL   C33349529   6.492   1.244   6.614  0.1825 -0.3803  0.2119
   99MOL   C33449530   6.608   1.303   6.687  0.0318 -0.1897 -0.3155
   99MOL   C33549531   6.626   1.268   6.825 -0.4108 -0.8778  0.2607
   99MOL   C33649532   6.729   1.321   6.903 -0.7865  0.7404  0.0033
   99MOL   C33749533   6.814   1.410   6.843 -0.5582  0.5540  0.1184
   99MOL   C33849534   6.803   1.447   6.705 -0.0788 -0.3696 -0.2020
   99MOL   C33949535   6.698   1.392   6.623 -0.6353 -0.4848 -0.0299
   99MOL   H34049536   6.379   1.490   6.358  1.1103 -1.2845  1.1055
   99MOL   H34149537   6.388   1.501   6.178 -1.6735  3.5479  0.7827
   99MOL   H34249538   6.201   1.211   6.187  0.0330 -1.1811  0.8238
   99MOL   H34349539   6.324   1.106   6.173 -1.2837 -0.0829  0.1731
   99MOL   H34449540   6.315   1.228   6.050 -0.9065 -2.1106 -0.9407
   99MOL   H34549541   6.404   1.248   6.678 -1.3596  2.1186 -1.9637
   99MOL   H34649542   6.525   1.140   6.604 -2.0525 -1.0649 -0.4537
   99MOL   H34749543   6.546   1.210   6.870 -0.0352 -2.4210 -1.0231
   99MOL   H34849544   6.735   1.300   7.009  0.6259  2.1179  0.2000
   99MOL   H34949545   6.886   1.443   6.916 -1.3129 -0.1356  1.1973
   99MOL   H35049546   6.878   1.516   6.670  0.4822  0.2446  2.1296
   99MOL   H35149547   6.687   1.415   6.518 -0.1069 -0.6953 -0.1346
   99MOL   C35249548   6.541   1.318   6.190 -0.1329 -0.0291 -0.3026
   99MOL   C35349549   6.654   1.210   6.163 -0.1378 -0.2060 -0.8217
   99MOL   C35449550   6.775   1.283   6.098  0.5628  0.1047  0.1751
   99MOL   C35549551   6.597   1.107   6.069  0.7165  0.7399 -0.2847
   99MOL   O35649552   6.557   1.000   6.110  0.2454 -0.1977  0.4045
   99MOL   O35749553   6.575   1.156   5.942 -0.5444 -0.0697 -0.5579
   99MOL   C35849554   6.521   1.081   5.840  0.3323  0.1904 -0.2638
   99MOL   C35949555   6.412   1.156   5.761  0.0839  0.9119  0.8043
   99MOL   C36049556   6.366   1.286   5.802 -0.0042  0.0677 -0.8943
   99MOL   C36149557   6.256   1.349   5.731 -0.0694 -0.1419  0.1469
   99MOL   C36249558   6.201   1.276   5.620  0.6210  0.5372 -0.9136
   99MOL   C36349559   6.259   1.155   5.577  0.5739 -0.6577 -0.1130
   99MOL   C36449560   6.363   1.093   5.649 -0.1408  0.5280 -0.2546
   99MOL   H36549561   6.594   1.396   6.245 -3.6282  2.4554 -0.2814
   99MOL   H36649562   6.545   1.371   6.095 -1.9507 -0.0864 -0.4351
   99MOL   H36749563   6.850   1.222   6.046  1.7725  1.3919  0.3957
   99MOL   H36849564   6.827   1.345   6.171 -1.5068  0.2004  1.5811
   99MOL   H36949565   6.744   1.350   6.018 -0.6311  2.4031  2.5213
   99MOL   H37049566   6.604   1.062   5.772 -0.3555 -1.0740 -0.7645
   99MOL   H37149567   6.487   0.987   5.880 -1.3062  0.6753 -0.4853
   99MOL   H37249568   6.406   1.343   5.885  0.4965 -1.6639  0.0935
   99MOL   H37349569   6.212   1.445   5.754 -0.0389 -0.1711  0.3254
   99MOL   H37449570   6.113   1.318   5.573 -0.6363 -0.9249  0.0681
   99MOL   H37549571   6.202   1.107   5.499 -2.4193  0.3057  1.4132
   99MOL   H37649572   6.403   0.998   5.616 -0.9606  0.0485  0.1139
   99MOL   C37749573   6.705   1.148   6.303 -1.1271 -0.8711  0.6040
   99MOL   C37849574   6.813   1.037   6.331  0.3329  0.1419 -0.2568
   99MOL   C37949575   6.824   1.024   6.481 -0.3852 -0.2440  0.4002
   99MOL   C38049576   6.952   1.085   6.271  0.3254  0.2070 -0.5592
   99MOL   O38149577   7.001   1.034   6.169 -0.0458 -0.3078 -0.8397
   99MOL   O38249578   6.998   1.195   6.333 -0.0744  0.6504  0.0167
   99MOL   C38349579   7.121   1.260   6.300 -0.5104  0.4123  0.3336
   99MOL   C38449580   7.105   1.373   6.196  0.6399 -0.2519 -0.4734
   99MOL   C38549581   7.054   1.497   6.241 -0.4124 -0.6177  0.2534
   99MOL   C38649582   7.046   1.609   6.156 -0.0394 -0.3510  0.1189
   99MOL   C38749583   7.093   1.601   6.024 -0.0028 -0.0474 -0.0637
   99MOL   C38849584   7.154   1.483   5.984 -0.2344 -0.4670 -0.2362
   99MOL   C38949585   7.159   1.365   6.063 -0.8242 -0.1607  0.2058
   99MOL   H39049586   6.618   1.111   6.357 -0.7870 -1.1498  0.9668
   99MOL   H39149587   6.726   1.240   6.358 -1.7086 -0.2624 -0.1752
   99MOL   H39249588   6.839   1.125   6.521  1.6037  0.2676 -1.5242
   99MOL   H39349589   6.905   0.959   6.513  0.7455  0.3690 -1.1378
   99MOL   H39449590   6.738   0.985   6.534  0.5136 -0.5749  1.6373
   99MOL   H39549591   7.180   1.292   6.386 -0.2670 -0.8028  0.6241
   99MOL   H39649592   7.181   1.192   6.240  3.2785  3.9335 -0.0975
   99MOL   H39749593   7.019   1.509   6.343  1.4937 -2.6861  1.1847
   99MOL   H39849594   6.990   1.691   6.197 -1.7942 -2.3954  1.9520
   99MOL   H39949595   7.090   1.690   5.962 -0.9886 -0.2346 -0.2926
   99MOL   H40049596   7.188   1.472   5.882  0.4880 -1.1744  0.0759
   99MOL   H40149597   7.213   1.278   6.029  0.5924  1.0532 -0.6680
   99MOL   C40249598   6.775   0.896   6.276 -0.6003 -0.4639  0.4150
   99MOL   C40349599   6.838   0.760   6.327  0.0619  0.0966 -0.5201
   99MOL   C40449600   6.993   0.778   6.340 -0.7585  0.0835  0.2802
   99MOL   C40549601   6.818   0.657   6.215  0.0976  0.1561  0.0351
   99MOL   O40649602   6.909   0.577   6.174  0.0282 -0.4369 -0.0170
   99MOL   O40749603   6.693   0.658   6.157 -0.3594 -0.4360  0.5342
   99MOL   C40849604   6.674   0.569   6.049 -0.2793  0.3523 -0.6455
   99MOL   C40949605   6.538   0.589   5.976 -0.9866  0.2779  0.9066
   99MOL   C41049606   6.444   0.681   6.023 -0.1431  0.3291  0.0660
   99MOL   C41149607   6.339   0.721   5.931 -0.6884 -0.4977 -0.4164
   99MOL   C41249608   6.320   0.660   5.805  0.3261  0.2077 -0.7485
   99MOL   C41349609   6.415   0.563   5.762 -0.0479  0.2101 -0.6795
   99MOL   C41449610   6.520   0.528   5.850  0.0085 -0.5635  0.4349
   99MOL   H41549611   6.778   0.910   6.168  2.2101  0.7946  0.5971
   99MOL   H41649612   6.670   0.894   6.305 -1.2622 -1.1674 -1.9062
   99MOL   H41749613   7.034   0.835   6.423  0.0363  1.0549 -0.7556
   99MOL   H41849614   7.034   0.821   6.248  1.0194 -0.4756  0.7827
   99MOL   H41949615   7.043   0.681   6.346  0.1305  0.5289  0.2239
   99MOL   H42049616   6.760   0.571   5.982  0.3377  1.1951  0.1742
   99MOL   H42149617   6.671   0.475   6.105 -0.0781 -0.6948 -2.3459
   99MOL   H42249618   6.443   0.724   6.122  0.2013 -1.9026  1.0901
   99MOL   H42349619   6.266   0.788   5.973  1.7802  1.7215  0.4577
   99MOL   H42449620   6.242   0.690   5.736  0.2552 -4.0511 -2.6579
   99MOL   H42549621   6.411   0.525   5.661 -2.4483  0.7293 -0.8265
   99MOL   H42649622   6.591   0.449   5.830 -0.3078 -1.4946  2.8366
   99MOL   C42749623   6.763   0.693   6.444  0.1269 -0.0642  1.3984
   99MOL   C42849624   6.800   0.569   6.535  1.3800 -0.5672 -0.2928
   99MOL   C42949625   6.669   0.521   6.606 -0.0236  0.1380 -0.0424
   99MOL   C43049626   6.894   0.624   6.643 -0.1884 -0.5658 -0.5288
   99MOL   O43149627   6.858   0.650   6.761  0.1178 -0.3807  0.3274
   99MOL   O43249628   7.014   0.645   6.597  0.4830 -0.3095 -0.3894
   99MOL   C43349629   7.119   0.699   6.677 -0.2045  0.2063  0.7663
   99MOL   C43449630   7.121   0.852   6.690 -0.3802  0.6981  0.1809
   99MOL   C43549631   7.192   0.932   6.594 -0.5015  0.5936 -0.7162
   99MOL   C43649632   7.204   1.073   6.621  0.3416  0.3110  0.7655
   99MOL   C43749633   7.143   1.125   6.740  0.6068  0.8072 -0.0421
   99MOL   C43849634   7.055   1.047   6.818 -0.5306  0.1868 -0.6409
   99MOL   C43949635   7.050   0.906   6.800  0.1021 -0.3833 -0.5890
   99MOL   H44049636   6.663   0.679   6.404 -0.7110  1.8860  2.6840
   99MOL   H44149637   6.742   0.776   6.513 -2.6589 -1.0969  1.8669
   99MOL   H44249638   6.611   0.609   6.634 -0.6619 -0.2182 -0.2530
   99MOL   H44349639   6.676   0.457   6.694  1.8011  0.4350  0.0424
   99MOL   H44449640   6.601   0.466   6.541  1.3934 -0.4805 -1.0154
   99MOL   H44549641   7.120   0.660   6.779  0.1002 -0.5573  0.4805
   99MOL   H44649642   7.207   0.667   6.620 -0.2450 -1.0232  1.3775
   99MOL   H44749643   7.231   0.881   6.508  2.1205  1.6454 -0.2056
   99MOL   H44849644   7.269   1.145   6.573  1.2798 -1.0963 -0.1066
   99MOL   H44949645   7.150   1.227   6.774 -2.1678  0.5095  1.5786
   99MOL   H45049646   6.993   1.088   6.896  2.1106  2.8528  0.1980
   99MOL   H45149647   6.991   0.841   6.863  0.1099 -0.1327 -0.3214
   99MOL   C45249648   6.855   0.448   6.449  0.2115  0.1391  0.7544
   99MOL   C45349649   6.890   0.309   6.509 -0.2793 -0.7376 -0.1889
   99MOL   C45449650   6.971   0.252   6.390  0.1082  0.3712  0.3556
   99MOL   C45549651   6.770   0.226   6.548  0.2910 -0.1872 -0.0348
   99MOL   O45649652   6.729   0.215   6.662 -1.1334  0.7633  0.4110
   99MOL   O45749653   6.711   0.167   6.449 -0.3071 -0.5786  0.3031
   99MOL   C45849654   6.580   0.115   6.458  0.5172  0.1690  0.6668
   99MOL   C45949655   6.501   0.133   6.332 -0.6212  0.4456 -0.1663
   99MOL   C46049656   6.514   0.235   6.236  0.0574  0.7708 -0.2944
   99MOL   C46149657   6.425   0.244   6.124 -0.7259 -0.7686  0.4091
   99MOL   C46249658   6.320   0.150   6.113 -0.1262 -0.0622  0.7308
   99MOL   C46349659   6.309   0.045   6.202  0.5096  0.2535 -0.5614
   99MOL   C46449660   6.389   0.042   6.316  0.1202  0.0637  0.8148
   99MOL   H46549661   6.943   0.484   6.396 -0.0671  1.1910  0.9866
   99MOL   H46649662   6.783   0.438   6.368  1.1114  0.7118 -0.1276
   99MOL   H46749663   7.057   0.311   6.356  1.2452 -1.6834 -0.4316
   99MOL   H46849664   6.902   0.241   6.307 -1.4368 -0.4285  1.7138
   99MOL   H46949665   7.008   0.152   6.415  0.3242  0.7645  1.6979
   99MOL   H47049666   6.585   0.009   6.483 -0.0969  0.1659  0.7827
   99MOL   H47149667   6.527   0.168   6.537 -0.8622 -0.9330  0.4941
   99MOL   H47249668   6.603   0.295   6.249  0.9144  0.0863 -2.7307
   99MOL   H47349669   6.433   0.316   6.044 -0.0937 -1.6455 -0.3267
   99MOL   H47449670   6.252   0.143   6.029  1.2575 -2.8617 -0.2299
   99MOL   H47549671   6.241   7.970   6.184 -1.7607  1.8202  0.7160
   99MOL   H47649672   6.376   7.969   6.386  1.5983 -0.5596  0.3955
   99MOL   C47749673   6.982   0.315   6.638  0.3273 -0.7141  0.4890
   99MOL   C47849674   7.038   0.175   6.684 -0.7102  0.6129  0.8427
   99MOL   C47949675   7.011   0.147   6.833  0.1922  0.0870  0.5301
   99MOL   C48049676   7.191   0.162   6.642 -0.2302 -0.0102  0.0851
   99MOL   O48149677   7.236   0.056   6.596 -0.9475 -0.9190 -0.0602
   99MOL   O48249678   7.267   0.273   6.670 -0.2229 -0.3182  0.1228
   99MOL   C48349679   7.410   0.274   6.655  0.3728 -0.4775  0.5019
   99MOL   C48449680   7.462   0.417   6.644  0.4256 -0.5471  0.3989
   99MOL   C48549681   7.465   0.477   6.518  0.1177 -0.2564 -0.3722
   99MOL   C48649682   7.513   0.607   6.499 -0.9575  0.2403 -0.0718
   99MOL   C48749683   7.574   0.676   6.609  0.1243 -0.3169  0.1612
   99MOL   C48849684   7.559   0.626   6.735 -0.3317  0.2304 -0.3405
   99MOL   C48949685   7.502   0.496   6.752 -0.1878  0.5311  0.7360
   99MOL   H49049686   6.921   0.368   6.711  0.1289 -0.7115  0.3212
   99MOL   H49149687   7.064   0.385   6.624  1.1500 -1.6155  0.7427
   99MOL   H49249688   6.944   0.218   6.882 -1.9308 -1.2472 -0.3381
   99MOL   H49349689   7.106   0.156   6.884  1.5171  1.8279 -2.1165
   99MOL   H49449690   6.971   0.046   6.838 -0.0017  0.0335 -1.5706
   99MOL   H49549691   7.450   0.209   6.733 -1.3875 -1.9796  0.2065
   99MOL   H49649692   7.432   0.221   6.562  1.5672  0.7885  0.0431
   99MOL   H49749693   7.445   0.410   6.436 -2.3748 -1.2424  1.0174
   99MOL   H49849694   7.527   0.650   6.401  0.9503 -0.8216 -0.2958
   99MOL   H49949695   7.633   0.766   6.595  0.7583 -0.5121  1.5048
   99MOL   H50049696   7.592   0.678   6.824 -2.0219 -1.2483  1.1946
   99MOL   H50149697   7.509   0.453   6.851  0.1482  0.3593  0.6392
   99MOL   H50249698   6.990   0.099   6.622  0.7661 -0.1870  0.6380
   8.00702   8.00702   8.00702
