;
; Gromacs include topology (itp) file.
; For Molecular Group XYZ
; Force field scheme: opls2005
; Produced from DL_FIELD v4.11
;


[ moleculetype ]
; name    nrexcl
XYZ    3

[ atoms ]
; nr   type   resnr   residu    atom    cgnr    charge    mass
    1        CT    1  MOL      C1     1  -0.1800000   12.0115
    2        CT    1  MOL      C2     2   0.0000000   12.0115
    3        CT    1  MOL      C3     3  -0.1800000   12.0115
    4       CO4    1  MOL      C4     4   0.5100000   12.0115
    5         O    1  MOL      O5     5  -0.4300000   15.9994
    6       OES    1  MOL      O6     6  -0.3300000   15.9994
    7        CT    1  MOL      C7     7   0.2318000   12.0115
    8        CA    1  MOL      C8     8  -0.0418000   12.0115
    9        CA    1  MOL      C9     9  -0.1150000   12.0115
   10        CA    1  MOL     C10    10  -0.1150000   12.0115
   11        CA    1  MOL     C11    11  -0.1150000   12.0115
   12        CA    1  MOL     C12    12  -0.1150000   12.0115
   13        CA    1  MOL     C13    13  -0.1150000   12.0115
   14        HC    1  MOL     H14    14   0.0600000    1.0080
   15        HC    1  MOL     H15    15   0.0600000    1.0080
   16        HC    1  MOL     H16    16   0.0600000    1.0080
   17        HC    1  MOL     H17    17   0.0600000    1.0080
   18        HC    1  MOL     H18    18   0.0600000    1.0080
   19       HAE    1  MOL     H19    19   0.0300000    1.0080
   20       HAE    1  MOL     H20    20   0.0300000    1.0080
   21        HA    1  MOL     H21    21   0.1150000    1.0080
   22        HA    1  MOL     H22    22   0.1150000    1.0080
   23        HA    1  MOL     H23    23   0.1150000    1.0080
   24        HA    1  MOL     H24    24   0.1150000    1.0080
   25        HA    1  MOL     H25    25   0.1150000    1.0080
   26        HC    1  MOL     H26    26   0.0600000    1.0080
   27        CT    1  MOL     C27    27  -0.1200000   12.0115
   28        CT    1  MOL     C28    28   0.0000000   12.0115
   29        CT    1  MOL     C29    29  -0.1800000   12.0115
   30       CO4    1  MOL     C30    30   0.5100000   12.0115
   31         O    1  MOL     O31    31  -0.4300000   15.9994
   32       OES    1  MOL     O32    32  -0.3300000   15.9994
   33        CT    1  MOL     C33    33   0.2318000   12.0115
   34        CA    1  MOL     C34    34  -0.0418000   12.0115
   35        CA    1  MOL     C35    35  -0.1150000   12.0115
   36        CA    1  MOL     C36    36  -0.1150000   12.0115
   37        CA    1  MOL     C37    37  -0.1150000   12.0115
   38        CA    1  MOL     C38    38  -0.1150000   12.0115
   39        CA    1  MOL     C39    39  -0.1150000   12.0115
   40        HC    1  MOL     H40    40   0.0600000    1.0080
   41        HC    1  MOL     H41    41   0.0600000    1.0080
   42        HC    1  MOL     H42    42   0.0600000    1.0080
   43        HC    1  MOL     H43    43   0.0600000    1.0080
   44        HC    1  MOL     H44    44   0.0600000    1.0080
   45       HAE    1  MOL     H45    45   0.0300000    1.0080
   46       HAE    1  MOL     H46    46   0.0300000    1.0080
   47        HA    1  MOL     H47    47   0.1150000    1.0080
   48        HA    1  MOL     H48    48   0.1150000    1.0080
   49        HA    1  MOL     H49    49   0.1150000    1.0080
   50        HA    1  MOL     H50    50   0.1150000    1.0080
   51        HA    1  MOL     H51    51   0.1150000    1.0080
   52        CT    1  MOL     C52    52  -0.1200000   12.0115
   53        CT    1  MOL     C53    53   0.0000000   12.0115
   54        CT    1  MOL     C54    54  -0.1800000   12.0115
   55       CO4    1  MOL     C55    55   0.5100000   12.0115
   56         O    1  MOL     O56    56  -0.4300000   15.9994
   57       OES    1  MOL     O57    57  -0.3300000   15.9994
   58        CT    1  MOL     C58    58   0.2318000   12.0115
   59        CA    1  MOL     C59    59  -0.0418000   12.0115
   60        CA    1  MOL     C60    60  -0.1150000   12.0115
   61        CA    1  MOL     C61    61  -0.1150000   12.0115
   62        CA    1  MOL     C62    62  -0.1150000   12.0115
   63        CA    1  MOL     C63    63  -0.1150000   12.0115
   64        CA    1  MOL     C64    64  -0.1150000   12.0115
   65        HC    1  MOL     H65    65   0.0600000    1.0080
   66        HC    1  MOL     H66    66   0.0600000    1.0080
   67        HC    1  MOL     H67    67   0.0600000    1.0080
   68        HC    1  MOL     H68    68   0.0600000    1.0080
   69        HC    1  MOL     H69    69   0.0600000    1.0080
   70       HAE    1  MOL     H70    70   0.0300000    1.0080
   71       HAE    1  MOL     H71    71   0.0300000    1.0080
   72        HA    1  MOL     H72    72   0.1150000    1.0080
   73        HA    1  MOL     H73    73   0.1150000    1.0080
   74        HA    1  MOL     H74    74   0.1150000    1.0080
   75        HA    1  MOL     H75    75   0.1150000    1.0080
   76        HA    1  MOL     H76    76   0.1150000    1.0080
   77        CT    1  MOL     C77    77  -0.1200000   12.0115
   78        CT    1  MOL     C78    78   0.0000000   12.0115
   79        CT    1  MOL     C79    79  -0.1800000   12.0115
   80       CO4    1  MOL     C80    80   0.5100000   12.0115
   81         O    1  MOL     O81    81  -0.4300000   15.9994
   82       OES    1  MOL     O82    82  -0.3300000   15.9994
   83        CT    1  MOL     C83    83   0.2318000   12.0115
   84        CA    1  MOL     C84    84  -0.0418000   12.0115
   85        CA    1  MOL     C85    85  -0.1150000   12.0115
   86        CA    1  MOL     C86    86  -0.1150000   12.0115
   87        CA    1  MOL     C87    87  -0.1150000   12.0115
   88        CA    1  MOL     C88    88  -0.1150000   12.0115
   89        CA    1  MOL     C89    89  -0.1150000   12.0115
   90        HC    1  MOL     H90    90   0.0600000    1.0080
   91        HC    1  MOL     H91    91   0.0600000    1.0080
   92        HC    1  MOL     H92    92   0.0600000    1.0080
   93        HC    1  MOL     H93    93   0.0600000    1.0080
   94        HC    1  MOL     H94    94   0.0600000    1.0080
   95       HAE    1  MOL     H95    95   0.0300000    1.0080
   96       HAE    1  MOL     H96    96   0.0300000    1.0080
   97        HA    1  MOL     H97    97   0.1150000    1.0080
   98        HA    1  MOL     H98    98   0.1150000    1.0080
   99        HA    1  MOL     H99    99   0.1150000    1.0080
  100        HA    1  MOL    H100   100   0.1150000    1.0080
  101        HA    1  MOL    H101   101   0.1150000    1.0080
  102        CT    1  MOL    C102   102  -0.1200000   12.0115
  103        CT    1  MOL    C103   103   0.0000000   12.0115
  104        CT    1  MOL    C104   104  -0.1800000   12.0115
  105       CO4    1  MOL    C105   105   0.5100000   12.0115
  106         O    1  MOL    O106   106  -0.4300000   15.9994
  107       OES    1  MOL    O107   107  -0.3300000   15.9994
  108        CT    1  MOL    C108   108   0.2318000   12.0115
  109        CA    1  MOL    C109   109  -0.0418000   12.0115
  110        CA    1  MOL    C110   110  -0.1150000   12.0115
  111        CA    1  MOL    C111   111  -0.1150000   12.0115
  112        CA    1  MOL    C112   112  -0.1150000   12.0115
  113        CA    1  MOL    C113   113  -0.1150000   12.0115
  114        CA    1  MOL    C114   114  -0.1150000   12.0115
  115        HC    1  MOL    H115   115   0.0600000    1.0080
  116        HC    1  MOL    H116   116   0.0600000    1.0080
  117        HC    1  MOL    H117   117   0.0600000    1.0080
  118        HC    1  MOL    H118   118   0.0600000    1.0080
  119        HC    1  MOL    H119   119   0.0600000    1.0080
  120       HAE    1  MOL    H120   120   0.0300000    1.0080
  121       HAE    1  MOL    H121   121   0.0300000    1.0080
  122        HA    1  MOL    H122   122   0.1150000    1.0080
  123        HA    1  MOL    H123   123   0.1150000    1.0080
  124        HA    1  MOL    H124   124   0.1150000    1.0080
  125        HA    1  MOL    H125   125   0.1150000    1.0080
  126        HA    1  MOL    H126   126   0.1150000    1.0080
  127        CT    1  MOL    C127   127  -0.1200000   12.0115
  128        CT    1  MOL    C128   128   0.0000000   12.0115
  129        CT    1  MOL    C129   129  -0.1800000   12.0115
  130       CO4    1  MOL    C130   130   0.5100000   12.0115
  131         O    1  MOL    O131   131  -0.4300000   15.9994
  132       OES    1  MOL    O132   132  -0.3300000   15.9994
  133        CT    1  MOL    C133   133   0.2318000   12.0115
  134        CA    1  MOL    C134   134  -0.0418000   12.0115
  135        CA    1  MOL    C135   135  -0.1150000   12.0115
  136        CA    1  MOL    C136   136  -0.1150000   12.0115
  137        CA    1  MOL    C137   137  -0.1150000   12.0115
  138        CA    1  MOL    C138   138  -0.1150000   12.0115
  139        CA    1  MOL    C139   139  -0.1150000   12.0115
  140        HC    1  MOL    H140   140   0.0600000    1.0080
  141        HC    1  MOL    H141   141   0.0600000    1.0080
  142        HC    1  MOL    H142   142   0.0600000    1.0080
  143        HC    1  MOL    H143   143   0.0600000    1.0080
  144        HC    1  MOL    H144   144   0.0600000    1.0080
  145       HAE    1  MOL    H145   145   0.0300000    1.0080
  146       HAE    1  MOL    H146   146   0.0300000    1.0080
  147        HA    1  MOL    H147   147   0.1150000    1.0080
  148        HA    1  MOL    H148   148   0.1150000    1.0080
  149        HA    1  MOL    H149   149   0.1150000    1.0080
  150        HA    1  MOL    H150   150   0.1150000    1.0080
  151        HA    1  MOL    H151   151   0.1150000    1.0080
  152        CT    1  MOL    C152   152  -0.1200000   12.0115
  153        CT    1  MOL    C153   153   0.0000000   12.0115
  154        CT    1  MOL    C154   154  -0.1800000   12.0115
  155       CO4    1  MOL    C155   155   0.5100000   12.0115
  156         O    1  MOL    O156   156  -0.4300000   15.9994
  157       OES    1  MOL    O157   157  -0.3300000   15.9994
  158        CT    1  MOL    C158   158   0.2318000   12.0115
  159        CA    1  MOL    C159   159  -0.0418000   12.0115
  160        CA    1  MOL    C160   160  -0.1150000   12.0115
  161        CA    1  MOL    C161   161  -0.1150000   12.0115
  162        CA    1  MOL    C162   162  -0.1150000   12.0115
  163        CA    1  MOL    C163   163  -0.1150000   12.0115
  164        CA    1  MOL    C164   164  -0.1150000   12.0115
  165        HC    1  MOL    H165   165   0.0600000    1.0080
  166        HC    1  MOL    H166   166   0.0600000    1.0080
  167        HC    1  MOL    H167   167   0.0600000    1.0080
  168        HC    1  MOL    H168   168   0.0600000    1.0080
  169        HC    1  MOL    H169   169   0.0600000    1.0080
  170       HAE    1  MOL    H170   170   0.0300000    1.0080
  171       HAE    1  MOL    H171   171   0.0300000    1.0080
  172        HA    1  MOL    H172   172   0.1150000    1.0080
  173        HA    1  MOL    H173   173   0.1150000    1.0080
  174        HA    1  MOL    H174   174   0.1150000    1.0080
  175        HA    1  MOL    H175   175   0.1150000    1.0080
  176        HA    1  MOL    H176   176   0.1150000    1.0080
  177        CT    1  MOL    C177   177  -0.1200000   12.0115
  178        CT    1  MOL    C178   178   0.0000000   12.0115
  179        CT    1  MOL    C179   179  -0.1800000   12.0115
  180       CO4    1  MOL    C180   180   0.5100000   12.0115
  181         O    1  MOL    O181   181  -0.4300000   15.9994
  182       OES    1  MOL    O182   182  -0.3300000   15.9994
  183        CT    1  MOL    C183   183   0.2318000   12.0115
  184        CA    1  MOL    C184   184  -0.0418000   12.0115
  185        CA    1  MOL    C185   185  -0.1150000   12.0115
  186        CA    1  MOL    C186   186  -0.1150000   12.0115
  187        CA    1  MOL    C187   187  -0.1150000   12.0115
  188        CA    1  MOL    C188   188  -0.1150000   12.0115
  189        CA    1  MOL    C189   189  -0.1150000   12.0115
  190        HC    1  MOL    H190   190   0.0600000    1.0080
  191        HC    1  MOL    H191   191   0.0600000    1.0080
  192        HC    1  MOL    H192   192   0.0600000    1.0080
  193        HC    1  MOL    H193   193   0.0600000    1.0080
  194        HC    1  MOL    H194   194   0.0600000    1.0080
  195       HAE    1  MOL    H195   195   0.0300000    1.0080
  196       HAE    1  MOL    H196   196   0.0300000    1.0080
  197        HA    1  MOL    H197   197   0.1150000    1.0080
  198        HA    1  MOL    H198   198   0.1150000    1.0080
  199        HA    1  MOL    H199   199   0.1150000    1.0080
  200        HA    1  MOL    H200   200   0.1150000    1.0080
  201        HA    1  MOL    H201   201   0.1150000    1.0080
  202        CT    1  MOL    C202   202  -0.1200000   12.0115
  203        CT    1  MOL    C203   203   0.0000000   12.0115
  204        CT    1  MOL    C204   204  -0.1800000   12.0115
  205       CO4    1  MOL    C205   205   0.5100000   12.0115
  206         O    1  MOL    O206   206  -0.4300000   15.9994
  207       OES    1  MOL    O207   207  -0.3300000   15.9994
  208        CT    1  MOL    C208   208   0.2318000   12.0115
  209        CA    1  MOL    C209   209  -0.0418000   12.0115
  210        CA    1  MOL    C210   210  -0.1150000   12.0115
  211        CA    1  MOL    C211   211  -0.1150000   12.0115
  212        CA    1  MOL    C212   212  -0.1150000   12.0115
  213        CA    1  MOL    C213   213  -0.1150000   12.0115
  214        CA    1  MOL    C214   214  -0.1150000   12.0115
  215        HC    1  MOL    H215   215   0.0600000    1.0080
  216        HC    1  MOL    H216   216   0.0600000    1.0080
  217        HC    1  MOL    H217   217   0.0600000    1.0080
  218        HC    1  MOL    H218   218   0.0600000    1.0080
  219        HC    1  MOL    H219   219   0.0600000    1.0080
  220       HAE    1  MOL    H220   220   0.0300000    1.0080
  221       HAE    1  MOL    H221   221   0.0300000    1.0080
  222        HA    1  MOL    H222   222   0.1150000    1.0080
  223        HA    1  MOL    H223   223   0.1150000    1.0080
  224        HA    1  MOL    H224   224   0.1150000    1.0080
  225        HA    1  MOL    H225   225   0.1150000    1.0080
  226        HA    1  MOL    H226   226   0.1150000    1.0080
  227        CT    1  MOL    C227   227  -0.1200000   12.0115
  228        CT    1  MOL    C228   228   0.0000000   12.0115
  229        CT    1  MOL    C229   229  -0.1800000   12.0115
  230       CO4    1  MOL    C230   230   0.5100000   12.0115
  231         O    1  MOL    O231   231  -0.4300000   15.9994
  232       OES    1  MOL    O232   232  -0.3300000   15.9994
  233        CT    1  MOL    C233   233   0.2318000   12.0115
  234        CA    1  MOL    C234   234  -0.0418000   12.0115
  235        CA    1  MOL    C235   235  -0.1150000   12.0115
  236        CA    1  MOL    C236   236  -0.1150000   12.0115
  237        CA    1  MOL    C237   237  -0.1150000   12.0115
  238        CA    1  MOL    C238   238  -0.1150000   12.0115
  239        CA    1  MOL    C239   239  -0.1150000   12.0115
  240        HC    1  MOL    H240   240   0.0600000    1.0080
  241        HC    1  MOL    H241   241   0.0600000    1.0080
  242        HC    1  MOL    H242   242   0.0600000    1.0080
  243        HC    1  MOL    H243   243   0.0600000    1.0080
  244        HC    1  MOL    H244   244   0.0600000    1.0080
  245       HAE    1  MOL    H245   245   0.0300000    1.0080
  246       HAE    1  MOL    H246   246   0.0300000    1.0080
  247        HA    1  MOL    H247   247   0.1150000    1.0080
  248        HA    1  MOL    H248   248   0.1150000    1.0080
  249        HA    1  MOL    H249   249   0.1150000    1.0080
  250        HA    1  MOL    H250   250   0.1150000    1.0080
  251        HA    1  MOL    H251   251   0.1150000    1.0080
  252        CT    1  MOL    C252   252  -0.1200000   12.0115
  253        CT    1  MOL    C253   253   0.0000000   12.0115
  254        CT    1  MOL    C254   254  -0.1800000   12.0115
  255       CO4    1  MOL    C255   255   0.5100000   12.0115
  256         O    1  MOL    O256   256  -0.4300000   15.9994
  257       OES    1  MOL    O257   257  -0.3300000   15.9994
  258        CT    1  MOL    C258   258   0.2318000   12.0115
  259        CA    1  MOL    C259   259  -0.0418000   12.0115
  260        CA    1  MOL    C260   260  -0.1150000   12.0115
  261        CA    1  MOL    C261   261  -0.1150000   12.0115
  262        CA    1  MOL    C262   262  -0.1150000   12.0115
  263        CA    1  MOL    C263   263  -0.1150000   12.0115
  264        CA    1  MOL    C264   264  -0.1150000   12.0115
  265        HC    1  MOL    H265   265   0.0600000    1.0080
  266        HC    1  MOL    H266   266   0.0600000    1.0080
  267        HC    1  MOL    H267   267   0.0600000    1.0080
  268        HC    1  MOL    H268   268   0.0600000    1.0080
  269        HC    1  MOL    H269   269   0.0600000    1.0080
  270       HAE    1  MOL    H270   270   0.0300000    1.0080
  271       HAE    1  MOL    H271   271   0.0300000    1.0080
  272        HA    1  MOL    H272   272   0.1150000    1.0080
  273        HA    1  MOL    H273   273   0.1150000    1.0080
  274        HA    1  MOL    H274   274   0.1150000    1.0080
  275        HA    1  MOL    H275   275   0.1150000    1.0080
  276        HA    1  MOL    H276   276   0.1150000    1.0080
  277        CT    1  MOL    C277   277  -0.1200000   12.0115
  278        CT    1  MOL    C278   278   0.0000000   12.0115
  279        CT    1  MOL    C279   279  -0.1800000   12.0115
  280       CO4    1  MOL    C280   280   0.5100000   12.0115
  281         O    1  MOL    O281   281  -0.4300000   15.9994
  282       OES    1  MOL    O282   282  -0.3300000   15.9994
  283        CT    1  MOL    C283   283   0.2318000   12.0115
  284        CA    1  MOL    C284   284  -0.0418000   12.0115
  285        CA    1  MOL    C285   285  -0.1150000   12.0115
  286        CA    1  MOL    C286   286  -0.1150000   12.0115
  287        CA    1  MOL    C287   287  -0.1150000   12.0115
  288        CA    1  MOL    C288   288  -0.1150000   12.0115
  289        CA    1  MOL    C289   289  -0.1150000   12.0115
  290        HC    1  MOL    H290   290   0.0600000    1.0080
  291        HC    1  MOL    H291   291   0.0600000    1.0080
  292        HC    1  MOL    H292   292   0.0600000    1.0080
  293        HC    1  MOL    H293   293   0.0600000    1.0080
  294        HC    1  MOL    H294   294   0.0600000    1.0080
  295       HAE    1  MOL    H295   295   0.0300000    1.0080
  296       HAE    1  MOL    H296   296   0.0300000    1.0080
  297        HA    1  MOL    H297   297   0.1150000    1.0080
  298        HA    1  MOL    H298   298   0.1150000    1.0080
  299        HA    1  MOL    H299   299   0.1150000    1.0080
  300        HA    1  MOL    H300   300   0.1150000    1.0080
  301        HA    1  MOL    H301   301   0.1150000    1.0080
  302        CT    1  MOL    C302   302  -0.1200000   12.0115
  303        CT    1  MOL    C303   303   0.0000000   12.0115
  304        CT    1  MOL    C304   304  -0.1800000   12.0115
  305       CO4    1  MOL    C305   305   0.5100000   12.0115
  306         O    1  MOL    O306   306  -0.4300000   15.9994
  307       OES    1  MOL    O307   307  -0.3300000   15.9994
  308        CT    1  MOL    C308   308   0.2318000   12.0115
  309        CA    1  MOL    C309   309  -0.0418000   12.0115
  310        CA    1  MOL    C310   310  -0.1150000   12.0115
  311        CA    1  MOL    C311   311  -0.1150000   12.0115
  312        CA    1  MOL    C312   312  -0.1150000   12.0115
  313        CA    1  MOL    C313   313  -0.1150000   12.0115
  314        CA    1  MOL    C314   314  -0.1150000   12.0115
  315        HC    1  MOL    H315   315   0.0600000    1.0080
  316        HC    1  MOL    H316   316   0.0600000    1.0080
  317        HC    1  MOL    H317   317   0.0600000    1.0080
  318        HC    1  MOL    H318   318   0.0600000    1.0080
  319        HC    1  MOL    H319   319   0.0600000    1.0080
  320       HAE    1  MOL    H320   320   0.0300000    1.0080
  321       HAE    1  MOL    H321   321   0.0300000    1.0080
  322        HA    1  MOL    H322   322   0.1150000    1.0080
  323        HA    1  MOL    H323   323   0.1150000    1.0080
  324        HA    1  MOL    H324   324   0.1150000    1.0080
  325        HA    1  MOL    H325   325   0.1150000    1.0080
  326        HA    1  MOL    H326   326   0.1150000    1.0080
  327        CT    1  MOL    C327   327  -0.1200000   12.0115
  328        CT    1  MOL    C328   328   0.0000000   12.0115
  329        CT    1  MOL    C329   329  -0.1800000   12.0115
  330       CO4    1  MOL    C330   330   0.5100000   12.0115
  331         O    1  MOL    O331   331  -0.4300000   15.9994
  332       OES    1  MOL    O332   332  -0.3300000   15.9994
  333        CT    1  MOL    C333   333   0.2318000   12.0115
  334        CA    1  MOL    C334   334  -0.0418000   12.0115
  335        CA    1  MOL    C335   335  -0.1150000   12.0115
  336        CA    1  MOL    C336   336  -0.1150000   12.0115
  337        CA    1  MOL    C337   337  -0.1150000   12.0115
  338        CA    1  MOL    C338   338  -0.1150000   12.0115
  339        CA    1  MOL    C339   339  -0.1150000   12.0115
  340        HC    1  MOL    H340   340   0.0600000    1.0080
  341        HC    1  MOL    H341   341   0.0600000    1.0080
  342        HC    1  MOL    H342   342   0.0600000    1.0080
  343        HC    1  MOL    H343   343   0.0600000    1.0080
  344        HC    1  MOL    H344   344   0.0600000    1.0080
  345       HAE    1  MOL    H345   345   0.0300000    1.0080
  346       HAE    1  MOL    H346   346   0.0300000    1.0080
  347        HA    1  MOL    H347   347   0.1150000    1.0080
  348        HA    1  MOL    H348   348   0.1150000    1.0080
  349        HA    1  MOL    H349   349   0.1150000    1.0080
  350        HA    1  MOL    H350   350   0.1150000    1.0080
  351        HA    1  MOL    H351   351   0.1150000    1.0080
  352        CT    1  MOL    C352   352  -0.1200000   12.0115
  353        CT    1  MOL    C353   353   0.0000000   12.0115
  354        CT    1  MOL    C354   354  -0.1800000   12.0115
  355       CO4    1  MOL    C355   355   0.5100000   12.0115
  356         O    1  MOL    O356   356  -0.4300000   15.9994
  357       OES    1  MOL    O357   357  -0.3300000   15.9994
  358        CT    1  MOL    C358   358   0.2318000   12.0115
  359        CA    1  MOL    C359   359  -0.0418000   12.0115
  360        CA    1  MOL    C360   360  -0.1150000   12.0115
  361        CA    1  MOL    C361   361  -0.1150000   12.0115
  362        CA    1  MOL    C362   362  -0.1150000   12.0115
  363        CA    1  MOL    C363   363  -0.1150000   12.0115
  364        CA    1  MOL    C364   364  -0.1150000   12.0115
  365        HC    1  MOL    H365   365   0.0600000    1.0080
  366        HC    1  MOL    H366   366   0.0600000    1.0080
  367        HC    1  MOL    H367   367   0.0600000    1.0080
  368        HC    1  MOL    H368   368   0.0600000    1.0080
  369        HC    1  MOL    H369   369   0.0600000    1.0080
  370       HAE    1  MOL    H370   370   0.0300000    1.0080
  371       HAE    1  MOL    H371   371   0.0300000    1.0080
  372        HA    1  MOL    H372   372   0.1150000    1.0080
  373        HA    1  MOL    H373   373   0.1150000    1.0080
  374        HA    1  MOL    H374   374   0.1150000    1.0080
  375        HA    1  MOL    H375   375   0.1150000    1.0080
  376        HA    1  MOL    H376   376   0.1150000    1.0080
  377        CT    1  MOL    C377   377  -0.1200000   12.0115
  378        CT    1  MOL    C378   378   0.0000000   12.0115
  379        CT    1  MOL    C379   379  -0.1800000   12.0115
  380       CO4    1  MOL    C380   380   0.5100000   12.0115
  381         O    1  MOL    O381   381  -0.4300000   15.9994
  382       OES    1  MOL    O382   382  -0.3300000   15.9994
  383        CT    1  MOL    C383   383   0.2318000   12.0115
  384        CA    1  MOL    C384   384  -0.0418000   12.0115
  385        CA    1  MOL    C385   385  -0.1150000   12.0115
  386        CA    1  MOL    C386   386  -0.1150000   12.0115
  387        CA    1  MOL    C387   387  -0.1150000   12.0115
  388        CA    1  MOL    C388   388  -0.1150000   12.0115
  389        CA    1  MOL    C389   389  -0.1150000   12.0115
  390        HC    1  MOL    H390   390   0.0600000    1.0080
  391        HC    1  MOL    H391   391   0.0600000    1.0080
  392        HC    1  MOL    H392   392   0.0600000    1.0080
  393        HC    1  MOL    H393   393   0.0600000    1.0080
  394        HC    1  MOL    H394   394   0.0600000    1.0080
  395       HAE    1  MOL    H395   395   0.0300000    1.0080
  396       HAE    1  MOL    H396   396   0.0300000    1.0080
  397        HA    1  MOL    H397   397   0.1150000    1.0080
  398        HA    1  MOL    H398   398   0.1150000    1.0080
  399        HA    1  MOL    H399   399   0.1150000    1.0080
  400        HA    1  MOL    H400   400   0.1150000    1.0080
  401        HA    1  MOL    H401   401   0.1150000    1.0080
  402        CT    1  MOL    C402   402  -0.1200000   12.0115
  403        CT    1  MOL    C403   403   0.0000000   12.0115
  404        CT    1  MOL    C404   404  -0.1800000   12.0115
  405       CO4    1  MOL    C405   405   0.5100000   12.0115
  406         O    1  MOL    O406   406  -0.4300000   15.9994
  407       OES    1  MOL    O407   407  -0.3300000   15.9994
  408        CT    1  MOL    C408   408   0.2318000   12.0115
  409        CA    1  MOL    C409   409  -0.0418000   12.0115
  410        CA    1  MOL    C410   410  -0.1150000   12.0115
  411        CA    1  MOL    C411   411  -0.1150000   12.0115
  412        CA    1  MOL    C412   412  -0.1150000   12.0115
  413        CA    1  MOL    C413   413  -0.1150000   12.0115
  414        CA    1  MOL    C414   414  -0.1150000   12.0115
  415        HC    1  MOL    H415   415   0.0600000    1.0080
  416        HC    1  MOL    H416   416   0.0600000    1.0080
  417        HC    1  MOL    H417   417   0.0600000    1.0080
  418        HC    1  MOL    H418   418   0.0600000    1.0080
  419        HC    1  MOL    H419   419   0.0600000    1.0080
  420       HAE    1  MOL    H420   420   0.0300000    1.0080
  421       HAE    1  MOL    H421   421   0.0300000    1.0080
  422        HA    1  MOL    H422   422   0.1150000    1.0080
  423        HA    1  MOL    H423   423   0.1150000    1.0080
  424        HA    1  MOL    H424   424   0.1150000    1.0080
  425        HA    1  MOL    H425   425   0.1150000    1.0080
  426        HA    1  MOL    H426   426   0.1150000    1.0080
  427        CT    1  MOL    C427   427  -0.1200000   12.0115
  428        CT    1  MOL    C428   428   0.0000000   12.0115
  429        CT    1  MOL    C429   429  -0.1800000   12.0115
  430       CO4    1  MOL    C430   430   0.5100000   12.0115
  431         O    1  MOL    O431   431  -0.4300000   15.9994
  432       OES    1  MOL    O432   432  -0.3300000   15.9994
  433        CT    1  MOL    C433   433   0.2318000   12.0115
  434        CA    1  MOL    C434   434  -0.0418000   12.0115
  435        CA    1  MOL    C435   435  -0.1150000   12.0115
  436        CA    1  MOL    C436   436  -0.1150000   12.0115
  437        CA    1  MOL    C437   437  -0.1150000   12.0115
  438        CA    1  MOL    C438   438  -0.1150000   12.0115
  439        CA    1  MOL    C439   439  -0.1150000   12.0115
  440        HC    1  MOL    H440   440   0.0600000    1.0080
  441        HC    1  MOL    H441   441   0.0600000    1.0080
  442        HC    1  MOL    H442   442   0.0600000    1.0080
  443        HC    1  MOL    H443   443   0.0600000    1.0080
  444        HC    1  MOL    H444   444   0.0600000    1.0080
  445       HAE    1  MOL    H445   445   0.0300000    1.0080
  446       HAE    1  MOL    H446   446   0.0300000    1.0080
  447        HA    1  MOL    H447   447   0.1150000    1.0080
  448        HA    1  MOL    H448   448   0.1150000    1.0080
  449        HA    1  MOL    H449   449   0.1150000    1.0080
  450        HA    1  MOL    H450   450   0.1150000    1.0080
  451        HA    1  MOL    H451   451   0.1150000    1.0080
  452        CT    1  MOL    C452   452  -0.1200000   12.0115
  453        CT    1  MOL    C453   453   0.0000000   12.0115
  454        CT    1  MOL    C454   454  -0.1800000   12.0115
  455       CO4    1  MOL    C455   455   0.5100000   12.0115
  456         O    1  MOL    O456   456  -0.4300000   15.9994
  457       OES    1  MOL    O457   457  -0.3300000   15.9994
  458        CT    1  MOL    C458   458   0.2318000   12.0115
  459        CA    1  MOL    C459   459  -0.0418000   12.0115
  460        CA    1  MOL    C460   460  -0.1150000   12.0115
  461        CA    1  MOL    C461   461  -0.1150000   12.0115
  462        CA    1  MOL    C462   462  -0.1150000   12.0115
  463        CA    1  MOL    C463   463  -0.1150000   12.0115
  464        CA    1  MOL    C464   464  -0.1150000   12.0115
  465        HC    1  MOL    H465   465   0.0600000    1.0080
  466        HC    1  MOL    H466   466   0.0600000    1.0080
  467        HC    1  MOL    H467   467   0.0600000    1.0080
  468        HC    1  MOL    H468   468   0.0600000    1.0080
  469        HC    1  MOL    H469   469   0.0600000    1.0080
  470       HAE    1  MOL    H470   470   0.0300000    1.0080
  471       HAE    1  MOL    H471   471   0.0300000    1.0080
  472        HA    1  MOL    H472   472   0.1150000    1.0080
  473        HA    1  MOL    H473   473   0.1150000    1.0080
  474        HA    1  MOL    H474   474   0.1150000    1.0080
  475        HA    1  MOL    H475   475   0.1150000    1.0080
  476        HA    1  MOL    H476   476   0.1150000    1.0080
  477        CT    1  MOL    C477   477  -0.1200000   12.0115
  478        CT    1  MOL    C478   478  -0.0600000   12.0115
  479        CT    1  MOL    C479   479  -0.1800000   12.0115
  480       CO4    1  MOL    C480   480   0.5100000   12.0115
  481         O    1  MOL    O481   481  -0.4300000   15.9994
  482       OES    1  MOL    O482   482  -0.3300000   15.9994
  483        CT    1  MOL    C483   483   0.2318000   12.0115
  484        CA    1  MOL    C484   484  -0.0418000   12.0115
  485        CA    1  MOL    C485   485  -0.1150000   12.0115
  486        CA    1  MOL    C486   486  -0.1150000   12.0115
  487        CA    1  MOL    C487   487  -0.1150000   12.0115
  488        CA    1  MOL    C488   488  -0.1150000   12.0115
  489        CA    1  MOL    C489   489  -0.1150000   12.0115
  490        HC    1  MOL    H490   490   0.0600000    1.0080
  491        HC    1  MOL    H491   491   0.0600000    1.0080
  492        HC    1  MOL    H492   492   0.0600000    1.0080
  493        HC    1  MOL    H493   493   0.0600000    1.0080
  494        HC    1  MOL    H494   494   0.0600000    1.0080
  495       HAE    1  MOL    H495   495   0.0300000    1.0080
  496       HAE    1  MOL    H496   496   0.0300000    1.0080
  497        HA    1  MOL    H497   497   0.1150000    1.0080
  498        HA    1  MOL    H498   498   0.1150000    1.0080
  499        HA    1  MOL    H499   499   0.1150000    1.0080
  500        HA    1  MOL    H500   500   0.1150000    1.0080
  501        HA    1  MOL    H501   501   0.1150000    1.0080
  502       HAE    1  MOL    H502   502   0.0600000    1.0080

[ bonds ]
      1      2   1      0.1529 224262.4000
      1     14   1      0.1090 284512.0000
      1     15   1      0.1090 284512.0000
      1     26   1      0.1090 284512.0000
      2      3   1      0.1529 224262.4000
      2      4   1      0.1522 265265.6000
      2     27   1      0.1529 224262.4000
      3     16   1      0.1090 284512.0000
      3     17   1      0.1090 284512.0000
      3     18   1      0.1090 284512.0000
      4      5   1      0.1229 476976.0000
      4      6   1      0.1327 179075.2000
      6      7   1      0.1410 267776.0000
      7      8   1      0.1510 265265.6000
      7     19   1      0.1090 284512.0000
      7     20   1      0.1090 284512.0000
      8      9   1      0.1400 392459.2000
      8     13   1      0.1400 392459.2000
      9     10   1      0.1400 392459.2000
      9     21   1      0.1080 307105.6000
     10     11   1      0.1400 392459.2000
     10     22   1      0.1080 307105.6000
     11     12   1      0.1400 392459.2000
     11     23   1      0.1080 307105.6000
     12     13   1      0.1400 392459.2000
     12     24   1      0.1080 307105.6000
     13     25   1      0.1080 307105.6000
     27     28   1      0.1529 224262.4000
     27     40   1      0.1090 284512.0000
     27     41   1      0.1090 284512.0000
     28     29   1      0.1529 224262.4000
     28     30   1      0.1522 265265.6000
     28     52   1      0.1529 224262.4000
     29     42   1      0.1090 284512.0000
     29     43   1      0.1090 284512.0000
     29     44   1      0.1090 284512.0000
     30     31   1      0.1229 476976.0000
     30     32   1      0.1327 179075.2000
     32     33   1      0.1410 267776.0000
     33     34   1      0.1510 265265.6000
     33     45   1      0.1090 284512.0000
     33     46   1      0.1090 284512.0000
     34     35   1      0.1400 392459.2000
     34     39   1      0.1400 392459.2000
     35     36   1      0.1400 392459.2000
     35     47   1      0.1080 307105.6000
     36     37   1      0.1400 392459.2000
     36     48   1      0.1080 307105.6000
     37     38   1      0.1400 392459.2000
     37     49   1      0.1080 307105.6000
     38     39   1      0.1400 392459.2000
     38     50   1      0.1080 307105.6000
     39     51   1      0.1080 307105.6000
     52     53   1      0.1529 224262.4000
     52     65   1      0.1090 284512.0000
     52     66   1      0.1090 284512.0000
     53     54   1      0.1529 224262.4000
     53     55   1      0.1522 265265.6000
     53     77   1      0.1529 224262.4000
     54     67   1      0.1090 284512.0000
     54     68   1      0.1090 284512.0000
     54     69   1      0.1090 284512.0000
     55     56   1      0.1229 476976.0000
     55     57   1      0.1327 179075.2000
     57     58   1      0.1410 267776.0000
     58     59   1      0.1510 265265.6000
     58     70   1      0.1090 284512.0000
     58     71   1      0.1090 284512.0000
     59     60   1      0.1400 392459.2000
     59     64   1      0.1400 392459.2000
     60     61   1      0.1400 392459.2000
     60     72   1      0.1080 307105.6000
     61     62   1      0.1400 392459.2000
     61     73   1      0.1080 307105.6000
     62     63   1      0.1400 392459.2000
     62     74   1      0.1080 307105.6000
     63     64   1      0.1400 392459.2000
     63     75   1      0.1080 307105.6000
     64     76   1      0.1080 307105.6000
     77     78   1      0.1529 224262.4000
     77     90   1      0.1090 284512.0000
     77     91   1      0.1090 284512.0000
     78     79   1      0.1529 224262.4000
     78     80   1      0.1522 265265.6000
     78    102   1      0.1529 224262.4000
     79     92   1      0.1090 284512.0000
     79     93   1      0.1090 284512.0000
     79     94   1      0.1090 284512.0000
     80     81   1      0.1229 476976.0000
     80     82   1      0.1327 179075.2000
     82     83   1      0.1410 267776.0000
     83     84   1      0.1510 265265.6000
     83     95   1      0.1090 284512.0000
     83     96   1      0.1090 284512.0000
     84     85   1      0.1400 392459.2000
     84     89   1      0.1400 392459.2000
     85     86   1      0.1400 392459.2000
     85     97   1      0.1080 307105.6000
     86     87   1      0.1400 392459.2000
     86     98   1      0.1080 307105.6000
     87     88   1      0.1400 392459.2000
     87     99   1      0.1080 307105.6000
     88     89   1      0.1400 392459.2000
     88    100   1      0.1080 307105.6000
     89    101   1      0.1080 307105.6000
    102    103   1      0.1529 224262.4000
    102    115   1      0.1090 284512.0000
    102    116   1      0.1090 284512.0000
    103    104   1      0.1529 224262.4000
    103    105   1      0.1522 265265.6000
    103    127   1      0.1529 224262.4000
    104    117   1      0.1090 284512.0000
    104    118   1      0.1090 284512.0000
    104    119   1      0.1090 284512.0000
    105    106   1      0.1229 476976.0000
    105    107   1      0.1327 179075.2000
    107    108   1      0.1410 267776.0000
    108    109   1      0.1510 265265.6000
    108    120   1      0.1090 284512.0000
    108    121   1      0.1090 284512.0000
    109    110   1      0.1400 392459.2000
    109    114   1      0.1400 392459.2000
    110    111   1      0.1400 392459.2000
    110    122   1      0.1080 307105.6000
    111    112   1      0.1400 392459.2000
    111    123   1      0.1080 307105.6000
    112    113   1      0.1400 392459.2000
    112    124   1      0.1080 307105.6000
    113    114   1      0.1400 392459.2000
    113    125   1      0.1080 307105.6000
    114    126   1      0.1080 307105.6000
    127    128   1      0.1529 224262.4000
    127    140   1      0.1090 284512.0000
    127    141   1      0.1090 284512.0000
    128    129   1      0.1529 224262.4000
    128    130   1      0.1522 265265.6000
    128    152   1      0.1529 224262.4000
    129    142   1      0.1090 284512.0000
    129    143   1      0.1090 284512.0000
    129    144   1      0.1090 284512.0000
    130    131   1      0.1229 476976.0000
    130    132   1      0.1327 179075.2000
    132    133   1      0.1410 267776.0000
    133    134   1      0.1510 265265.6000
    133    145   1      0.1090 284512.0000
    133    146   1      0.1090 284512.0000
    134    135   1      0.1400 392459.2000
    134    139   1      0.1400 392459.2000
    135    136   1      0.1400 392459.2000
    135    147   1      0.1080 307105.6000
    136    137   1      0.1400 392459.2000
    136    148   1      0.1080 307105.6000
    137    138   1      0.1400 392459.2000
    137    149   1      0.1080 307105.6000
    138    139   1      0.1400 392459.2000
    138    150   1      0.1080 307105.6000
    139    151   1      0.1080 307105.6000
    152    153   1      0.1529 224262.4000
    152    165   1      0.1090 284512.0000
    152    166   1      0.1090 284512.0000
    153    154   1      0.1529 224262.4000
    153    155   1      0.1522 265265.6000
    153    177   1      0.1529 224262.4000
    154    167   1      0.1090 284512.0000
    154    168   1      0.1090 284512.0000
    154    169   1      0.1090 284512.0000
    155    156   1      0.1229 476976.0000
    155    157   1      0.1327 179075.2000
    157    158   1      0.1410 267776.0000
    158    159   1      0.1510 265265.6000
    158    170   1      0.1090 284512.0000
    158    171   1      0.1090 284512.0000
    159    160   1      0.1400 392459.2000
    159    164   1      0.1400 392459.2000
    160    161   1      0.1400 392459.2000
    160    172   1      0.1080 307105.6000
    161    162   1      0.1400 392459.2000
    161    173   1      0.1080 307105.6000
    162    163   1      0.1400 392459.2000
    162    174   1      0.1080 307105.6000
    163    164   1      0.1400 392459.2000
    163    175   1      0.1080 307105.6000
    164    176   1      0.1080 307105.6000
    177    178   1      0.1529 224262.4000
    177    190   1      0.1090 284512.0000
    177    191   1      0.1090 284512.0000
    178    179   1      0.1529 224262.4000
    178    180   1      0.1522 265265.6000
    178    202   1      0.1529 224262.4000
    179    192   1      0.1090 284512.0000
    179    193   1      0.1090 284512.0000
    179    194   1      0.1090 284512.0000
    180    181   1      0.1229 476976.0000
    180    182   1      0.1327 179075.2000
    182    183   1      0.1410 267776.0000
    183    184   1      0.1510 265265.6000
    183    195   1      0.1090 284512.0000
    183    196   1      0.1090 284512.0000
    184    185   1      0.1400 392459.2000
    184    189   1      0.1400 392459.2000
    185    186   1      0.1400 392459.2000
    185    197   1      0.1080 307105.6000
    186    187   1      0.1400 392459.2000
    186    198   1      0.1080 307105.6000
    187    188   1      0.1400 392459.2000
    187    199   1      0.1080 307105.6000
    188    189   1      0.1400 392459.2000
    188    200   1      0.1080 307105.6000
    189    201   1      0.1080 307105.6000
    202    203   1      0.1529 224262.4000
    202    215   1      0.1090 284512.0000
    202    216   1      0.1090 284512.0000
    203    204   1      0.1529 224262.4000
    203    205   1      0.1522 265265.6000
    203    227   1      0.1529 224262.4000
    204    217   1      0.1090 284512.0000
    204    218   1      0.1090 284512.0000
    204    219   1      0.1090 284512.0000
    205    206   1      0.1229 476976.0000
    205    207   1      0.1327 179075.2000
    207    208   1      0.1410 267776.0000
    208    209   1      0.1510 265265.6000
    208    220   1      0.1090 284512.0000
    208    221   1      0.1090 284512.0000
    209    210   1      0.1400 392459.2000
    209    214   1      0.1400 392459.2000
    210    211   1      0.1400 392459.2000
    210    222   1      0.1080 307105.6000
    211    212   1      0.1400 392459.2000
    211    223   1      0.1080 307105.6000
    212    213   1      0.1400 392459.2000
    212    224   1      0.1080 307105.6000
    213    214   1      0.1400 392459.2000
    213    225   1      0.1080 307105.6000
    214    226   1      0.1080 307105.6000
    227    228   1      0.1529 224262.4000
    227    240   1      0.1090 284512.0000
    227    241   1      0.1090 284512.0000
    228    229   1      0.1529 224262.4000
    228    230   1      0.1522 265265.6000
    228    252   1      0.1529 224262.4000
    229    242   1      0.1090 284512.0000
    229    243   1      0.1090 284512.0000
    229    244   1      0.1090 284512.0000
    230    231   1      0.1229 476976.0000
    230    232   1      0.1327 179075.2000
    232    233   1      0.1410 267776.0000
    233    234   1      0.1510 265265.6000
    233    245   1      0.1090 284512.0000
    233    246   1      0.1090 284512.0000
    234    235   1      0.1400 392459.2000
    234    239   1      0.1400 392459.2000
    235    236   1      0.1400 392459.2000
    235    247   1      0.1080 307105.6000
    236    237   1      0.1400 392459.2000
    236    248   1      0.1080 307105.6000
    237    238   1      0.1400 392459.2000
    237    249   1      0.1080 307105.6000
    238    239   1      0.1400 392459.2000
    238    250   1      0.1080 307105.6000
    239    251   1      0.1080 307105.6000
    252    253   1      0.1529 224262.4000
    252    265   1      0.1090 284512.0000
    252    266   1      0.1090 284512.0000
    253    254   1      0.1529 224262.4000
    253    255   1      0.1522 265265.6000
    253    277   1      0.1529 224262.4000
    254    267   1      0.1090 284512.0000
    254    268   1      0.1090 284512.0000
    254    269   1      0.1090 284512.0000
    255    256   1      0.1229 476976.0000
    255    257   1      0.1327 179075.2000
    257    258   1      0.1410 267776.0000
    258    259   1      0.1510 265265.6000
    258    270   1      0.1090 284512.0000
    258    271   1      0.1090 284512.0000
    259    260   1      0.1400 392459.2000
    259    264   1      0.1400 392459.2000
    260    261   1      0.1400 392459.2000
    260    272   1      0.1080 307105.6000
    261    262   1      0.1400 392459.2000
    261    273   1      0.1080 307105.6000
    262    263   1      0.1400 392459.2000
    262    274   1      0.1080 307105.6000
    263    264   1      0.1400 392459.2000
    263    275   1      0.1080 307105.6000
    264    276   1      0.1080 307105.6000
    277    278   1      0.1529 224262.4000
    277    290   1      0.1090 284512.0000
    277    291   1      0.1090 284512.0000
    278    279   1      0.1529 224262.4000
    278    280   1      0.1522 265265.6000
    278    302   1      0.1529 224262.4000
    279    292   1      0.1090 284512.0000
    279    293   1      0.1090 284512.0000
    279    294   1      0.1090 284512.0000
    280    281   1      0.1229 476976.0000
    280    282   1      0.1327 179075.2000
    282    283   1      0.1410 267776.0000
    283    284   1      0.1510 265265.6000
    283    295   1      0.1090 284512.0000
    283    296   1      0.1090 284512.0000
    284    285   1      0.1400 392459.2000
    284    289   1      0.1400 392459.2000
    285    286   1      0.1400 392459.2000
    285    297   1      0.1080 307105.6000
    286    287   1      0.1400 392459.2000
    286    298   1      0.1080 307105.6000
    287    288   1      0.1400 392459.2000
    287    299   1      0.1080 307105.6000
    288    289   1      0.1400 392459.2000
    288    300   1      0.1080 307105.6000
    289    301   1      0.1080 307105.6000
    302    303   1      0.1529 224262.4000
    302    315   1      0.1090 284512.0000
    302    316   1      0.1090 284512.0000
    303    304   1      0.1529 224262.4000
    303    305   1      0.1522 265265.6000
    303    327   1      0.1529 224262.4000
    304    317   1      0.1090 284512.0000
    304    318   1      0.1090 284512.0000
    304    319   1      0.1090 284512.0000
    305    306   1      0.1229 476976.0000
    305    307   1      0.1327 179075.2000
    307    308   1      0.1410 267776.0000
    308    309   1      0.1510 265265.6000
    308    320   1      0.1090 284512.0000
    308    321   1      0.1090 284512.0000
    309    310   1      0.1400 392459.2000
    309    314   1      0.1400 392459.2000
    310    311   1      0.1400 392459.2000
    310    322   1      0.1080 307105.6000
    311    312   1      0.1400 392459.2000
    311    323   1      0.1080 307105.6000
    312    313   1      0.1400 392459.2000
    312    324   1      0.1080 307105.6000
    313    314   1      0.1400 392459.2000
    313    325   1      0.1080 307105.6000
    314    326   1      0.1080 307105.6000
    327    328   1      0.1529 224262.4000
    327    340   1      0.1090 284512.0000
    327    341   1      0.1090 284512.0000
    328    329   1      0.1529 224262.4000
    328    330   1      0.1522 265265.6000
    328    352   1      0.1529 224262.4000
    329    342   1      0.1090 284512.0000
    329    343   1      0.1090 284512.0000
    329    344   1      0.1090 284512.0000
    330    331   1      0.1229 476976.0000
    330    332   1      0.1327 179075.2000
    332    333   1      0.1410 267776.0000
    333    334   1      0.1510 265265.6000
    333    345   1      0.1090 284512.0000
    333    346   1      0.1090 284512.0000
    334    335   1      0.1400 392459.2000
    334    339   1      0.1400 392459.2000
    335    336   1      0.1400 392459.2000
    335    347   1      0.1080 307105.6000
    336    337   1      0.1400 392459.2000
    336    348   1      0.1080 307105.6000
    337    338   1      0.1400 392459.2000
    337    349   1      0.1080 307105.6000
    338    339   1      0.1400 392459.2000
    338    350   1      0.1080 307105.6000
    339    351   1      0.1080 307105.6000
    352    353   1      0.1529 224262.4000
    352    365   1      0.1090 284512.0000
    352    366   1      0.1090 284512.0000
    353    354   1      0.1529 224262.4000
    353    355   1      0.1522 265265.6000
    353    377   1      0.1529 224262.4000
    354    367   1      0.1090 284512.0000
    354    368   1      0.1090 284512.0000
    354    369   1      0.1090 284512.0000
    355    356   1      0.1229 476976.0000
    355    357   1      0.1327 179075.2000
    357    358   1      0.1410 267776.0000
    358    359   1      0.1510 265265.6000
    358    370   1      0.1090 284512.0000
    358    371   1      0.1090 284512.0000
    359    360   1      0.1400 392459.2000
    359    364   1      0.1400 392459.2000
    360    361   1      0.1400 392459.2000
    360    372   1      0.1080 307105.6000
    361    362   1      0.1400 392459.2000
    361    373   1      0.1080 307105.6000
    362    363   1      0.1400 392459.2000
    362    374   1      0.1080 307105.6000
    363    364   1      0.1400 392459.2000
    363    375   1      0.1080 307105.6000
    364    376   1      0.1080 307105.6000
    377    378   1      0.1529 224262.4000
    377    390   1      0.1090 284512.0000
    377    391   1      0.1090 284512.0000
    378    379   1      0.1529 224262.4000
    378    380   1      0.1522 265265.6000
    378    402   1      0.1529 224262.4000
    379    392   1      0.1090 284512.0000
    379    393   1      0.1090 284512.0000
    379    394   1      0.1090 284512.0000
    380    381   1      0.1229 476976.0000
    380    382   1      0.1327 179075.2000
    382    383   1      0.1410 267776.0000
    383    384   1      0.1510 265265.6000
    383    395   1      0.1090 284512.0000
    383    396   1      0.1090 284512.0000
    384    385   1      0.1400 392459.2000
    384    389   1      0.1400 392459.2000
    385    386   1      0.1400 392459.2000
    385    397   1      0.1080 307105.6000
    386    387   1      0.1400 392459.2000
    386    398   1      0.1080 307105.6000
    387    388   1      0.1400 392459.2000
    387    399   1      0.1080 307105.6000
    388    389   1      0.1400 392459.2000
    388    400   1      0.1080 307105.6000
    389    401   1      0.1080 307105.6000
    402    403   1      0.1529 224262.4000
    402    415   1      0.1090 284512.0000
    402    416   1      0.1090 284512.0000
    403    404   1      0.1529 224262.4000
    403    405   1      0.1522 265265.6000
    403    427   1      0.1529 224262.4000
    404    417   1      0.1090 284512.0000
    404    418   1      0.1090 284512.0000
    404    419   1      0.1090 284512.0000
    405    406   1      0.1229 476976.0000
    405    407   1      0.1327 179075.2000
    407    408   1      0.1410 267776.0000
    408    409   1      0.1510 265265.6000
    408    420   1      0.1090 284512.0000
    408    421   1      0.1090 284512.0000
    409    410   1      0.1400 392459.2000
    409    414   1      0.1400 392459.2000
    410    411   1      0.1400 392459.2000
    410    422   1      0.1080 307105.6000
    411    412   1      0.1400 392459.2000
    411    423   1      0.1080 307105.6000
    412    413   1      0.1400 392459.2000
    412    424   1      0.1080 307105.6000
    413    414   1      0.1400 392459.2000
    413    425   1      0.1080 307105.6000
    414    426   1      0.1080 307105.6000
    427    428   1      0.1529 224262.4000
    427    440   1      0.1090 284512.0000
    427    441   1      0.1090 284512.0000
    428    429   1      0.1529 224262.4000
    428    430   1      0.1522 265265.6000
    428    452   1      0.1529 224262.4000
    429    442   1      0.1090 284512.0000
    429    443   1      0.1090 284512.0000
    429    444   1      0.1090 284512.0000
    430    431   1      0.1229 476976.0000
    430    432   1      0.1327 179075.2000
    432    433   1      0.1410 267776.0000
    433    434   1      0.1510 265265.6000
    433    445   1      0.1090 284512.0000
    433    446   1      0.1090 284512.0000
    434    435   1      0.1400 392459.2000
    434    439   1      0.1400 392459.2000
    435    436   1      0.1400 392459.2000
    435    447   1      0.1080 307105.6000
    436    437   1      0.1400 392459.2000
    436    448   1      0.1080 307105.6000
    437    438   1      0.1400 392459.2000
    437    449   1      0.1080 307105.6000
    438    439   1      0.1400 392459.2000
    438    450   1      0.1080 307105.6000
    439    451   1      0.1080 307105.6000
    452    453   1      0.1529 224262.4000
    452    465   1      0.1090 284512.0000
    452    466   1      0.1090 284512.0000
    453    454   1      0.1529 224262.4000
    453    455   1      0.1522 265265.6000
    453    477   1      0.1529 224262.4000
    454    467   1      0.1090 284512.0000
    454    468   1      0.1090 284512.0000
    454    469   1      0.1090 284512.0000
    455    456   1      0.1229 476976.0000
    455    457   1      0.1327 179075.2000
    457    458   1      0.1410 267776.0000
    458    459   1      0.1510 265265.6000
    458    470   1      0.1090 284512.0000
    458    471   1      0.1090 284512.0000
    459    460   1      0.1400 392459.2000
    459    464   1      0.1400 392459.2000
    460    461   1      0.1400 392459.2000
    460    472   1      0.1080 307105.6000
    461    462   1      0.1400 392459.2000
    461    473   1      0.1080 307105.6000
    462    463   1      0.1400 392459.2000
    462    474   1      0.1080 307105.6000
    463    464   1      0.1400 392459.2000
    463    475   1      0.1080 307105.6000
    464    476   1      0.1080 307105.6000
    477    478   1      0.1529 224262.4000
    477    490   1      0.1090 284512.0000
    477    491   1      0.1090 284512.0000
    478    479   1      0.1529 224262.4000
    478    480   1      0.1522 265265.6000
    478    502   1      0.1090 284512.0000
    479    492   1      0.1090 284512.0000
    479    493   1      0.1090 284512.0000
    479    494   1      0.1090 284512.0000
    480    481   1      0.1229 476976.0000
    480    482   1      0.1327 179075.2000
    482    483   1      0.1410 267776.0000
    483    484   1      0.1510 265265.6000
    483    495   1      0.1090 284512.0000
    483    496   1      0.1090 284512.0000
    484    485   1      0.1400 392459.2000
    484    489   1      0.1400 392459.2000
    485    486   1      0.1400 392459.2000
    485    497   1      0.1080 307105.6000
    486    487   1      0.1400 392459.2000
    486    498   1      0.1080 307105.6000
    487    488   1      0.1400 392459.2000
    487    499   1      0.1080 307105.6000
    488    489   1      0.1400 392459.2000
    488    500   1      0.1080 307105.6000
    489    501   1      0.1080 307105.6000

[ pairs ]
; ai   aj   funct   fudge_QQ  charge_i   charge_j   c6    c12
     14      3   2   0.50000     0.0600000   -0.1800000   2.494471e-04  1.671101e-07
     14      4   2   0.50000     0.0600000    0.5100000   3.869820e-04  3.188634e-07
     14     27   2   0.50000     0.0600000   -0.1200000   2.494471e-04  1.671101e-07
     15      3   2   0.50000     0.0600000   -0.1800000   2.494471e-04  1.671101e-07
     15      4   2   0.50000     0.0600000    0.5100000   3.869820e-04  3.188634e-07
     15     27   2   0.50000     0.0600000   -0.1200000   2.494471e-04  1.671101e-07
     26      3   2   0.50000     0.0600000   -0.1800000   2.494471e-04  1.671101e-07
     26      4   2   0.50000     0.0600000    0.5100000   3.869820e-04  3.188634e-07
     26     27   2   0.50000     0.0600000   -0.1200000   2.494471e-04  1.671101e-07
      1     16   2   0.50000    -0.1800000    0.0600000   2.494471e-04  1.671101e-07
      1     17   2   0.50000    -0.1800000    0.0600000   2.494471e-04  1.671101e-07
      1     18   2   0.50000    -0.1800000    0.0600000   2.494471e-04  1.671101e-07
      4     16   2   0.50000     0.5100000    0.0600000   3.869820e-04  3.188634e-07
      4     17   2   0.50000     0.5100000    0.0600000   3.869820e-04  3.188634e-07
      4     18   2   0.50000     0.5100000    0.0600000   3.869820e-04  3.188634e-07
     27     16   2   0.50000    -0.1200000    0.0600000   2.494471e-04  1.671101e-07
     27     17   2   0.50000    -0.1200000    0.0600000   2.494471e-04  1.671101e-07
     27     18   2   0.50000    -0.1200000    0.0600000   2.494471e-04  1.671101e-07
      1      5   2   0.50000    -0.1800000   -0.4300000   1.095425e-03  1.218041e-06
      1      6   2   0.50000    -0.1800000   -0.3300000   1.026091e-03  1.187829e-06
      3      5   2   0.50000    -0.1800000   -0.4300000   1.095425e-03  1.218041e-06
      3      6   2   0.50000    -0.1800000   -0.3300000   1.026091e-03  1.187829e-06
     27      5   2   0.50000    -0.1200000   -0.4300000   1.095425e-03  1.218041e-06
     27      6   2   0.50000    -0.1200000   -0.3300000   1.026091e-03  1.187829e-06
      1     28   2   0.50000    -0.1800000    0.0000000   1.015252e-03  1.866303e-06
      1     40   2   0.50000    -0.1800000    0.0600000   2.494471e-04  1.671101e-07
      1     41   2   0.50000    -0.1800000    0.0600000   2.494471e-04  1.671101e-07
      3     28   2   0.50000    -0.1800000    0.0000000   1.015252e-03  1.866303e-06
      3     40   2   0.50000    -0.1800000    0.0600000   2.494471e-04  1.671101e-07
      3     41   2   0.50000    -0.1800000    0.0600000   2.494471e-04  1.671101e-07
      4     28   2   0.50000     0.5100000    0.0000000   1.575021e-03  3.561100e-06
      4     40   2   0.50000     0.5100000    0.0600000   3.869820e-04  3.188634e-07
      4     41   2   0.50000     0.5100000    0.0600000   3.869820e-04  3.188634e-07
      2      7   2   0.50000     0.0000000    0.2318000   1.015252e-03  1.866303e-06
      5      7   2   0.50000    -0.4300000    0.2318000   1.095425e-03  1.218041e-06
      4      8   2   0.50000     0.5100000   -0.0418000   1.692561e-03  3.993218e-06
      4     19   2   0.50000     0.5100000    0.0300000   2.482000e-04  1.854991e-07
      4     20   2   0.50000     0.5100000    0.0300000   2.482000e-04  1.854991e-07
      6      9   2   0.50000    -0.3300000   -0.1150000   1.102666e-03  1.331965e-06
      6     13   2   0.50000    -0.3300000   -0.1150000   1.102666e-03  1.331965e-06
     19      9   2   0.50000     0.0300000   -0.1150000   1.719283e-04  1.090131e-07
     19     13   2   0.50000     0.0300000   -0.1150000   1.719283e-04  1.090131e-07
     20      9   2   0.50000     0.0300000   -0.1150000   1.719283e-04  1.090131e-07
     20     13   2   0.50000     0.0300000   -0.1150000   1.719283e-04  1.090131e-07
      7     10   2   0.50000     0.2318000   -0.1150000   1.091018e-03  2.092768e-06
      7     21   2   0.50000     0.2318000    0.1150000   2.262583e-04  1.374848e-07
     13     10   2   0.50000    -0.1150000   -0.1150000   1.172438e-03  2.346713e-06
     13     21   2   0.50000    -0.1150000    0.1150000   2.431434e-04  1.541678e-07
      7     12   2   0.50000     0.2318000   -0.1150000   1.091018e-03  2.092768e-06
      7     25   2   0.50000     0.2318000    0.1150000   2.262583e-04  1.374848e-07
      9     12   2   0.50000    -0.1150000   -0.1150000   1.172438e-03  2.346713e-06
      9     25   2   0.50000    -0.1150000    0.1150000   2.431434e-04  1.541678e-07
      8     11   2   0.50000    -0.0418000   -0.1150000   1.172438e-03  2.346713e-06
      8     22   2   0.50000    -0.0418000    0.1150000   2.431434e-04  1.541678e-07
     21     11   2   0.50000     0.1150000   -0.1150000   2.431434e-04  1.541678e-07
     21     22   2   0.50000     0.1150000    0.1150000   5.042375e-05  1.012808e-08
      9     23   2   0.50000    -0.1150000    0.1150000   2.431434e-04  1.541678e-07
     22     12   2   0.50000     0.1150000   -0.1150000   2.431434e-04  1.541678e-07
     22     23   2   0.50000     0.1150000    0.1150000   5.042375e-05  1.012808e-08
     10     24   2   0.50000    -0.1150000    0.1150000   2.431434e-04  1.541678e-07
     23     13   2   0.50000     0.1150000   -0.1150000   2.431434e-04  1.541678e-07
     23     24   2   0.50000     0.1150000    0.1150000   5.042375e-05  1.012808e-08
     11     25   2   0.50000    -0.1150000    0.1150000   2.431434e-04  1.541678e-07
     24      8   2   0.50000     0.1150000   -0.0418000   2.431434e-04  1.541678e-07
     24     25   2   0.50000     0.1150000    0.1150000   5.042375e-05  1.012808e-08
      2     29   2   0.50000     0.0000000   -0.1800000   1.015252e-03  1.866303e-06
      2     30   2   0.50000     0.0000000    0.5100000   1.575021e-03  3.561100e-06
      2     52   2   0.50000     0.0000000   -0.1200000   1.015252e-03  1.866303e-06
     40     29   2   0.50000     0.0600000   -0.1800000   2.494471e-04  1.671101e-07
     40     30   2   0.50000     0.0600000    0.5100000   3.869820e-04  3.188634e-07
     40     52   2   0.50000     0.0600000   -0.1200000   2.494471e-04  1.671101e-07
     41     29   2   0.50000     0.0600000   -0.1800000   2.494471e-04  1.671101e-07
     41     30   2   0.50000     0.0600000    0.5100000   3.869820e-04  3.188634e-07
     41     52   2   0.50000     0.0600000   -0.1200000   2.494471e-04  1.671101e-07
     27     42   2   0.50000    -0.1200000    0.0600000   2.494471e-04  1.671101e-07
     27     43   2   0.50000    -0.1200000    0.0600000   2.494471e-04  1.671101e-07
     27     44   2   0.50000    -0.1200000    0.0600000   2.494471e-04  1.671101e-07
     30     42   2   0.50000     0.5100000    0.0600000   3.869820e-04  3.188634e-07
     30     43   2   0.50000     0.5100000    0.0600000   3.869820e-04  3.188634e-07
     30     44   2   0.50000     0.5100000    0.0600000   3.869820e-04  3.188634e-07
     52     42   2   0.50000    -0.1200000    0.0600000   2.494471e-04  1.671101e-07
     52     43   2   0.50000    -0.1200000    0.0600000   2.494471e-04  1.671101e-07
     52     44   2   0.50000    -0.1200000    0.0600000   2.494471e-04  1.671101e-07
     27     31   2   0.50000    -0.1200000   -0.4300000   1.095425e-03  1.218041e-06
     27     32   2   0.50000    -0.1200000   -0.3300000   1.026091e-03  1.187829e-06
     29     31   2   0.50000    -0.1800000   -0.4300000   1.095425e-03  1.218041e-06
     29     32   2   0.50000    -0.1800000   -0.3300000   1.026091e-03  1.187829e-06
     52     31   2   0.50000    -0.1200000   -0.4300000   1.095425e-03  1.218041e-06
     52     32   2   0.50000    -0.1200000   -0.3300000   1.026091e-03  1.187829e-06
     27     53   2   0.50000    -0.1200000    0.0000000   1.015252e-03  1.866303e-06
     27     65   2   0.50000    -0.1200000    0.0600000   2.494471e-04  1.671101e-07
     27     66   2   0.50000    -0.1200000    0.0600000   2.494471e-04  1.671101e-07
     29     53   2   0.50000    -0.1800000    0.0000000   1.015252e-03  1.866303e-06
     29     65   2   0.50000    -0.1800000    0.0600000   2.494471e-04  1.671101e-07
     29     66   2   0.50000    -0.1800000    0.0600000   2.494471e-04  1.671101e-07
     30     53   2   0.50000     0.5100000    0.0000000   1.575021e-03  3.561100e-06
     30     65   2   0.50000     0.5100000    0.0600000   3.869820e-04  3.188634e-07
     30     66   2   0.50000     0.5100000    0.0600000   3.869820e-04  3.188634e-07
     28     33   2   0.50000     0.0000000    0.2318000   1.015252e-03  1.866303e-06
     31     33   2   0.50000    -0.4300000    0.2318000   1.095425e-03  1.218041e-06
     30     34   2   0.50000     0.5100000   -0.0418000   1.692561e-03  3.993218e-06
     30     45   2   0.50000     0.5100000    0.0300000   2.482000e-04  1.854991e-07
     30     46   2   0.50000     0.5100000    0.0300000   2.482000e-04  1.854991e-07
     32     35   2   0.50000    -0.3300000   -0.1150000   1.102666e-03  1.331965e-06
     32     39   2   0.50000    -0.3300000   -0.1150000   1.102666e-03  1.331965e-06
     45     35   2   0.50000     0.0300000   -0.1150000   1.719283e-04  1.090131e-07
     45     39   2   0.50000     0.0300000   -0.1150000   1.719283e-04  1.090131e-07
     46     35   2   0.50000     0.0300000   -0.1150000   1.719283e-04  1.090131e-07
     46     39   2   0.50000     0.0300000   -0.1150000   1.719283e-04  1.090131e-07
     33     36   2   0.50000     0.2318000   -0.1150000   1.091018e-03  2.092768e-06
     33     47   2   0.50000     0.2318000    0.1150000   2.262583e-04  1.374848e-07
     39     36   2   0.50000    -0.1150000   -0.1150000   1.172438e-03  2.346713e-06
     39     47   2   0.50000    -0.1150000    0.1150000   2.431434e-04  1.541678e-07
     33     38   2   0.50000     0.2318000   -0.1150000   1.091018e-03  2.092768e-06
     33     51   2   0.50000     0.2318000    0.1150000   2.262583e-04  1.374848e-07
     35     38   2   0.50000    -0.1150000   -0.1150000   1.172438e-03  2.346713e-06
     35     51   2   0.50000    -0.1150000    0.1150000   2.431434e-04  1.541678e-07
     34     37   2   0.50000    -0.0418000   -0.1150000   1.172438e-03  2.346713e-06
     34     48   2   0.50000    -0.0418000    0.1150000   2.431434e-04  1.541678e-07
     47     37   2   0.50000     0.1150000   -0.1150000   2.431434e-04  1.541678e-07
     47     48   2   0.50000     0.1150000    0.1150000   5.042375e-05  1.012808e-08
     35     49   2   0.50000    -0.1150000    0.1150000   2.431434e-04  1.541678e-07
     48     38   2   0.50000     0.1150000   -0.1150000   2.431434e-04  1.541678e-07
     48     49   2   0.50000     0.1150000    0.1150000   5.042375e-05  1.012808e-08
     36     50   2   0.50000    -0.1150000    0.1150000   2.431434e-04  1.541678e-07
     49     39   2   0.50000     0.1150000   -0.1150000   2.431434e-04  1.541678e-07
     49     50   2   0.50000     0.1150000    0.1150000   5.042375e-05  1.012808e-08
     37     51   2   0.50000    -0.1150000    0.1150000   2.431434e-04  1.541678e-07
     50     34   2   0.50000     0.1150000   -0.0418000   2.431434e-04  1.541678e-07
     50     51   2   0.50000     0.1150000    0.1150000   5.042375e-05  1.012808e-08
     28     54   2   0.50000     0.0000000   -0.1800000   1.015252e-03  1.866303e-06
     28     55   2   0.50000     0.0000000    0.5100000   1.575021e-03  3.561100e-06
     28     77   2   0.50000     0.0000000   -0.1200000   1.015252e-03  1.866303e-06
     65     54   2   0.50000     0.0600000   -0.1800000   2.494471e-04  1.671101e-07
     65     55   2   0.50000     0.0600000    0.5100000   3.869820e-04  3.188634e-07
     65     77   2   0.50000     0.0600000   -0.1200000   2.494471e-04  1.671101e-07
     66     54   2   0.50000     0.0600000   -0.1800000   2.494471e-04  1.671101e-07
     66     55   2   0.50000     0.0600000    0.5100000   3.869820e-04  3.188634e-07
     66     77   2   0.50000     0.0600000   -0.1200000   2.494471e-04  1.671101e-07
     52     67   2   0.50000    -0.1200000    0.0600000   2.494471e-04  1.671101e-07
     52     68   2   0.50000    -0.1200000    0.0600000   2.494471e-04  1.671101e-07
     52     69   2   0.50000    -0.1200000    0.0600000   2.494471e-04  1.671101e-07
     55     67   2   0.50000     0.5100000    0.0600000   3.869820e-04  3.188634e-07
     55     68   2   0.50000     0.5100000    0.0600000   3.869820e-04  3.188634e-07
     55     69   2   0.50000     0.5100000    0.0600000   3.869820e-04  3.188634e-07
     77     67   2   0.50000    -0.1200000    0.0600000   2.494471e-04  1.671101e-07
     77     68   2   0.50000    -0.1200000    0.0600000   2.494471e-04  1.671101e-07
     77     69   2   0.50000    -0.1200000    0.0600000   2.494471e-04  1.671101e-07
     52     56   2   0.50000    -0.1200000   -0.4300000   1.095425e-03  1.218041e-06
     52     57   2   0.50000    -0.1200000   -0.3300000   1.026091e-03  1.187829e-06
     54     56   2   0.50000    -0.1800000   -0.4300000   1.095425e-03  1.218041e-06
     54     57   2   0.50000    -0.1800000   -0.3300000   1.026091e-03  1.187829e-06
     77     56   2   0.50000    -0.1200000   -0.4300000   1.095425e-03  1.218041e-06
     77     57   2   0.50000    -0.1200000   -0.3300000   1.026091e-03  1.187829e-06
     52     78   2   0.50000    -0.1200000    0.0000000   1.015252e-03  1.866303e-06
     52     90   2   0.50000    -0.1200000    0.0600000   2.494471e-04  1.671101e-07
     52     91   2   0.50000    -0.1200000    0.0600000   2.494471e-04  1.671101e-07
     54     78   2   0.50000    -0.1800000    0.0000000   1.015252e-03  1.866303e-06
     54     90   2   0.50000    -0.1800000    0.0600000   2.494471e-04  1.671101e-07
     54     91   2   0.50000    -0.1800000    0.0600000   2.494471e-04  1.671101e-07
     55     78   2   0.50000     0.5100000    0.0000000   1.575021e-03  3.561100e-06
     55     90   2   0.50000     0.5100000    0.0600000   3.869820e-04  3.188634e-07
     55     91   2   0.50000     0.5100000    0.0600000   3.869820e-04  3.188634e-07
     53     58   2   0.50000     0.0000000    0.2318000   1.015252e-03  1.866303e-06
     56     58   2   0.50000    -0.4300000    0.2318000   1.095425e-03  1.218041e-06
     55     59   2   0.50000     0.5100000   -0.0418000   1.692561e-03  3.993218e-06
     55     70   2   0.50000     0.5100000    0.0300000   2.482000e-04  1.854991e-07
     55     71   2   0.50000     0.5100000    0.0300000   2.482000e-04  1.854991e-07
     57     60   2   0.50000    -0.3300000   -0.1150000   1.102666e-03  1.331965e-06
     57     64   2   0.50000    -0.3300000   -0.1150000   1.102666e-03  1.331965e-06
     70     60   2   0.50000     0.0300000   -0.1150000   1.719283e-04  1.090131e-07
     70     64   2   0.50000     0.0300000   -0.1150000   1.719283e-04  1.090131e-07
     71     60   2   0.50000     0.0300000   -0.1150000   1.719283e-04  1.090131e-07
     71     64   2   0.50000     0.0300000   -0.1150000   1.719283e-04  1.090131e-07
     58     61   2   0.50000     0.2318000   -0.1150000   1.091018e-03  2.092768e-06
     58     72   2   0.50000     0.2318000    0.1150000   2.262583e-04  1.374848e-07
     64     61   2   0.50000    -0.1150000   -0.1150000   1.172438e-03  2.346713e-06
     64     72   2   0.50000    -0.1150000    0.1150000   2.431434e-04  1.541678e-07
     58     63   2   0.50000     0.2318000   -0.1150000   1.091018e-03  2.092768e-06
     58     76   2   0.50000     0.2318000    0.1150000   2.262583e-04  1.374848e-07
     60     63   2   0.50000    -0.1150000   -0.1150000   1.172438e-03  2.346713e-06
     60     76   2   0.50000    -0.1150000    0.1150000   2.431434e-04  1.541678e-07
     59     62   2   0.50000    -0.0418000   -0.1150000   1.172438e-03  2.346713e-06
     59     73   2   0.50000    -0.0418000    0.1150000   2.431434e-04  1.541678e-07
     72     62   2   0.50000     0.1150000   -0.1150000   2.431434e-04  1.541678e-07
     72     73   2   0.50000     0.1150000    0.1150000   5.042375e-05  1.012808e-08
     60     74   2   0.50000    -0.1150000    0.1150000   2.431434e-04  1.541678e-07
     73     63   2   0.50000     0.1150000   -0.1150000   2.431434e-04  1.541678e-07
     73     74   2   0.50000     0.1150000    0.1150000   5.042375e-05  1.012808e-08
     61     75   2   0.50000    -0.1150000    0.1150000   2.431434e-04  1.541678e-07
     74     64   2   0.50000     0.1150000   -0.1150000   2.431434e-04  1.541678e-07
     74     75   2   0.50000     0.1150000    0.1150000   5.042375e-05  1.012808e-08
     62     76   2   0.50000    -0.1150000    0.1150000   2.431434e-04  1.541678e-07
     75     59   2   0.50000     0.1150000   -0.0418000   2.431434e-04  1.541678e-07
     75     76   2   0.50000     0.1150000    0.1150000   5.042375e-05  1.012808e-08
     53     79   2   0.50000     0.0000000   -0.1800000   1.015252e-03  1.866303e-06
     53     80   2   0.50000     0.0000000    0.5100000   1.575021e-03  3.561100e-06
     53    102   2   0.50000     0.0000000   -0.1200000   1.015252e-03  1.866303e-06
     90     79   2   0.50000     0.0600000   -0.1800000   2.494471e-04  1.671101e-07
     90     80   2   0.50000     0.0600000    0.5100000   3.869820e-04  3.188634e-07
     90    102   2   0.50000     0.0600000   -0.1200000   2.494471e-04  1.671101e-07
     91     79   2   0.50000     0.0600000   -0.1800000   2.494471e-04  1.671101e-07
     91     80   2   0.50000     0.0600000    0.5100000   3.869820e-04  3.188634e-07
     91    102   2   0.50000     0.0600000   -0.1200000   2.494471e-04  1.671101e-07
     77     92   2   0.50000    -0.1200000    0.0600000   2.494471e-04  1.671101e-07
     77     93   2   0.50000    -0.1200000    0.0600000   2.494471e-04  1.671101e-07
     77     94   2   0.50000    -0.1200000    0.0600000   2.494471e-04  1.671101e-07
     80     92   2   0.50000     0.5100000    0.0600000   3.869820e-04  3.188634e-07
     80     93   2   0.50000     0.5100000    0.0600000   3.869820e-04  3.188634e-07
     80     94   2   0.50000     0.5100000    0.0600000   3.869820e-04  3.188634e-07
    102     92   2   0.50000    -0.1200000    0.0600000   2.494471e-04  1.671101e-07
    102     93   2   0.50000    -0.1200000    0.0600000   2.494471e-04  1.671101e-07
    102     94   2   0.50000    -0.1200000    0.0600000   2.494471e-04  1.671101e-07
     77     81   2   0.50000    -0.1200000   -0.4300000   1.095425e-03  1.218041e-06
     77     82   2   0.50000    -0.1200000   -0.3300000   1.026091e-03  1.187829e-06
     79     81   2   0.50000    -0.1800000   -0.4300000   1.095425e-03  1.218041e-06
     79     82   2   0.50000    -0.1800000   -0.3300000   1.026091e-03  1.187829e-06
    102     81   2   0.50000    -0.1200000   -0.4300000   1.095425e-03  1.218041e-06
    102     82   2   0.50000    -0.1200000   -0.3300000   1.026091e-03  1.187829e-06
     77    103   2   0.50000    -0.1200000    0.0000000   1.015252e-03  1.866303e-06
     77    115   2   0.50000    -0.1200000    0.0600000   2.494471e-04  1.671101e-07
     77    116   2   0.50000    -0.1200000    0.0600000   2.494471e-04  1.671101e-07
     79    103   2   0.50000    -0.1800000    0.0000000   1.015252e-03  1.866303e-06
     79    115   2   0.50000    -0.1800000    0.0600000   2.494471e-04  1.671101e-07
     79    116   2   0.50000    -0.1800000    0.0600000   2.494471e-04  1.671101e-07
     80    103   2   0.50000     0.5100000    0.0000000   1.575021e-03  3.561100e-06
     80    115   2   0.50000     0.5100000    0.0600000   3.869820e-04  3.188634e-07
     80    116   2   0.50000     0.5100000    0.0600000   3.869820e-04  3.188634e-07
     78     83   2   0.50000     0.0000000    0.2318000   1.015252e-03  1.866303e-06
     81     83   2   0.50000    -0.4300000    0.2318000   1.095425e-03  1.218041e-06
     80     84   2   0.50000     0.5100000   -0.0418000   1.692561e-03  3.993218e-06
     80     95   2   0.50000     0.5100000    0.0300000   2.482000e-04  1.854991e-07
     80     96   2   0.50000     0.5100000    0.0300000   2.482000e-04  1.854991e-07
     82     85   2   0.50000    -0.3300000   -0.1150000   1.102666e-03  1.331965e-06
     82     89   2   0.50000    -0.3300000   -0.1150000   1.102666e-03  1.331965e-06
     95     85   2   0.50000     0.0300000   -0.1150000   1.719283e-04  1.090131e-07
     95     89   2   0.50000     0.0300000   -0.1150000   1.719283e-04  1.090131e-07
     96     85   2   0.50000     0.0300000   -0.1150000   1.719283e-04  1.090131e-07
     96     89   2   0.50000     0.0300000   -0.1150000   1.719283e-04  1.090131e-07
     83     86   2   0.50000     0.2318000   -0.1150000   1.091018e-03  2.092768e-06
     83     97   2   0.50000     0.2318000    0.1150000   2.262583e-04  1.374848e-07
     89     86   2   0.50000    -0.1150000   -0.1150000   1.172438e-03  2.346713e-06
     89     97   2   0.50000    -0.1150000    0.1150000   2.431434e-04  1.541678e-07
     83     88   2   0.50000     0.2318000   -0.1150000   1.091018e-03  2.092768e-06
     83    101   2   0.50000     0.2318000    0.1150000   2.262583e-04  1.374848e-07
     85     88   2   0.50000    -0.1150000   -0.1150000   1.172438e-03  2.346713e-06
     85    101   2   0.50000    -0.1150000    0.1150000   2.431434e-04  1.541678e-07
     84     87   2   0.50000    -0.0418000   -0.1150000   1.172438e-03  2.346713e-06
     84     98   2   0.50000    -0.0418000    0.1150000   2.431434e-04  1.541678e-07
     97     87   2   0.50000     0.1150000   -0.1150000   2.431434e-04  1.541678e-07
     97     98   2   0.50000     0.1150000    0.1150000   5.042375e-05  1.012808e-08
     85     99   2   0.50000    -0.1150000    0.1150000   2.431434e-04  1.541678e-07
     98     88   2   0.50000     0.1150000   -0.1150000   2.431434e-04  1.541678e-07
     98     99   2   0.50000     0.1150000    0.1150000   5.042375e-05  1.012808e-08
     86    100   2   0.50000    -0.1150000    0.1150000   2.431434e-04  1.541678e-07
     99     89   2   0.50000     0.1150000   -0.1150000   2.431434e-04  1.541678e-07
     99    100   2   0.50000     0.1150000    0.1150000   5.042375e-05  1.012808e-08
     87    101   2   0.50000    -0.1150000    0.1150000   2.431434e-04  1.541678e-07
    100     84   2   0.50000     0.1150000   -0.0418000   2.431434e-04  1.541678e-07
    100    101   2   0.50000     0.1150000    0.1150000   5.042375e-05  1.012808e-08
     78    104   2   0.50000     0.0000000   -0.1800000   1.015252e-03  1.866303e-06
     78    105   2   0.50000     0.0000000    0.5100000   1.575021e-03  3.561100e-06
     78    127   2   0.50000     0.0000000   -0.1200000   1.015252e-03  1.866303e-06
    115    104   2   0.50000     0.0600000   -0.1800000   2.494471e-04  1.671101e-07
    115    105   2   0.50000     0.0600000    0.5100000   3.869820e-04  3.188634e-07
    115    127   2   0.50000     0.0600000   -0.1200000   2.494471e-04  1.671101e-07
    116    104   2   0.50000     0.0600000   -0.1800000   2.494471e-04  1.671101e-07
    116    105   2   0.50000     0.0600000    0.5100000   3.869820e-04  3.188634e-07
    116    127   2   0.50000     0.0600000   -0.1200000   2.494471e-04  1.671101e-07
    102    117   2   0.50000    -0.1200000    0.0600000   2.494471e-04  1.671101e-07
    102    118   2   0.50000    -0.1200000    0.0600000   2.494471e-04  1.671101e-07
    102    119   2   0.50000    -0.1200000    0.0600000   2.494471e-04  1.671101e-07
    105    117   2   0.50000     0.5100000    0.0600000   3.869820e-04  3.188634e-07
    105    118   2   0.50000     0.5100000    0.0600000   3.869820e-04  3.188634e-07
    105    119   2   0.50000     0.5100000    0.0600000   3.869820e-04  3.188634e-07
    127    117   2   0.50000    -0.1200000    0.0600000   2.494471e-04  1.671101e-07
    127    118   2   0.50000    -0.1200000    0.0600000   2.494471e-04  1.671101e-07
    127    119   2   0.50000    -0.1200000    0.0600000   2.494471e-04  1.671101e-07
    102    106   2   0.50000    -0.1200000   -0.4300000   1.095425e-03  1.218041e-06
    102    107   2   0.50000    -0.1200000   -0.3300000   1.026091e-03  1.187829e-06
    104    106   2   0.50000    -0.1800000   -0.4300000   1.095425e-03  1.218041e-06
    104    107   2   0.50000    -0.1800000   -0.3300000   1.026091e-03  1.187829e-06
    127    106   2   0.50000    -0.1200000   -0.4300000   1.095425e-03  1.218041e-06
    127    107   2   0.50000    -0.1200000   -0.3300000   1.026091e-03  1.187829e-06
    102    128   2   0.50000    -0.1200000    0.0000000   1.015252e-03  1.866303e-06
    102    140   2   0.50000    -0.1200000    0.0600000   2.494471e-04  1.671101e-07
    102    141   2   0.50000    -0.1200000    0.0600000   2.494471e-04  1.671101e-07
    104    128   2   0.50000    -0.1800000    0.0000000   1.015252e-03  1.866303e-06
    104    140   2   0.50000    -0.1800000    0.0600000   2.494471e-04  1.671101e-07
    104    141   2   0.50000    -0.1800000    0.0600000   2.494471e-04  1.671101e-07
    105    128   2   0.50000     0.5100000    0.0000000   1.575021e-03  3.561100e-06
    105    140   2   0.50000     0.5100000    0.0600000   3.869820e-04  3.188634e-07
    105    141   2   0.50000     0.5100000    0.0600000   3.869820e-04  3.188634e-07
    103    108   2   0.50000     0.0000000    0.2318000   1.015252e-03  1.866303e-06
    106    108   2   0.50000    -0.4300000    0.2318000   1.095425e-03  1.218041e-06
    105    109   2   0.50000     0.5100000   -0.0418000   1.692561e-03  3.993218e-06
    105    120   2   0.50000     0.5100000    0.0300000   2.482000e-04  1.854991e-07
    105    121   2   0.50000     0.5100000    0.0300000   2.482000e-04  1.854991e-07
    107    110   2   0.50000    -0.3300000   -0.1150000   1.102666e-03  1.331965e-06
    107    114   2   0.50000    -0.3300000   -0.1150000   1.102666e-03  1.331965e-06
    120    110   2   0.50000     0.0300000   -0.1150000   1.719283e-04  1.090131e-07
    120    114   2   0.50000     0.0300000   -0.1150000   1.719283e-04  1.090131e-07
    121    110   2   0.50000     0.0300000   -0.1150000   1.719283e-04  1.090131e-07
    121    114   2   0.50000     0.0300000   -0.1150000   1.719283e-04  1.090131e-07
    108    111   2   0.50000     0.2318000   -0.1150000   1.091018e-03  2.092768e-06
    108    122   2   0.50000     0.2318000    0.1150000   2.262583e-04  1.374848e-07
    114    111   2   0.50000    -0.1150000   -0.1150000   1.172438e-03  2.346713e-06
    114    122   2   0.50000    -0.1150000    0.1150000   2.431434e-04  1.541678e-07
    108    113   2   0.50000     0.2318000   -0.1150000   1.091018e-03  2.092768e-06
    108    126   2   0.50000     0.2318000    0.1150000   2.262583e-04  1.374848e-07
    110    113   2   0.50000    -0.1150000   -0.1150000   1.172438e-03  2.346713e-06
    110    126   2   0.50000    -0.1150000    0.1150000   2.431434e-04  1.541678e-07
    109    112   2   0.50000    -0.0418000   -0.1150000   1.172438e-03  2.346713e-06
    109    123   2   0.50000    -0.0418000    0.1150000   2.431434e-04  1.541678e-07
    122    112   2   0.50000     0.1150000   -0.1150000   2.431434e-04  1.541678e-07
    122    123   2   0.50000     0.1150000    0.1150000   5.042375e-05  1.012808e-08
    110    124   2   0.50000    -0.1150000    0.1150000   2.431434e-04  1.541678e-07
    123    113   2   0.50000     0.1150000   -0.1150000   2.431434e-04  1.541678e-07
    123    124   2   0.50000     0.1150000    0.1150000   5.042375e-05  1.012808e-08
    111    125   2   0.50000    -0.1150000    0.1150000   2.431434e-04  1.541678e-07
    124    114   2   0.50000     0.1150000   -0.1150000   2.431434e-04  1.541678e-07
    124    125   2   0.50000     0.1150000    0.1150000   5.042375e-05  1.012808e-08
    112    126   2   0.50000    -0.1150000    0.1150000   2.431434e-04  1.541678e-07
    125    109   2   0.50000     0.1150000   -0.0418000   2.431434e-04  1.541678e-07
    125    126   2   0.50000     0.1150000    0.1150000   5.042375e-05  1.012808e-08
    103    129   2   0.50000     0.0000000   -0.1800000   1.015252e-03  1.866303e-06
    103    130   2   0.50000     0.0000000    0.5100000   1.575021e-03  3.561100e-06
    103    152   2   0.50000     0.0000000   -0.1200000   1.015252e-03  1.866303e-06
    140    129   2   0.50000     0.0600000   -0.1800000   2.494471e-04  1.671101e-07
    140    130   2   0.50000     0.0600000    0.5100000   3.869820e-04  3.188634e-07
    140    152   2   0.50000     0.0600000   -0.1200000   2.494471e-04  1.671101e-07
    141    129   2   0.50000     0.0600000   -0.1800000   2.494471e-04  1.671101e-07
    141    130   2   0.50000     0.0600000    0.5100000   3.869820e-04  3.188634e-07
    141    152   2   0.50000     0.0600000   -0.1200000   2.494471e-04  1.671101e-07
    127    142   2   0.50000    -0.1200000    0.0600000   2.494471e-04  1.671101e-07
    127    143   2   0.50000    -0.1200000    0.0600000   2.494471e-04  1.671101e-07
    127    144   2   0.50000    -0.1200000    0.0600000   2.494471e-04  1.671101e-07
    130    142   2   0.50000     0.5100000    0.0600000   3.869820e-04  3.188634e-07
    130    143   2   0.50000     0.5100000    0.0600000   3.869820e-04  3.188634e-07
    130    144   2   0.50000     0.5100000    0.0600000   3.869820e-04  3.188634e-07
    152    142   2   0.50000    -0.1200000    0.0600000   2.494471e-04  1.671101e-07
    152    143   2   0.50000    -0.1200000    0.0600000   2.494471e-04  1.671101e-07
    152    144   2   0.50000    -0.1200000    0.0600000   2.494471e-04  1.671101e-07
    127    131   2   0.50000    -0.1200000   -0.4300000   1.095425e-03  1.218041e-06
    127    132   2   0.50000    -0.1200000   -0.3300000   1.026091e-03  1.187829e-06
    129    131   2   0.50000    -0.1800000   -0.4300000   1.095425e-03  1.218041e-06
    129    132   2   0.50000    -0.1800000   -0.3300000   1.026091e-03  1.187829e-06
    152    131   2   0.50000    -0.1200000   -0.4300000   1.095425e-03  1.218041e-06
    152    132   2   0.50000    -0.1200000   -0.3300000   1.026091e-03  1.187829e-06
    127    153   2   0.50000    -0.1200000    0.0000000   1.015252e-03  1.866303e-06
    127    165   2   0.50000    -0.1200000    0.0600000   2.494471e-04  1.671101e-07
    127    166   2   0.50000    -0.1200000    0.0600000   2.494471e-04  1.671101e-07
    129    153   2   0.50000    -0.1800000    0.0000000   1.015252e-03  1.866303e-06
    129    165   2   0.50000    -0.1800000    0.0600000   2.494471e-04  1.671101e-07
    129    166   2   0.50000    -0.1800000    0.0600000   2.494471e-04  1.671101e-07
    130    153   2   0.50000     0.5100000    0.0000000   1.575021e-03  3.561100e-06
    130    165   2   0.50000     0.5100000    0.0600000   3.869820e-04  3.188634e-07
    130    166   2   0.50000     0.5100000    0.0600000   3.869820e-04  3.188634e-07
    128    133   2   0.50000     0.0000000    0.2318000   1.015252e-03  1.866303e-06
    131    133   2   0.50000    -0.4300000    0.2318000   1.095425e-03  1.218041e-06
    130    134   2   0.50000     0.5100000   -0.0418000   1.692561e-03  3.993218e-06
    130    145   2   0.50000     0.5100000    0.0300000   2.482000e-04  1.854991e-07
    130    146   2   0.50000     0.5100000    0.0300000   2.482000e-04  1.854991e-07
    132    135   2   0.50000    -0.3300000   -0.1150000   1.102666e-03  1.331965e-06
    132    139   2   0.50000    -0.3300000   -0.1150000   1.102666e-03  1.331965e-06
    145    135   2   0.50000     0.0300000   -0.1150000   1.719283e-04  1.090131e-07
    145    139   2   0.50000     0.0300000   -0.1150000   1.719283e-04  1.090131e-07
    146    135   2   0.50000     0.0300000   -0.1150000   1.719283e-04  1.090131e-07
    146    139   2   0.50000     0.0300000   -0.1150000   1.719283e-04  1.090131e-07
    133    136   2   0.50000     0.2318000   -0.1150000   1.091018e-03  2.092768e-06
    133    147   2   0.50000     0.2318000    0.1150000   2.262583e-04  1.374848e-07
    139    136   2   0.50000    -0.1150000   -0.1150000   1.172438e-03  2.346713e-06
    139    147   2   0.50000    -0.1150000    0.1150000   2.431434e-04  1.541678e-07
    133    138   2   0.50000     0.2318000   -0.1150000   1.091018e-03  2.092768e-06
    133    151   2   0.50000     0.2318000    0.1150000   2.262583e-04  1.374848e-07
    135    138   2   0.50000    -0.1150000   -0.1150000   1.172438e-03  2.346713e-06
    135    151   2   0.50000    -0.1150000    0.1150000   2.431434e-04  1.541678e-07
    134    137   2   0.50000    -0.0418000   -0.1150000   1.172438e-03  2.346713e-06
    134    148   2   0.50000    -0.0418000    0.1150000   2.431434e-04  1.541678e-07
    147    137   2   0.50000     0.1150000   -0.1150000   2.431434e-04  1.541678e-07
    147    148   2   0.50000     0.1150000    0.1150000   5.042375e-05  1.012808e-08
    135    149   2   0.50000    -0.1150000    0.1150000   2.431434e-04  1.541678e-07
    148    138   2   0.50000     0.1150000   -0.1150000   2.431434e-04  1.541678e-07
    148    149   2   0.50000     0.1150000    0.1150000   5.042375e-05  1.012808e-08
    136    150   2   0.50000    -0.1150000    0.1150000   2.431434e-04  1.541678e-07
    149    139   2   0.50000     0.1150000   -0.1150000   2.431434e-04  1.541678e-07
    149    150   2   0.50000     0.1150000    0.1150000   5.042375e-05  1.012808e-08
    137    151   2   0.50000    -0.1150000    0.1150000   2.431434e-04  1.541678e-07
    150    134   2   0.50000     0.1150000   -0.0418000   2.431434e-04  1.541678e-07
    150    151   2   0.50000     0.1150000    0.1150000   5.042375e-05  1.012808e-08
    128    154   2   0.50000     0.0000000   -0.1800000   1.015252e-03  1.866303e-06
    128    155   2   0.50000     0.0000000    0.5100000   1.575021e-03  3.561100e-06
    128    177   2   0.50000     0.0000000   -0.1200000   1.015252e-03  1.866303e-06
    165    154   2   0.50000     0.0600000   -0.1800000   2.494471e-04  1.671101e-07
    165    155   2   0.50000     0.0600000    0.5100000   3.869820e-04  3.188634e-07
    165    177   2   0.50000     0.0600000   -0.1200000   2.494471e-04  1.671101e-07
    166    154   2   0.50000     0.0600000   -0.1800000   2.494471e-04  1.671101e-07
    166    155   2   0.50000     0.0600000    0.5100000   3.869820e-04  3.188634e-07
    166    177   2   0.50000     0.0600000   -0.1200000   2.494471e-04  1.671101e-07
    152    167   2   0.50000    -0.1200000    0.0600000   2.494471e-04  1.671101e-07
    152    168   2   0.50000    -0.1200000    0.0600000   2.494471e-04  1.671101e-07
    152    169   2   0.50000    -0.1200000    0.0600000   2.494471e-04  1.671101e-07
    155    167   2   0.50000     0.5100000    0.0600000   3.869820e-04  3.188634e-07
    155    168   2   0.50000     0.5100000    0.0600000   3.869820e-04  3.188634e-07
    155    169   2   0.50000     0.5100000    0.0600000   3.869820e-04  3.188634e-07
    177    167   2   0.50000    -0.1200000    0.0600000   2.494471e-04  1.671101e-07
    177    168   2   0.50000    -0.1200000    0.0600000   2.494471e-04  1.671101e-07
    177    169   2   0.50000    -0.1200000    0.0600000   2.494471e-04  1.671101e-07
    152    156   2   0.50000    -0.1200000   -0.4300000   1.095425e-03  1.218041e-06
    152    157   2   0.50000    -0.1200000   -0.3300000   1.026091e-03  1.187829e-06
    154    156   2   0.50000    -0.1800000   -0.4300000   1.095425e-03  1.218041e-06
    154    157   2   0.50000    -0.1800000   -0.3300000   1.026091e-03  1.187829e-06
    177    156   2   0.50000    -0.1200000   -0.4300000   1.095425e-03  1.218041e-06
    177    157   2   0.50000    -0.1200000   -0.3300000   1.026091e-03  1.187829e-06
    152    178   2   0.50000    -0.1200000    0.0000000   1.015252e-03  1.866303e-06
    152    190   2   0.50000    -0.1200000    0.0600000   2.494471e-04  1.671101e-07
    152    191   2   0.50000    -0.1200000    0.0600000   2.494471e-04  1.671101e-07
    154    178   2   0.50000    -0.1800000    0.0000000   1.015252e-03  1.866303e-06
    154    190   2   0.50000    -0.1800000    0.0600000   2.494471e-04  1.671101e-07
    154    191   2   0.50000    -0.1800000    0.0600000   2.494471e-04  1.671101e-07
    155    178   2   0.50000     0.5100000    0.0000000   1.575021e-03  3.561100e-06
    155    190   2   0.50000     0.5100000    0.0600000   3.869820e-04  3.188634e-07
    155    191   2   0.50000     0.5100000    0.0600000   3.869820e-04  3.188634e-07
    153    158   2   0.50000     0.0000000    0.2318000   1.015252e-03  1.866303e-06
    156    158   2   0.50000    -0.4300000    0.2318000   1.095425e-03  1.218041e-06
    155    159   2   0.50000     0.5100000   -0.0418000   1.692561e-03  3.993218e-06
    155    170   2   0.50000     0.5100000    0.0300000   2.482000e-04  1.854991e-07
    155    171   2   0.50000     0.5100000    0.0300000   2.482000e-04  1.854991e-07
    157    160   2   0.50000    -0.3300000   -0.1150000   1.102666e-03  1.331965e-06
    157    164   2   0.50000    -0.3300000   -0.1150000   1.102666e-03  1.331965e-06
    170    160   2   0.50000     0.0300000   -0.1150000   1.719283e-04  1.090131e-07
    170    164   2   0.50000     0.0300000   -0.1150000   1.719283e-04  1.090131e-07
    171    160   2   0.50000     0.0300000   -0.1150000   1.719283e-04  1.090131e-07
    171    164   2   0.50000     0.0300000   -0.1150000   1.719283e-04  1.090131e-07
    158    161   2   0.50000     0.2318000   -0.1150000   1.091018e-03  2.092768e-06
    158    172   2   0.50000     0.2318000    0.1150000   2.262583e-04  1.374848e-07
    164    161   2   0.50000    -0.1150000   -0.1150000   1.172438e-03  2.346713e-06
    164    172   2   0.50000    -0.1150000    0.1150000   2.431434e-04  1.541678e-07
    158    163   2   0.50000     0.2318000   -0.1150000   1.091018e-03  2.092768e-06
    158    176   2   0.50000     0.2318000    0.1150000   2.262583e-04  1.374848e-07
    160    163   2   0.50000    -0.1150000   -0.1150000   1.172438e-03  2.346713e-06
    160    176   2   0.50000    -0.1150000    0.1150000   2.431434e-04  1.541678e-07
    159    162   2   0.50000    -0.0418000   -0.1150000   1.172438e-03  2.346713e-06
    159    173   2   0.50000    -0.0418000    0.1150000   2.431434e-04  1.541678e-07
    172    162   2   0.50000     0.1150000   -0.1150000   2.431434e-04  1.541678e-07
    172    173   2   0.50000     0.1150000    0.1150000   5.042375e-05  1.012808e-08
    160    174   2   0.50000    -0.1150000    0.1150000   2.431434e-04  1.541678e-07
    173    163   2   0.50000     0.1150000   -0.1150000   2.431434e-04  1.541678e-07
    173    174   2   0.50000     0.1150000    0.1150000   5.042375e-05  1.012808e-08
    161    175   2   0.50000    -0.1150000    0.1150000   2.431434e-04  1.541678e-07
    174    164   2   0.50000     0.1150000   -0.1150000   2.431434e-04  1.541678e-07
    174    175   2   0.50000     0.1150000    0.1150000   5.042375e-05  1.012808e-08
    162    176   2   0.50000    -0.1150000    0.1150000   2.431434e-04  1.541678e-07
    175    159   2   0.50000     0.1150000   -0.0418000   2.431434e-04  1.541678e-07
    175    176   2   0.50000     0.1150000    0.1150000   5.042375e-05  1.012808e-08
    153    179   2   0.50000     0.0000000   -0.1800000   1.015252e-03  1.866303e-06
    153    180   2   0.50000     0.0000000    0.5100000   1.575021e-03  3.561100e-06
    153    202   2   0.50000     0.0000000   -0.1200000   1.015252e-03  1.866303e-06
    190    179   2   0.50000     0.0600000   -0.1800000   2.494471e-04  1.671101e-07
    190    180   2   0.50000     0.0600000    0.5100000   3.869820e-04  3.188634e-07
    190    202   2   0.50000     0.0600000   -0.1200000   2.494471e-04  1.671101e-07
    191    179   2   0.50000     0.0600000   -0.1800000   2.494471e-04  1.671101e-07
    191    180   2   0.50000     0.0600000    0.5100000   3.869820e-04  3.188634e-07
    191    202   2   0.50000     0.0600000   -0.1200000   2.494471e-04  1.671101e-07
    177    192   2   0.50000    -0.1200000    0.0600000   2.494471e-04  1.671101e-07
    177    193   2   0.50000    -0.1200000    0.0600000   2.494471e-04  1.671101e-07
    177    194   2   0.50000    -0.1200000    0.0600000   2.494471e-04  1.671101e-07
    180    192   2   0.50000     0.5100000    0.0600000   3.869820e-04  3.188634e-07
    180    193   2   0.50000     0.5100000    0.0600000   3.869820e-04  3.188634e-07
    180    194   2   0.50000     0.5100000    0.0600000   3.869820e-04  3.188634e-07
    202    192   2   0.50000    -0.1200000    0.0600000   2.494471e-04  1.671101e-07
    202    193   2   0.50000    -0.1200000    0.0600000   2.494471e-04  1.671101e-07
    202    194   2   0.50000    -0.1200000    0.0600000   2.494471e-04  1.671101e-07
    177    181   2   0.50000    -0.1200000   -0.4300000   1.095425e-03  1.218041e-06
    177    182   2   0.50000    -0.1200000   -0.3300000   1.026091e-03  1.187829e-06
    179    181   2   0.50000    -0.1800000   -0.4300000   1.095425e-03  1.218041e-06
    179    182   2   0.50000    -0.1800000   -0.3300000   1.026091e-03  1.187829e-06
    202    181   2   0.50000    -0.1200000   -0.4300000   1.095425e-03  1.218041e-06
    202    182   2   0.50000    -0.1200000   -0.3300000   1.026091e-03  1.187829e-06
    177    203   2   0.50000    -0.1200000    0.0000000   1.015252e-03  1.866303e-06
    177    215   2   0.50000    -0.1200000    0.0600000   2.494471e-04  1.671101e-07
    177    216   2   0.50000    -0.1200000    0.0600000   2.494471e-04  1.671101e-07
    179    203   2   0.50000    -0.1800000    0.0000000   1.015252e-03  1.866303e-06
    179    215   2   0.50000    -0.1800000    0.0600000   2.494471e-04  1.671101e-07
    179    216   2   0.50000    -0.1800000    0.0600000   2.494471e-04  1.671101e-07
    180    203   2   0.50000     0.5100000    0.0000000   1.575021e-03  3.561100e-06
    180    215   2   0.50000     0.5100000    0.0600000   3.869820e-04  3.188634e-07
    180    216   2   0.50000     0.5100000    0.0600000   3.869820e-04  3.188634e-07
    178    183   2   0.50000     0.0000000    0.2318000   1.015252e-03  1.866303e-06
    181    183   2   0.50000    -0.4300000    0.2318000   1.095425e-03  1.218041e-06
    180    184   2   0.50000     0.5100000   -0.0418000   1.692561e-03  3.993218e-06
    180    195   2   0.50000     0.5100000    0.0300000   2.482000e-04  1.854991e-07
    180    196   2   0.50000     0.5100000    0.0300000   2.482000e-04  1.854991e-07
    182    185   2   0.50000    -0.3300000   -0.1150000   1.102666e-03  1.331965e-06
    182    189   2   0.50000    -0.3300000   -0.1150000   1.102666e-03  1.331965e-06
    195    185   2   0.50000     0.0300000   -0.1150000   1.719283e-04  1.090131e-07
    195    189   2   0.50000     0.0300000   -0.1150000   1.719283e-04  1.090131e-07
    196    185   2   0.50000     0.0300000   -0.1150000   1.719283e-04  1.090131e-07
    196    189   2   0.50000     0.0300000   -0.1150000   1.719283e-04  1.090131e-07
    183    186   2   0.50000     0.2318000   -0.1150000   1.091018e-03  2.092768e-06
    183    197   2   0.50000     0.2318000    0.1150000   2.262583e-04  1.374848e-07
    189    186   2   0.50000    -0.1150000   -0.1150000   1.172438e-03  2.346713e-06
    189    197   2   0.50000    -0.1150000    0.1150000   2.431434e-04  1.541678e-07
    183    188   2   0.50000     0.2318000   -0.1150000   1.091018e-03  2.092768e-06
    183    201   2   0.50000     0.2318000    0.1150000   2.262583e-04  1.374848e-07
    185    188   2   0.50000    -0.1150000   -0.1150000   1.172438e-03  2.346713e-06
    185    201   2   0.50000    -0.1150000    0.1150000   2.431434e-04  1.541678e-07
    184    187   2   0.50000    -0.0418000   -0.1150000   1.172438e-03  2.346713e-06
    184    198   2   0.50000    -0.0418000    0.1150000   2.431434e-04  1.541678e-07
    197    187   2   0.50000     0.1150000   -0.1150000   2.431434e-04  1.541678e-07
    197    198   2   0.50000     0.1150000    0.1150000   5.042375e-05  1.012808e-08
    185    199   2   0.50000    -0.1150000    0.1150000   2.431434e-04  1.541678e-07
    198    188   2   0.50000     0.1150000   -0.1150000   2.431434e-04  1.541678e-07
    198    199   2   0.50000     0.1150000    0.1150000   5.042375e-05  1.012808e-08
    186    200   2   0.50000    -0.1150000    0.1150000   2.431434e-04  1.541678e-07
    199    189   2   0.50000     0.1150000   -0.1150000   2.431434e-04  1.541678e-07
    199    200   2   0.50000     0.1150000    0.1150000   5.042375e-05  1.012808e-08
    187    201   2   0.50000    -0.1150000    0.1150000   2.431434e-04  1.541678e-07
    200    184   2   0.50000     0.1150000   -0.0418000   2.431434e-04  1.541678e-07
    200    201   2   0.50000     0.1150000    0.1150000   5.042375e-05  1.012808e-08
    178    204   2   0.50000     0.0000000   -0.1800000   1.015252e-03  1.866303e-06
    178    205   2   0.50000     0.0000000    0.5100000   1.575021e-03  3.561100e-06
    178    227   2   0.50000     0.0000000   -0.1200000   1.015252e-03  1.866303e-06
    215    204   2   0.50000     0.0600000   -0.1800000   2.494471e-04  1.671101e-07
    215    205   2   0.50000     0.0600000    0.5100000   3.869820e-04  3.188634e-07
    215    227   2   0.50000     0.0600000   -0.1200000   2.494471e-04  1.671101e-07
    216    204   2   0.50000     0.0600000   -0.1800000   2.494471e-04  1.671101e-07
    216    205   2   0.50000     0.0600000    0.5100000   3.869820e-04  3.188634e-07
    216    227   2   0.50000     0.0600000   -0.1200000   2.494471e-04  1.671101e-07
    202    217   2   0.50000    -0.1200000    0.0600000   2.494471e-04  1.671101e-07
    202    218   2   0.50000    -0.1200000    0.0600000   2.494471e-04  1.671101e-07
    202    219   2   0.50000    -0.1200000    0.0600000   2.494471e-04  1.671101e-07
    205    217   2   0.50000     0.5100000    0.0600000   3.869820e-04  3.188634e-07
    205    218   2   0.50000     0.5100000    0.0600000   3.869820e-04  3.188634e-07
    205    219   2   0.50000     0.5100000    0.0600000   3.869820e-04  3.188634e-07
    227    217   2   0.50000    -0.1200000    0.0600000   2.494471e-04  1.671101e-07
    227    218   2   0.50000    -0.1200000    0.0600000   2.494471e-04  1.671101e-07
    227    219   2   0.50000    -0.1200000    0.0600000   2.494471e-04  1.671101e-07
    202    206   2   0.50000    -0.1200000   -0.4300000   1.095425e-03  1.218041e-06
    202    207   2   0.50000    -0.1200000   -0.3300000   1.026091e-03  1.187829e-06
    204    206   2   0.50000    -0.1800000   -0.4300000   1.095425e-03  1.218041e-06
    204    207   2   0.50000    -0.1800000   -0.3300000   1.026091e-03  1.187829e-06
    227    206   2   0.50000    -0.1200000   -0.4300000   1.095425e-03  1.218041e-06
    227    207   2   0.50000    -0.1200000   -0.3300000   1.026091e-03  1.187829e-06
    202    228   2   0.50000    -0.1200000    0.0000000   1.015252e-03  1.866303e-06
    202    240   2   0.50000    -0.1200000    0.0600000   2.494471e-04  1.671101e-07
    202    241   2   0.50000    -0.1200000    0.0600000   2.494471e-04  1.671101e-07
    204    228   2   0.50000    -0.1800000    0.0000000   1.015252e-03  1.866303e-06
    204    240   2   0.50000    -0.1800000    0.0600000   2.494471e-04  1.671101e-07
    204    241   2   0.50000    -0.1800000    0.0600000   2.494471e-04  1.671101e-07
    205    228   2   0.50000     0.5100000    0.0000000   1.575021e-03  3.561100e-06
    205    240   2   0.50000     0.5100000    0.0600000   3.869820e-04  3.188634e-07
    205    241   2   0.50000     0.5100000    0.0600000   3.869820e-04  3.188634e-07
    203    208   2   0.50000     0.0000000    0.2318000   1.015252e-03  1.866303e-06
    206    208   2   0.50000    -0.4300000    0.2318000   1.095425e-03  1.218041e-06
    205    209   2   0.50000     0.5100000   -0.0418000   1.692561e-03  3.993218e-06
    205    220   2   0.50000     0.5100000    0.0300000   2.482000e-04  1.854991e-07
    205    221   2   0.50000     0.5100000    0.0300000   2.482000e-04  1.854991e-07
    207    210   2   0.50000    -0.3300000   -0.1150000   1.102666e-03  1.331965e-06
    207    214   2   0.50000    -0.3300000   -0.1150000   1.102666e-03  1.331965e-06
    220    210   2   0.50000     0.0300000   -0.1150000   1.719283e-04  1.090131e-07
    220    214   2   0.50000     0.0300000   -0.1150000   1.719283e-04  1.090131e-07
    221    210   2   0.50000     0.0300000   -0.1150000   1.719283e-04  1.090131e-07
    221    214   2   0.50000     0.0300000   -0.1150000   1.719283e-04  1.090131e-07
    208    211   2   0.50000     0.2318000   -0.1150000   1.091018e-03  2.092768e-06
    208    222   2   0.50000     0.2318000    0.1150000   2.262583e-04  1.374848e-07
    214    211   2   0.50000    -0.1150000   -0.1150000   1.172438e-03  2.346713e-06
    214    222   2   0.50000    -0.1150000    0.1150000   2.431434e-04  1.541678e-07
    208    213   2   0.50000     0.2318000   -0.1150000   1.091018e-03  2.092768e-06
    208    226   2   0.50000     0.2318000    0.1150000   2.262583e-04  1.374848e-07
    210    213   2   0.50000    -0.1150000   -0.1150000   1.172438e-03  2.346713e-06
    210    226   2   0.50000    -0.1150000    0.1150000   2.431434e-04  1.541678e-07
    209    212   2   0.50000    -0.0418000   -0.1150000   1.172438e-03  2.346713e-06
    209    223   2   0.50000    -0.0418000    0.1150000   2.431434e-04  1.541678e-07
    222    212   2   0.50000     0.1150000   -0.1150000   2.431434e-04  1.541678e-07
    222    223   2   0.50000     0.1150000    0.1150000   5.042375e-05  1.012808e-08
    210    224   2   0.50000    -0.1150000    0.1150000   2.431434e-04  1.541678e-07
    223    213   2   0.50000     0.1150000   -0.1150000   2.431434e-04  1.541678e-07
    223    224   2   0.50000     0.1150000    0.1150000   5.042375e-05  1.012808e-08
    211    225   2   0.50000    -0.1150000    0.1150000   2.431434e-04  1.541678e-07
    224    214   2   0.50000     0.1150000   -0.1150000   2.431434e-04  1.541678e-07
    224    225   2   0.50000     0.1150000    0.1150000   5.042375e-05  1.012808e-08
    212    226   2   0.50000    -0.1150000    0.1150000   2.431434e-04  1.541678e-07
    225    209   2   0.50000     0.1150000   -0.0418000   2.431434e-04  1.541678e-07
    225    226   2   0.50000     0.1150000    0.1150000   5.042375e-05  1.012808e-08
    203    229   2   0.50000     0.0000000   -0.1800000   1.015252e-03  1.866303e-06
    203    230   2   0.50000     0.0000000    0.5100000   1.575021e-03  3.561100e-06
    203    252   2   0.50000     0.0000000   -0.1200000   1.015252e-03  1.866303e-06
    240    229   2   0.50000     0.0600000   -0.1800000   2.494471e-04  1.671101e-07
    240    230   2   0.50000     0.0600000    0.5100000   3.869820e-04  3.188634e-07
    240    252   2   0.50000     0.0600000   -0.1200000   2.494471e-04  1.671101e-07
    241    229   2   0.50000     0.0600000   -0.1800000   2.494471e-04  1.671101e-07
    241    230   2   0.50000     0.0600000    0.5100000   3.869820e-04  3.188634e-07
    241    252   2   0.50000     0.0600000   -0.1200000   2.494471e-04  1.671101e-07
    227    242   2   0.50000    -0.1200000    0.0600000   2.494471e-04  1.671101e-07
    227    243   2   0.50000    -0.1200000    0.0600000   2.494471e-04  1.671101e-07
    227    244   2   0.50000    -0.1200000    0.0600000   2.494471e-04  1.671101e-07
    230    242   2   0.50000     0.5100000    0.0600000   3.869820e-04  3.188634e-07
    230    243   2   0.50000     0.5100000    0.0600000   3.869820e-04  3.188634e-07
    230    244   2   0.50000     0.5100000    0.0600000   3.869820e-04  3.188634e-07
    252    242   2   0.50000    -0.1200000    0.0600000   2.494471e-04  1.671101e-07
    252    243   2   0.50000    -0.1200000    0.0600000   2.494471e-04  1.671101e-07
    252    244   2   0.50000    -0.1200000    0.0600000   2.494471e-04  1.671101e-07
    227    231   2   0.50000    -0.1200000   -0.4300000   1.095425e-03  1.218041e-06
    227    232   2   0.50000    -0.1200000   -0.3300000   1.026091e-03  1.187829e-06
    229    231   2   0.50000    -0.1800000   -0.4300000   1.095425e-03  1.218041e-06
    229    232   2   0.50000    -0.1800000   -0.3300000   1.026091e-03  1.187829e-06
    252    231   2   0.50000    -0.1200000   -0.4300000   1.095425e-03  1.218041e-06
    252    232   2   0.50000    -0.1200000   -0.3300000   1.026091e-03  1.187829e-06
    227    253   2   0.50000    -0.1200000    0.0000000   1.015252e-03  1.866303e-06
    227    265   2   0.50000    -0.1200000    0.0600000   2.494471e-04  1.671101e-07
    227    266   2   0.50000    -0.1200000    0.0600000   2.494471e-04  1.671101e-07
    229    253   2   0.50000    -0.1800000    0.0000000   1.015252e-03  1.866303e-06
    229    265   2   0.50000    -0.1800000    0.0600000   2.494471e-04  1.671101e-07
    229    266   2   0.50000    -0.1800000    0.0600000   2.494471e-04  1.671101e-07
    230    253   2   0.50000     0.5100000    0.0000000   1.575021e-03  3.561100e-06
    230    265   2   0.50000     0.5100000    0.0600000   3.869820e-04  3.188634e-07
    230    266   2   0.50000     0.5100000    0.0600000   3.869820e-04  3.188634e-07
    228    233   2   0.50000     0.0000000    0.2318000   1.015252e-03  1.866303e-06
    231    233   2   0.50000    -0.4300000    0.2318000   1.095425e-03  1.218041e-06
    230    234   2   0.50000     0.5100000   -0.0418000   1.692561e-03  3.993218e-06
    230    245   2   0.50000     0.5100000    0.0300000   2.482000e-04  1.854991e-07
    230    246   2   0.50000     0.5100000    0.0300000   2.482000e-04  1.854991e-07
    232    235   2   0.50000    -0.3300000   -0.1150000   1.102666e-03  1.331965e-06
    232    239   2   0.50000    -0.3300000   -0.1150000   1.102666e-03  1.331965e-06
    245    235   2   0.50000     0.0300000   -0.1150000   1.719283e-04  1.090131e-07
    245    239   2   0.50000     0.0300000   -0.1150000   1.719283e-04  1.090131e-07
    246    235   2   0.50000     0.0300000   -0.1150000   1.719283e-04  1.090131e-07
    246    239   2   0.50000     0.0300000   -0.1150000   1.719283e-04  1.090131e-07
    233    236   2   0.50000     0.2318000   -0.1150000   1.091018e-03  2.092768e-06
    233    247   2   0.50000     0.2318000    0.1150000   2.262583e-04  1.374848e-07
    239    236   2   0.50000    -0.1150000   -0.1150000   1.172438e-03  2.346713e-06
    239    247   2   0.50000    -0.1150000    0.1150000   2.431434e-04  1.541678e-07
    233    238   2   0.50000     0.2318000   -0.1150000   1.091018e-03  2.092768e-06
    233    251   2   0.50000     0.2318000    0.1150000   2.262583e-04  1.374848e-07
    235    238   2   0.50000    -0.1150000   -0.1150000   1.172438e-03  2.346713e-06
    235    251   2   0.50000    -0.1150000    0.1150000   2.431434e-04  1.541678e-07
    234    237   2   0.50000    -0.0418000   -0.1150000   1.172438e-03  2.346713e-06
    234    248   2   0.50000    -0.0418000    0.1150000   2.431434e-04  1.541678e-07
    247    237   2   0.50000     0.1150000   -0.1150000   2.431434e-04  1.541678e-07
    247    248   2   0.50000     0.1150000    0.1150000   5.042375e-05  1.012808e-08
    235    249   2   0.50000    -0.1150000    0.1150000   2.431434e-04  1.541678e-07
    248    238   2   0.50000     0.1150000   -0.1150000   2.431434e-04  1.541678e-07
    248    249   2   0.50000     0.1150000    0.1150000   5.042375e-05  1.012808e-08
    236    250   2   0.50000    -0.1150000    0.1150000   2.431434e-04  1.541678e-07
    249    239   2   0.50000     0.1150000   -0.1150000   2.431434e-04  1.541678e-07
    249    250   2   0.50000     0.1150000    0.1150000   5.042375e-05  1.012808e-08
    237    251   2   0.50000    -0.1150000    0.1150000   2.431434e-04  1.541678e-07
    250    234   2   0.50000     0.1150000   -0.0418000   2.431434e-04  1.541678e-07
    250    251   2   0.50000     0.1150000    0.1150000   5.042375e-05  1.012808e-08
    228    254   2   0.50000     0.0000000   -0.1800000   1.015252e-03  1.866303e-06
    228    255   2   0.50000     0.0000000    0.5100000   1.575021e-03  3.561100e-06
    228    277   2   0.50000     0.0000000   -0.1200000   1.015252e-03  1.866303e-06
    265    254   2   0.50000     0.0600000   -0.1800000   2.494471e-04  1.671101e-07
    265    255   2   0.50000     0.0600000    0.5100000   3.869820e-04  3.188634e-07
    265    277   2   0.50000     0.0600000   -0.1200000   2.494471e-04  1.671101e-07
    266    254   2   0.50000     0.0600000   -0.1800000   2.494471e-04  1.671101e-07
    266    255   2   0.50000     0.0600000    0.5100000   3.869820e-04  3.188634e-07
    266    277   2   0.50000     0.0600000   -0.1200000   2.494471e-04  1.671101e-07
    252    267   2   0.50000    -0.1200000    0.0600000   2.494471e-04  1.671101e-07
    252    268   2   0.50000    -0.1200000    0.0600000   2.494471e-04  1.671101e-07
    252    269   2   0.50000    -0.1200000    0.0600000   2.494471e-04  1.671101e-07
    255    267   2   0.50000     0.5100000    0.0600000   3.869820e-04  3.188634e-07
    255    268   2   0.50000     0.5100000    0.0600000   3.869820e-04  3.188634e-07
    255    269   2   0.50000     0.5100000    0.0600000   3.869820e-04  3.188634e-07
    277    267   2   0.50000    -0.1200000    0.0600000   2.494471e-04  1.671101e-07
    277    268   2   0.50000    -0.1200000    0.0600000   2.494471e-04  1.671101e-07
    277    269   2   0.50000    -0.1200000    0.0600000   2.494471e-04  1.671101e-07
    252    256   2   0.50000    -0.1200000   -0.4300000   1.095425e-03  1.218041e-06
    252    257   2   0.50000    -0.1200000   -0.3300000   1.026091e-03  1.187829e-06
    254    256   2   0.50000    -0.1800000   -0.4300000   1.095425e-03  1.218041e-06
    254    257   2   0.50000    -0.1800000   -0.3300000   1.026091e-03  1.187829e-06
    277    256   2   0.50000    -0.1200000   -0.4300000   1.095425e-03  1.218041e-06
    277    257   2   0.50000    -0.1200000   -0.3300000   1.026091e-03  1.187829e-06
    252    278   2   0.50000    -0.1200000    0.0000000   1.015252e-03  1.866303e-06
    252    290   2   0.50000    -0.1200000    0.0600000   2.494471e-04  1.671101e-07
    252    291   2   0.50000    -0.1200000    0.0600000   2.494471e-04  1.671101e-07
    254    278   2   0.50000    -0.1800000    0.0000000   1.015252e-03  1.866303e-06
    254    290   2   0.50000    -0.1800000    0.0600000   2.494471e-04  1.671101e-07
    254    291   2   0.50000    -0.1800000    0.0600000   2.494471e-04  1.671101e-07
    255    278   2   0.50000     0.5100000    0.0000000   1.575021e-03  3.561100e-06
    255    290   2   0.50000     0.5100000    0.0600000   3.869820e-04  3.188634e-07
    255    291   2   0.50000     0.5100000    0.0600000   3.869820e-04  3.188634e-07
    253    258   2   0.50000     0.0000000    0.2318000   1.015252e-03  1.866303e-06
    256    258   2   0.50000    -0.4300000    0.2318000   1.095425e-03  1.218041e-06
    255    259   2   0.50000     0.5100000   -0.0418000   1.692561e-03  3.993218e-06
    255    270   2   0.50000     0.5100000    0.0300000   2.482000e-04  1.854991e-07
    255    271   2   0.50000     0.5100000    0.0300000   2.482000e-04  1.854991e-07
    257    260   2   0.50000    -0.3300000   -0.1150000   1.102666e-03  1.331965e-06
    257    264   2   0.50000    -0.3300000   -0.1150000   1.102666e-03  1.331965e-06
    270    260   2   0.50000     0.0300000   -0.1150000   1.719283e-04  1.090131e-07
    270    264   2   0.50000     0.0300000   -0.1150000   1.719283e-04  1.090131e-07
    271    260   2   0.50000     0.0300000   -0.1150000   1.719283e-04  1.090131e-07
    271    264   2   0.50000     0.0300000   -0.1150000   1.719283e-04  1.090131e-07
    258    261   2   0.50000     0.2318000   -0.1150000   1.091018e-03  2.092768e-06
    258    272   2   0.50000     0.2318000    0.1150000   2.262583e-04  1.374848e-07
    264    261   2   0.50000    -0.1150000   -0.1150000   1.172438e-03  2.346713e-06
    264    272   2   0.50000    -0.1150000    0.1150000   2.431434e-04  1.541678e-07
    258    263   2   0.50000     0.2318000   -0.1150000   1.091018e-03  2.092768e-06
    258    276   2   0.50000     0.2318000    0.1150000   2.262583e-04  1.374848e-07
    260    263   2   0.50000    -0.1150000   -0.1150000   1.172438e-03  2.346713e-06
    260    276   2   0.50000    -0.1150000    0.1150000   2.431434e-04  1.541678e-07
    259    262   2   0.50000    -0.0418000   -0.1150000   1.172438e-03  2.346713e-06
    259    273   2   0.50000    -0.0418000    0.1150000   2.431434e-04  1.541678e-07
    272    262   2   0.50000     0.1150000   -0.1150000   2.431434e-04  1.541678e-07
    272    273   2   0.50000     0.1150000    0.1150000   5.042375e-05  1.012808e-08
    260    274   2   0.50000    -0.1150000    0.1150000   2.431434e-04  1.541678e-07
    273    263   2   0.50000     0.1150000   -0.1150000   2.431434e-04  1.541678e-07
    273    274   2   0.50000     0.1150000    0.1150000   5.042375e-05  1.012808e-08
    261    275   2   0.50000    -0.1150000    0.1150000   2.431434e-04  1.541678e-07
    274    264   2   0.50000     0.1150000   -0.1150000   2.431434e-04  1.541678e-07
    274    275   2   0.50000     0.1150000    0.1150000   5.042375e-05  1.012808e-08
    262    276   2   0.50000    -0.1150000    0.1150000   2.431434e-04  1.541678e-07
    275    259   2   0.50000     0.1150000   -0.0418000   2.431434e-04  1.541678e-07
    275    276   2   0.50000     0.1150000    0.1150000   5.042375e-05  1.012808e-08
    253    279   2   0.50000     0.0000000   -0.1800000   1.015252e-03  1.866303e-06
    253    280   2   0.50000     0.0000000    0.5100000   1.575021e-03  3.561100e-06
    253    302   2   0.50000     0.0000000   -0.1200000   1.015252e-03  1.866303e-06
    290    279   2   0.50000     0.0600000   -0.1800000   2.494471e-04  1.671101e-07
    290    280   2   0.50000     0.0600000    0.5100000   3.869820e-04  3.188634e-07
    290    302   2   0.50000     0.0600000   -0.1200000   2.494471e-04  1.671101e-07
    291    279   2   0.50000     0.0600000   -0.1800000   2.494471e-04  1.671101e-07
    291    280   2   0.50000     0.0600000    0.5100000   3.869820e-04  3.188634e-07
    291    302   2   0.50000     0.0600000   -0.1200000   2.494471e-04  1.671101e-07
    277    292   2   0.50000    -0.1200000    0.0600000   2.494471e-04  1.671101e-07
    277    293   2   0.50000    -0.1200000    0.0600000   2.494471e-04  1.671101e-07
    277    294   2   0.50000    -0.1200000    0.0600000   2.494471e-04  1.671101e-07
    280    292   2   0.50000     0.5100000    0.0600000   3.869820e-04  3.188634e-07
    280    293   2   0.50000     0.5100000    0.0600000   3.869820e-04  3.188634e-07
    280    294   2   0.50000     0.5100000    0.0600000   3.869820e-04  3.188634e-07
    302    292   2   0.50000    -0.1200000    0.0600000   2.494471e-04  1.671101e-07
    302    293   2   0.50000    -0.1200000    0.0600000   2.494471e-04  1.671101e-07
    302    294   2   0.50000    -0.1200000    0.0600000   2.494471e-04  1.671101e-07
    277    281   2   0.50000    -0.1200000   -0.4300000   1.095425e-03  1.218041e-06
    277    282   2   0.50000    -0.1200000   -0.3300000   1.026091e-03  1.187829e-06
    279    281   2   0.50000    -0.1800000   -0.4300000   1.095425e-03  1.218041e-06
    279    282   2   0.50000    -0.1800000   -0.3300000   1.026091e-03  1.187829e-06
    302    281   2   0.50000    -0.1200000   -0.4300000   1.095425e-03  1.218041e-06
    302    282   2   0.50000    -0.1200000   -0.3300000   1.026091e-03  1.187829e-06
    277    303   2   0.50000    -0.1200000    0.0000000   1.015252e-03  1.866303e-06
    277    315   2   0.50000    -0.1200000    0.0600000   2.494471e-04  1.671101e-07
    277    316   2   0.50000    -0.1200000    0.0600000   2.494471e-04  1.671101e-07
    279    303   2   0.50000    -0.1800000    0.0000000   1.015252e-03  1.866303e-06
    279    315   2   0.50000    -0.1800000    0.0600000   2.494471e-04  1.671101e-07
    279    316   2   0.50000    -0.1800000    0.0600000   2.494471e-04  1.671101e-07
    280    303   2   0.50000     0.5100000    0.0000000   1.575021e-03  3.561100e-06
    280    315   2   0.50000     0.5100000    0.0600000   3.869820e-04  3.188634e-07
    280    316   2   0.50000     0.5100000    0.0600000   3.869820e-04  3.188634e-07
    278    283   2   0.50000     0.0000000    0.2318000   1.015252e-03  1.866303e-06
    281    283   2   0.50000    -0.4300000    0.2318000   1.095425e-03  1.218041e-06
    280    284   2   0.50000     0.5100000   -0.0418000   1.692561e-03  3.993218e-06
    280    295   2   0.50000     0.5100000    0.0300000   2.482000e-04  1.854991e-07
    280    296   2   0.50000     0.5100000    0.0300000   2.482000e-04  1.854991e-07
    282    285   2   0.50000    -0.3300000   -0.1150000   1.102666e-03  1.331965e-06
    282    289   2   0.50000    -0.3300000   -0.1150000   1.102666e-03  1.331965e-06
    295    285   2   0.50000     0.0300000   -0.1150000   1.719283e-04  1.090131e-07
    295    289   2   0.50000     0.0300000   -0.1150000   1.719283e-04  1.090131e-07
    296    285   2   0.50000     0.0300000   -0.1150000   1.719283e-04  1.090131e-07
    296    289   2   0.50000     0.0300000   -0.1150000   1.719283e-04  1.090131e-07
    283    286   2   0.50000     0.2318000   -0.1150000   1.091018e-03  2.092768e-06
    283    297   2   0.50000     0.2318000    0.1150000   2.262583e-04  1.374848e-07
    289    286   2   0.50000    -0.1150000   -0.1150000   1.172438e-03  2.346713e-06
    289    297   2   0.50000    -0.1150000    0.1150000   2.431434e-04  1.541678e-07
    283    288   2   0.50000     0.2318000   -0.1150000   1.091018e-03  2.092768e-06
    283    301   2   0.50000     0.2318000    0.1150000   2.262583e-04  1.374848e-07
    285    288   2   0.50000    -0.1150000   -0.1150000   1.172438e-03  2.346713e-06
    285    301   2   0.50000    -0.1150000    0.1150000   2.431434e-04  1.541678e-07
    284    287   2   0.50000    -0.0418000   -0.1150000   1.172438e-03  2.346713e-06
    284    298   2   0.50000    -0.0418000    0.1150000   2.431434e-04  1.541678e-07
    297    287   2   0.50000     0.1150000   -0.1150000   2.431434e-04  1.541678e-07
    297    298   2   0.50000     0.1150000    0.1150000   5.042375e-05  1.012808e-08
    285    299   2   0.50000    -0.1150000    0.1150000   2.431434e-04  1.541678e-07
    298    288   2   0.50000     0.1150000   -0.1150000   2.431434e-04  1.541678e-07
    298    299   2   0.50000     0.1150000    0.1150000   5.042375e-05  1.012808e-08
    286    300   2   0.50000    -0.1150000    0.1150000   2.431434e-04  1.541678e-07
    299    289   2   0.50000     0.1150000   -0.1150000   2.431434e-04  1.541678e-07
    299    300   2   0.50000     0.1150000    0.1150000   5.042375e-05  1.012808e-08
    287    301   2   0.50000    -0.1150000    0.1150000   2.431434e-04  1.541678e-07
    300    284   2   0.50000     0.1150000   -0.0418000   2.431434e-04  1.541678e-07
    300    301   2   0.50000     0.1150000    0.1150000   5.042375e-05  1.012808e-08
    278    304   2   0.50000     0.0000000   -0.1800000   1.015252e-03  1.866303e-06
    278    305   2   0.50000     0.0000000    0.5100000   1.575021e-03  3.561100e-06
    278    327   2   0.50000     0.0000000   -0.1200000   1.015252e-03  1.866303e-06
    315    304   2   0.50000     0.0600000   -0.1800000   2.494471e-04  1.671101e-07
    315    305   2   0.50000     0.0600000    0.5100000   3.869820e-04  3.188634e-07
    315    327   2   0.50000     0.0600000   -0.1200000   2.494471e-04  1.671101e-07
    316    304   2   0.50000     0.0600000   -0.1800000   2.494471e-04  1.671101e-07
    316    305   2   0.50000     0.0600000    0.5100000   3.869820e-04  3.188634e-07
    316    327   2   0.50000     0.0600000   -0.1200000   2.494471e-04  1.671101e-07
    302    317   2   0.50000    -0.1200000    0.0600000   2.494471e-04  1.671101e-07
    302    318   2   0.50000    -0.1200000    0.0600000   2.494471e-04  1.671101e-07
    302    319   2   0.50000    -0.1200000    0.0600000   2.494471e-04  1.671101e-07
    305    317   2   0.50000     0.5100000    0.0600000   3.869820e-04  3.188634e-07
    305    318   2   0.50000     0.5100000    0.0600000   3.869820e-04  3.188634e-07
    305    319   2   0.50000     0.5100000    0.0600000   3.869820e-04  3.188634e-07
    327    317   2   0.50000    -0.1200000    0.0600000   2.494471e-04  1.671101e-07
    327    318   2   0.50000    -0.1200000    0.0600000   2.494471e-04  1.671101e-07
    327    319   2   0.50000    -0.1200000    0.0600000   2.494471e-04  1.671101e-07
    302    306   2   0.50000    -0.1200000   -0.4300000   1.095425e-03  1.218041e-06
    302    307   2   0.50000    -0.1200000   -0.3300000   1.026091e-03  1.187829e-06
    304    306   2   0.50000    -0.1800000   -0.4300000   1.095425e-03  1.218041e-06
    304    307   2   0.50000    -0.1800000   -0.3300000   1.026091e-03  1.187829e-06
    327    306   2   0.50000    -0.1200000   -0.4300000   1.095425e-03  1.218041e-06
    327    307   2   0.50000    -0.1200000   -0.3300000   1.026091e-03  1.187829e-06
    302    328   2   0.50000    -0.1200000    0.0000000   1.015252e-03  1.866303e-06
    302    340   2   0.50000    -0.1200000    0.0600000   2.494471e-04  1.671101e-07
    302    341   2   0.50000    -0.1200000    0.0600000   2.494471e-04  1.671101e-07
    304    328   2   0.50000    -0.1800000    0.0000000   1.015252e-03  1.866303e-06
    304    340   2   0.50000    -0.1800000    0.0600000   2.494471e-04  1.671101e-07
    304    341   2   0.50000    -0.1800000    0.0600000   2.494471e-04  1.671101e-07
    305    328   2   0.50000     0.5100000    0.0000000   1.575021e-03  3.561100e-06
    305    340   2   0.50000     0.5100000    0.0600000   3.869820e-04  3.188634e-07
    305    341   2   0.50000     0.5100000    0.0600000   3.869820e-04  3.188634e-07
    303    308   2   0.50000     0.0000000    0.2318000   1.015252e-03  1.866303e-06
    306    308   2   0.50000    -0.4300000    0.2318000   1.095425e-03  1.218041e-06
    305    309   2   0.50000     0.5100000   -0.0418000   1.692561e-03  3.993218e-06
    305    320   2   0.50000     0.5100000    0.0300000   2.482000e-04  1.854991e-07
    305    321   2   0.50000     0.5100000    0.0300000   2.482000e-04  1.854991e-07
    307    310   2   0.50000    -0.3300000   -0.1150000   1.102666e-03  1.331965e-06
    307    314   2   0.50000    -0.3300000   -0.1150000   1.102666e-03  1.331965e-06
    320    310   2   0.50000     0.0300000   -0.1150000   1.719283e-04  1.090131e-07
    320    314   2   0.50000     0.0300000   -0.1150000   1.719283e-04  1.090131e-07
    321    310   2   0.50000     0.0300000   -0.1150000   1.719283e-04  1.090131e-07
    321    314   2   0.50000     0.0300000   -0.1150000   1.719283e-04  1.090131e-07
    308    311   2   0.50000     0.2318000   -0.1150000   1.091018e-03  2.092768e-06
    308    322   2   0.50000     0.2318000    0.1150000   2.262583e-04  1.374848e-07
    314    311   2   0.50000    -0.1150000   -0.1150000   1.172438e-03  2.346713e-06
    314    322   2   0.50000    -0.1150000    0.1150000   2.431434e-04  1.541678e-07
    308    313   2   0.50000     0.2318000   -0.1150000   1.091018e-03  2.092768e-06
    308    326   2   0.50000     0.2318000    0.1150000   2.262583e-04  1.374848e-07
    310    313   2   0.50000    -0.1150000   -0.1150000   1.172438e-03  2.346713e-06
    310    326   2   0.50000    -0.1150000    0.1150000   2.431434e-04  1.541678e-07
    309    312   2   0.50000    -0.0418000   -0.1150000   1.172438e-03  2.346713e-06
    309    323   2   0.50000    -0.0418000    0.1150000   2.431434e-04  1.541678e-07
    322    312   2   0.50000     0.1150000   -0.1150000   2.431434e-04  1.541678e-07
    322    323   2   0.50000     0.1150000    0.1150000   5.042375e-05  1.012808e-08
    310    324   2   0.50000    -0.1150000    0.1150000   2.431434e-04  1.541678e-07
    323    313   2   0.50000     0.1150000   -0.1150000   2.431434e-04  1.541678e-07
    323    324   2   0.50000     0.1150000    0.1150000   5.042375e-05  1.012808e-08
    311    325   2   0.50000    -0.1150000    0.1150000   2.431434e-04  1.541678e-07
    324    314   2   0.50000     0.1150000   -0.1150000   2.431434e-04  1.541678e-07
    324    325   2   0.50000     0.1150000    0.1150000   5.042375e-05  1.012808e-08
    312    326   2   0.50000    -0.1150000    0.1150000   2.431434e-04  1.541678e-07
    325    309   2   0.50000     0.1150000   -0.0418000   2.431434e-04  1.541678e-07
    325    326   2   0.50000     0.1150000    0.1150000   5.042375e-05  1.012808e-08
    303    329   2   0.50000     0.0000000   -0.1800000   1.015252e-03  1.866303e-06
    303    330   2   0.50000     0.0000000    0.5100000   1.575021e-03  3.561100e-06
    303    352   2   0.50000     0.0000000   -0.1200000   1.015252e-03  1.866303e-06
    340    329   2   0.50000     0.0600000   -0.1800000   2.494471e-04  1.671101e-07
    340    330   2   0.50000     0.0600000    0.5100000   3.869820e-04  3.188634e-07
    340    352   2   0.50000     0.0600000   -0.1200000   2.494471e-04  1.671101e-07
    341    329   2   0.50000     0.0600000   -0.1800000   2.494471e-04  1.671101e-07
    341    330   2   0.50000     0.0600000    0.5100000   3.869820e-04  3.188634e-07
    341    352   2   0.50000     0.0600000   -0.1200000   2.494471e-04  1.671101e-07
    327    342   2   0.50000    -0.1200000    0.0600000   2.494471e-04  1.671101e-07
    327    343   2   0.50000    -0.1200000    0.0600000   2.494471e-04  1.671101e-07
    327    344   2   0.50000    -0.1200000    0.0600000   2.494471e-04  1.671101e-07
    330    342   2   0.50000     0.5100000    0.0600000   3.869820e-04  3.188634e-07
    330    343   2   0.50000     0.5100000    0.0600000   3.869820e-04  3.188634e-07
    330    344   2   0.50000     0.5100000    0.0600000   3.869820e-04  3.188634e-07
    352    342   2   0.50000    -0.1200000    0.0600000   2.494471e-04  1.671101e-07
    352    343   2   0.50000    -0.1200000    0.0600000   2.494471e-04  1.671101e-07
    352    344   2   0.50000    -0.1200000    0.0600000   2.494471e-04  1.671101e-07
    327    331   2   0.50000    -0.1200000   -0.4300000   1.095425e-03  1.218041e-06
    327    332   2   0.50000    -0.1200000   -0.3300000   1.026091e-03  1.187829e-06
    329    331   2   0.50000    -0.1800000   -0.4300000   1.095425e-03  1.218041e-06
    329    332   2   0.50000    -0.1800000   -0.3300000   1.026091e-03  1.187829e-06
    352    331   2   0.50000    -0.1200000   -0.4300000   1.095425e-03  1.218041e-06
    352    332   2   0.50000    -0.1200000   -0.3300000   1.026091e-03  1.187829e-06
    327    353   2   0.50000    -0.1200000    0.0000000   1.015252e-03  1.866303e-06
    327    365   2   0.50000    -0.1200000    0.0600000   2.494471e-04  1.671101e-07
    327    366   2   0.50000    -0.1200000    0.0600000   2.494471e-04  1.671101e-07
    329    353   2   0.50000    -0.1800000    0.0000000   1.015252e-03  1.866303e-06
    329    365   2   0.50000    -0.1800000    0.0600000   2.494471e-04  1.671101e-07
    329    366   2   0.50000    -0.1800000    0.0600000   2.494471e-04  1.671101e-07
    330    353   2   0.50000     0.5100000    0.0000000   1.575021e-03  3.561100e-06
    330    365   2   0.50000     0.5100000    0.0600000   3.869820e-04  3.188634e-07
    330    366   2   0.50000     0.5100000    0.0600000   3.869820e-04  3.188634e-07
    328    333   2   0.50000     0.0000000    0.2318000   1.015252e-03  1.866303e-06
    331    333   2   0.50000    -0.4300000    0.2318000   1.095425e-03  1.218041e-06
    330    334   2   0.50000     0.5100000   -0.0418000   1.692561e-03  3.993218e-06
    330    345   2   0.50000     0.5100000    0.0300000   2.482000e-04  1.854991e-07
    330    346   2   0.50000     0.5100000    0.0300000   2.482000e-04  1.854991e-07
    332    335   2   0.50000    -0.3300000   -0.1150000   1.102666e-03  1.331965e-06
    332    339   2   0.50000    -0.3300000   -0.1150000   1.102666e-03  1.331965e-06
    345    335   2   0.50000     0.0300000   -0.1150000   1.719283e-04  1.090131e-07
    345    339   2   0.50000     0.0300000   -0.1150000   1.719283e-04  1.090131e-07
    346    335   2   0.50000     0.0300000   -0.1150000   1.719283e-04  1.090131e-07
    346    339   2   0.50000     0.0300000   -0.1150000   1.719283e-04  1.090131e-07
    333    336   2   0.50000     0.2318000   -0.1150000   1.091018e-03  2.092768e-06
    333    347   2   0.50000     0.2318000    0.1150000   2.262583e-04  1.374848e-07
    339    336   2   0.50000    -0.1150000   -0.1150000   1.172438e-03  2.346713e-06
    339    347   2   0.50000    -0.1150000    0.1150000   2.431434e-04  1.541678e-07
    333    338   2   0.50000     0.2318000   -0.1150000   1.091018e-03  2.092768e-06
    333    351   2   0.50000     0.2318000    0.1150000   2.262583e-04  1.374848e-07
    335    338   2   0.50000    -0.1150000   -0.1150000   1.172438e-03  2.346713e-06
    335    351   2   0.50000    -0.1150000    0.1150000   2.431434e-04  1.541678e-07
    334    337   2   0.50000    -0.0418000   -0.1150000   1.172438e-03  2.346713e-06
    334    348   2   0.50000    -0.0418000    0.1150000   2.431434e-04  1.541678e-07
    347    337   2   0.50000     0.1150000   -0.1150000   2.431434e-04  1.541678e-07
    347    348   2   0.50000     0.1150000    0.1150000   5.042375e-05  1.012808e-08
    335    349   2   0.50000    -0.1150000    0.1150000   2.431434e-04  1.541678e-07
    348    338   2   0.50000     0.1150000   -0.1150000   2.431434e-04  1.541678e-07
    348    349   2   0.50000     0.1150000    0.1150000   5.042375e-05  1.012808e-08
    336    350   2   0.50000    -0.1150000    0.1150000   2.431434e-04  1.541678e-07
    349    339   2   0.50000     0.1150000   -0.1150000   2.431434e-04  1.541678e-07
    349    350   2   0.50000     0.1150000    0.1150000   5.042375e-05  1.012808e-08
    337    351   2   0.50000    -0.1150000    0.1150000   2.431434e-04  1.541678e-07
    350    334   2   0.50000     0.1150000   -0.0418000   2.431434e-04  1.541678e-07
    350    351   2   0.50000     0.1150000    0.1150000   5.042375e-05  1.012808e-08
    328    354   2   0.50000     0.0000000   -0.1800000   1.015252e-03  1.866303e-06
    328    355   2   0.50000     0.0000000    0.5100000   1.575021e-03  3.561100e-06
    328    377   2   0.50000     0.0000000   -0.1200000   1.015252e-03  1.866303e-06
    365    354   2   0.50000     0.0600000   -0.1800000   2.494471e-04  1.671101e-07
    365    355   2   0.50000     0.0600000    0.5100000   3.869820e-04  3.188634e-07
    365    377   2   0.50000     0.0600000   -0.1200000   2.494471e-04  1.671101e-07
    366    354   2   0.50000     0.0600000   -0.1800000   2.494471e-04  1.671101e-07
    366    355   2   0.50000     0.0600000    0.5100000   3.869820e-04  3.188634e-07
    366    377   2   0.50000     0.0600000   -0.1200000   2.494471e-04  1.671101e-07
    352    367   2   0.50000    -0.1200000    0.0600000   2.494471e-04  1.671101e-07
    352    368   2   0.50000    -0.1200000    0.0600000   2.494471e-04  1.671101e-07
    352    369   2   0.50000    -0.1200000    0.0600000   2.494471e-04  1.671101e-07
    355    367   2   0.50000     0.5100000    0.0600000   3.869820e-04  3.188634e-07
    355    368   2   0.50000     0.5100000    0.0600000   3.869820e-04  3.188634e-07
    355    369   2   0.50000     0.5100000    0.0600000   3.869820e-04  3.188634e-07
    377    367   2   0.50000    -0.1200000    0.0600000   2.494471e-04  1.671101e-07
    377    368   2   0.50000    -0.1200000    0.0600000   2.494471e-04  1.671101e-07
    377    369   2   0.50000    -0.1200000    0.0600000   2.494471e-04  1.671101e-07
    352    356   2   0.50000    -0.1200000   -0.4300000   1.095425e-03  1.218041e-06
    352    357   2   0.50000    -0.1200000   -0.3300000   1.026091e-03  1.187829e-06
    354    356   2   0.50000    -0.1800000   -0.4300000   1.095425e-03  1.218041e-06
    354    357   2   0.50000    -0.1800000   -0.3300000   1.026091e-03  1.187829e-06
    377    356   2   0.50000    -0.1200000   -0.4300000   1.095425e-03  1.218041e-06
    377    357   2   0.50000    -0.1200000   -0.3300000   1.026091e-03  1.187829e-06
    352    378   2   0.50000    -0.1200000    0.0000000   1.015252e-03  1.866303e-06
    352    390   2   0.50000    -0.1200000    0.0600000   2.494471e-04  1.671101e-07
    352    391   2   0.50000    -0.1200000    0.0600000   2.494471e-04  1.671101e-07
    354    378   2   0.50000    -0.1800000    0.0000000   1.015252e-03  1.866303e-06
    354    390   2   0.50000    -0.1800000    0.0600000   2.494471e-04  1.671101e-07
    354    391   2   0.50000    -0.1800000    0.0600000   2.494471e-04  1.671101e-07
    355    378   2   0.50000     0.5100000    0.0000000   1.575021e-03  3.561100e-06
    355    390   2   0.50000     0.5100000    0.0600000   3.869820e-04  3.188634e-07
    355    391   2   0.50000     0.5100000    0.0600000   3.869820e-04  3.188634e-07
    353    358   2   0.50000     0.0000000    0.2318000   1.015252e-03  1.866303e-06
    356    358   2   0.50000    -0.4300000    0.2318000   1.095425e-03  1.218041e-06
    355    359   2   0.50000     0.5100000   -0.0418000   1.692561e-03  3.993218e-06
    355    370   2   0.50000     0.5100000    0.0300000   2.482000e-04  1.854991e-07
    355    371   2   0.50000     0.5100000    0.0300000   2.482000e-04  1.854991e-07
    357    360   2   0.50000    -0.3300000   -0.1150000   1.102666e-03  1.331965e-06
    357    364   2   0.50000    -0.3300000   -0.1150000   1.102666e-03  1.331965e-06
    370    360   2   0.50000     0.0300000   -0.1150000   1.719283e-04  1.090131e-07
    370    364   2   0.50000     0.0300000   -0.1150000   1.719283e-04  1.090131e-07
    371    360   2   0.50000     0.0300000   -0.1150000   1.719283e-04  1.090131e-07
    371    364   2   0.50000     0.0300000   -0.1150000   1.719283e-04  1.090131e-07
    358    361   2   0.50000     0.2318000   -0.1150000   1.091018e-03  2.092768e-06
    358    372   2   0.50000     0.2318000    0.1150000   2.262583e-04  1.374848e-07
    364    361   2   0.50000    -0.1150000   -0.1150000   1.172438e-03  2.346713e-06
    364    372   2   0.50000    -0.1150000    0.1150000   2.431434e-04  1.541678e-07
    358    363   2   0.50000     0.2318000   -0.1150000   1.091018e-03  2.092768e-06
    358    376   2   0.50000     0.2318000    0.1150000   2.262583e-04  1.374848e-07
    360    363   2   0.50000    -0.1150000   -0.1150000   1.172438e-03  2.346713e-06
    360    376   2   0.50000    -0.1150000    0.1150000   2.431434e-04  1.541678e-07
    359    362   2   0.50000    -0.0418000   -0.1150000   1.172438e-03  2.346713e-06
    359    373   2   0.50000    -0.0418000    0.1150000   2.431434e-04  1.541678e-07
    372    362   2   0.50000     0.1150000   -0.1150000   2.431434e-04  1.541678e-07
    372    373   2   0.50000     0.1150000    0.1150000   5.042375e-05  1.012808e-08
    360    374   2   0.50000    -0.1150000    0.1150000   2.431434e-04  1.541678e-07
    373    363   2   0.50000     0.1150000   -0.1150000   2.431434e-04  1.541678e-07
    373    374   2   0.50000     0.1150000    0.1150000   5.042375e-05  1.012808e-08
    361    375   2   0.50000    -0.1150000    0.1150000   2.431434e-04  1.541678e-07
    374    364   2   0.50000     0.1150000   -0.1150000   2.431434e-04  1.541678e-07
    374    375   2   0.50000     0.1150000    0.1150000   5.042375e-05  1.012808e-08
    362    376   2   0.50000    -0.1150000    0.1150000   2.431434e-04  1.541678e-07
    375    359   2   0.50000     0.1150000   -0.0418000   2.431434e-04  1.541678e-07
    375    376   2   0.50000     0.1150000    0.1150000   5.042375e-05  1.012808e-08
    353    379   2   0.50000     0.0000000   -0.1800000   1.015252e-03  1.866303e-06
    353    380   2   0.50000     0.0000000    0.5100000   1.575021e-03  3.561100e-06
    353    402   2   0.50000     0.0000000   -0.1200000   1.015252e-03  1.866303e-06
    390    379   2   0.50000     0.0600000   -0.1800000   2.494471e-04  1.671101e-07
    390    380   2   0.50000     0.0600000    0.5100000   3.869820e-04  3.188634e-07
    390    402   2   0.50000     0.0600000   -0.1200000   2.494471e-04  1.671101e-07
    391    379   2   0.50000     0.0600000   -0.1800000   2.494471e-04  1.671101e-07
    391    380   2   0.50000     0.0600000    0.5100000   3.869820e-04  3.188634e-07
    391    402   2   0.50000     0.0600000   -0.1200000   2.494471e-04  1.671101e-07
    377    392   2   0.50000    -0.1200000    0.0600000   2.494471e-04  1.671101e-07
    377    393   2   0.50000    -0.1200000    0.0600000   2.494471e-04  1.671101e-07
    377    394   2   0.50000    -0.1200000    0.0600000   2.494471e-04  1.671101e-07
    380    392   2   0.50000     0.5100000    0.0600000   3.869820e-04  3.188634e-07
    380    393   2   0.50000     0.5100000    0.0600000   3.869820e-04  3.188634e-07
    380    394   2   0.50000     0.5100000    0.0600000   3.869820e-04  3.188634e-07
    402    392   2   0.50000    -0.1200000    0.0600000   2.494471e-04  1.671101e-07
    402    393   2   0.50000    -0.1200000    0.0600000   2.494471e-04  1.671101e-07
    402    394   2   0.50000    -0.1200000    0.0600000   2.494471e-04  1.671101e-07
    377    381   2   0.50000    -0.1200000   -0.4300000   1.095425e-03  1.218041e-06
    377    382   2   0.50000    -0.1200000   -0.3300000   1.026091e-03  1.187829e-06
    379    381   2   0.50000    -0.1800000   -0.4300000   1.095425e-03  1.218041e-06
    379    382   2   0.50000    -0.1800000   -0.3300000   1.026091e-03  1.187829e-06
    402    381   2   0.50000    -0.1200000   -0.4300000   1.095425e-03  1.218041e-06
    402    382   2   0.50000    -0.1200000   -0.3300000   1.026091e-03  1.187829e-06
    377    403   2   0.50000    -0.1200000    0.0000000   1.015252e-03  1.866303e-06
    377    415   2   0.50000    -0.1200000    0.0600000   2.494471e-04  1.671101e-07
    377    416   2   0.50000    -0.1200000    0.0600000   2.494471e-04  1.671101e-07
    379    403   2   0.50000    -0.1800000    0.0000000   1.015252e-03  1.866303e-06
    379    415   2   0.50000    -0.1800000    0.0600000   2.494471e-04  1.671101e-07
    379    416   2   0.50000    -0.1800000    0.0600000   2.494471e-04  1.671101e-07
    380    403   2   0.50000     0.5100000    0.0000000   1.575021e-03  3.561100e-06
    380    415   2   0.50000     0.5100000    0.0600000   3.869820e-04  3.188634e-07
    380    416   2   0.50000     0.5100000    0.0600000   3.869820e-04  3.188634e-07
    378    383   2   0.50000     0.0000000    0.2318000   1.015252e-03  1.866303e-06
    381    383   2   0.50000    -0.4300000    0.2318000   1.095425e-03  1.218041e-06
    380    384   2   0.50000     0.5100000   -0.0418000   1.692561e-03  3.993218e-06
    380    395   2   0.50000     0.5100000    0.0300000   2.482000e-04  1.854991e-07
    380    396   2   0.50000     0.5100000    0.0300000   2.482000e-04  1.854991e-07
    382    385   2   0.50000    -0.3300000   -0.1150000   1.102666e-03  1.331965e-06
    382    389   2   0.50000    -0.3300000   -0.1150000   1.102666e-03  1.331965e-06
    395    385   2   0.50000     0.0300000   -0.1150000   1.719283e-04  1.090131e-07
    395    389   2   0.50000     0.0300000   -0.1150000   1.719283e-04  1.090131e-07
    396    385   2   0.50000     0.0300000   -0.1150000   1.719283e-04  1.090131e-07
    396    389   2   0.50000     0.0300000   -0.1150000   1.719283e-04  1.090131e-07
    383    386   2   0.50000     0.2318000   -0.1150000   1.091018e-03  2.092768e-06
    383    397   2   0.50000     0.2318000    0.1150000   2.262583e-04  1.374848e-07
    389    386   2   0.50000    -0.1150000   -0.1150000   1.172438e-03  2.346713e-06
    389    397   2   0.50000    -0.1150000    0.1150000   2.431434e-04  1.541678e-07
    383    388   2   0.50000     0.2318000   -0.1150000   1.091018e-03  2.092768e-06
    383    401   2   0.50000     0.2318000    0.1150000   2.262583e-04  1.374848e-07
    385    388   2   0.50000    -0.1150000   -0.1150000   1.172438e-03  2.346713e-06
    385    401   2   0.50000    -0.1150000    0.1150000   2.431434e-04  1.541678e-07
    384    387   2   0.50000    -0.0418000   -0.1150000   1.172438e-03  2.346713e-06
    384    398   2   0.50000    -0.0418000    0.1150000   2.431434e-04  1.541678e-07
    397    387   2   0.50000     0.1150000   -0.1150000   2.431434e-04  1.541678e-07
    397    398   2   0.50000     0.1150000    0.1150000   5.042375e-05  1.012808e-08
    385    399   2   0.50000    -0.1150000    0.1150000   2.431434e-04  1.541678e-07
    398    388   2   0.50000     0.1150000   -0.1150000   2.431434e-04  1.541678e-07
    398    399   2   0.50000     0.1150000    0.1150000   5.042375e-05  1.012808e-08
    386    400   2   0.50000    -0.1150000    0.1150000   2.431434e-04  1.541678e-07
    399    389   2   0.50000     0.1150000   -0.1150000   2.431434e-04  1.541678e-07
    399    400   2   0.50000     0.1150000    0.1150000   5.042375e-05  1.012808e-08
    387    401   2   0.50000    -0.1150000    0.1150000   2.431434e-04  1.541678e-07
    400    384   2   0.50000     0.1150000   -0.0418000   2.431434e-04  1.541678e-07
    400    401   2   0.50000     0.1150000    0.1150000   5.042375e-05  1.012808e-08
    378    404   2   0.50000     0.0000000   -0.1800000   1.015252e-03  1.866303e-06
    378    405   2   0.50000     0.0000000    0.5100000   1.575021e-03  3.561100e-06
    378    427   2   0.50000     0.0000000   -0.1200000   1.015252e-03  1.866303e-06
    415    404   2   0.50000     0.0600000   -0.1800000   2.494471e-04  1.671101e-07
    415    405   2   0.50000     0.0600000    0.5100000   3.869820e-04  3.188634e-07
    415    427   2   0.50000     0.0600000   -0.1200000   2.494471e-04  1.671101e-07
    416    404   2   0.50000     0.0600000   -0.1800000   2.494471e-04  1.671101e-07
    416    405   2   0.50000     0.0600000    0.5100000   3.869820e-04  3.188634e-07
    416    427   2   0.50000     0.0600000   -0.1200000   2.494471e-04  1.671101e-07
    402    417   2   0.50000    -0.1200000    0.0600000   2.494471e-04  1.671101e-07
    402    418   2   0.50000    -0.1200000    0.0600000   2.494471e-04  1.671101e-07
    402    419   2   0.50000    -0.1200000    0.0600000   2.494471e-04  1.671101e-07
    405    417   2   0.50000     0.5100000    0.0600000   3.869820e-04  3.188634e-07
    405    418   2   0.50000     0.5100000    0.0600000   3.869820e-04  3.188634e-07
    405    419   2   0.50000     0.5100000    0.0600000   3.869820e-04  3.188634e-07
    427    417   2   0.50000    -0.1200000    0.0600000   2.494471e-04  1.671101e-07
    427    418   2   0.50000    -0.1200000    0.0600000   2.494471e-04  1.671101e-07
    427    419   2   0.50000    -0.1200000    0.0600000   2.494471e-04  1.671101e-07
    402    406   2   0.50000    -0.1200000   -0.4300000   1.095425e-03  1.218041e-06
    402    407   2   0.50000    -0.1200000   -0.3300000   1.026091e-03  1.187829e-06
    404    406   2   0.50000    -0.1800000   -0.4300000   1.095425e-03  1.218041e-06
    404    407   2   0.50000    -0.1800000   -0.3300000   1.026091e-03  1.187829e-06
    427    406   2   0.50000    -0.1200000   -0.4300000   1.095425e-03  1.218041e-06
    427    407   2   0.50000    -0.1200000   -0.3300000   1.026091e-03  1.187829e-06
    402    428   2   0.50000    -0.1200000    0.0000000   1.015252e-03  1.866303e-06
    402    440   2   0.50000    -0.1200000    0.0600000   2.494471e-04  1.671101e-07
    402    441   2   0.50000    -0.1200000    0.0600000   2.494471e-04  1.671101e-07
    404    428   2   0.50000    -0.1800000    0.0000000   1.015252e-03  1.866303e-06
    404    440   2   0.50000    -0.1800000    0.0600000   2.494471e-04  1.671101e-07
    404    441   2   0.50000    -0.1800000    0.0600000   2.494471e-04  1.671101e-07
    405    428   2   0.50000     0.5100000    0.0000000   1.575021e-03  3.561100e-06
    405    440   2   0.50000     0.5100000    0.0600000   3.869820e-04  3.188634e-07
    405    441   2   0.50000     0.5100000    0.0600000   3.869820e-04  3.188634e-07
    403    408   2   0.50000     0.0000000    0.2318000   1.015252e-03  1.866303e-06
    406    408   2   0.50000    -0.4300000    0.2318000   1.095425e-03  1.218041e-06
    405    409   2   0.50000     0.5100000   -0.0418000   1.692561e-03  3.993218e-06
    405    420   2   0.50000     0.5100000    0.0300000   2.482000e-04  1.854991e-07
    405    421   2   0.50000     0.5100000    0.0300000   2.482000e-04  1.854991e-07
    407    410   2   0.50000    -0.3300000   -0.1150000   1.102666e-03  1.331965e-06
    407    414   2   0.50000    -0.3300000   -0.1150000   1.102666e-03  1.331965e-06
    420    410   2   0.50000     0.0300000   -0.1150000   1.719283e-04  1.090131e-07
    420    414   2   0.50000     0.0300000   -0.1150000   1.719283e-04  1.090131e-07
    421    410   2   0.50000     0.0300000   -0.1150000   1.719283e-04  1.090131e-07
    421    414   2   0.50000     0.0300000   -0.1150000   1.719283e-04  1.090131e-07
    408    411   2   0.50000     0.2318000   -0.1150000   1.091018e-03  2.092768e-06
    408    422   2   0.50000     0.2318000    0.1150000   2.262583e-04  1.374848e-07
    414    411   2   0.50000    -0.1150000   -0.1150000   1.172438e-03  2.346713e-06
    414    422   2   0.50000    -0.1150000    0.1150000   2.431434e-04  1.541678e-07
    408    413   2   0.50000     0.2318000   -0.1150000   1.091018e-03  2.092768e-06
    408    426   2   0.50000     0.2318000    0.1150000   2.262583e-04  1.374848e-07
    410    413   2   0.50000    -0.1150000   -0.1150000   1.172438e-03  2.346713e-06
    410    426   2   0.50000    -0.1150000    0.1150000   2.431434e-04  1.541678e-07
    409    412   2   0.50000    -0.0418000   -0.1150000   1.172438e-03  2.346713e-06
    409    423   2   0.50000    -0.0418000    0.1150000   2.431434e-04  1.541678e-07
    422    412   2   0.50000     0.1150000   -0.1150000   2.431434e-04  1.541678e-07
    422    423   2   0.50000     0.1150000    0.1150000   5.042375e-05  1.012808e-08
    410    424   2   0.50000    -0.1150000    0.1150000   2.431434e-04  1.541678e-07
    423    413   2   0.50000     0.1150000   -0.1150000   2.431434e-04  1.541678e-07
    423    424   2   0.50000     0.1150000    0.1150000   5.042375e-05  1.012808e-08
    411    425   2   0.50000    -0.1150000    0.1150000   2.431434e-04  1.541678e-07
    424    414   2   0.50000     0.1150000   -0.1150000   2.431434e-04  1.541678e-07
    424    425   2   0.50000     0.1150000    0.1150000   5.042375e-05  1.012808e-08
    412    426   2   0.50000    -0.1150000    0.1150000   2.431434e-04  1.541678e-07
    425    409   2   0.50000     0.1150000   -0.0418000   2.431434e-04  1.541678e-07
    425    426   2   0.50000     0.1150000    0.1150000   5.042375e-05  1.012808e-08
    403    429   2   0.50000     0.0000000   -0.1800000   1.015252e-03  1.866303e-06
    403    430   2   0.50000     0.0000000    0.5100000   1.575021e-03  3.561100e-06
    403    452   2   0.50000     0.0000000   -0.1200000   1.015252e-03  1.866303e-06
    440    429   2   0.50000     0.0600000   -0.1800000   2.494471e-04  1.671101e-07
    440    430   2   0.50000     0.0600000    0.5100000   3.869820e-04  3.188634e-07
    440    452   2   0.50000     0.0600000   -0.1200000   2.494471e-04  1.671101e-07
    441    429   2   0.50000     0.0600000   -0.1800000   2.494471e-04  1.671101e-07
    441    430   2   0.50000     0.0600000    0.5100000   3.869820e-04  3.188634e-07
    441    452   2   0.50000     0.0600000   -0.1200000   2.494471e-04  1.671101e-07
    427    442   2   0.50000    -0.1200000    0.0600000   2.494471e-04  1.671101e-07
    427    443   2   0.50000    -0.1200000    0.0600000   2.494471e-04  1.671101e-07
    427    444   2   0.50000    -0.1200000    0.0600000   2.494471e-04  1.671101e-07
    430    442   2   0.50000     0.5100000    0.0600000   3.869820e-04  3.188634e-07
    430    443   2   0.50000     0.5100000    0.0600000   3.869820e-04  3.188634e-07
    430    444   2   0.50000     0.5100000    0.0600000   3.869820e-04  3.188634e-07
    452    442   2   0.50000    -0.1200000    0.0600000   2.494471e-04  1.671101e-07
    452    443   2   0.50000    -0.1200000    0.0600000   2.494471e-04  1.671101e-07
    452    444   2   0.50000    -0.1200000    0.0600000   2.494471e-04  1.671101e-07
    427    431   2   0.50000    -0.1200000   -0.4300000   1.095425e-03  1.218041e-06
    427    432   2   0.50000    -0.1200000   -0.3300000   1.026091e-03  1.187829e-06
    429    431   2   0.50000    -0.1800000   -0.4300000   1.095425e-03  1.218041e-06
    429    432   2   0.50000    -0.1800000   -0.3300000   1.026091e-03  1.187829e-06
    452    431   2   0.50000    -0.1200000   -0.4300000   1.095425e-03  1.218041e-06
    452    432   2   0.50000    -0.1200000   -0.3300000   1.026091e-03  1.187829e-06
    427    453   2   0.50000    -0.1200000    0.0000000   1.015252e-03  1.866303e-06
    427    465   2   0.50000    -0.1200000    0.0600000   2.494471e-04  1.671101e-07
    427    466   2   0.50000    -0.1200000    0.0600000   2.494471e-04  1.671101e-07
    429    453   2   0.50000    -0.1800000    0.0000000   1.015252e-03  1.866303e-06
    429    465   2   0.50000    -0.1800000    0.0600000   2.494471e-04  1.671101e-07
    429    466   2   0.50000    -0.1800000    0.0600000   2.494471e-04  1.671101e-07
    430    453   2   0.50000     0.5100000    0.0000000   1.575021e-03  3.561100e-06
    430    465   2   0.50000     0.5100000    0.0600000   3.869820e-04  3.188634e-07
    430    466   2   0.50000     0.5100000    0.0600000   3.869820e-04  3.188634e-07
    428    433   2   0.50000     0.0000000    0.2318000   1.015252e-03  1.866303e-06
    431    433   2   0.50000    -0.4300000    0.2318000   1.095425e-03  1.218041e-06
    430    434   2   0.50000     0.5100000   -0.0418000   1.692561e-03  3.993218e-06
    430    445   2   0.50000     0.5100000    0.0300000   2.482000e-04  1.854991e-07
    430    446   2   0.50000     0.5100000    0.0300000   2.482000e-04  1.854991e-07
    432    435   2   0.50000    -0.3300000   -0.1150000   1.102666e-03  1.331965e-06
    432    439   2   0.50000    -0.3300000   -0.1150000   1.102666e-03  1.331965e-06
    445    435   2   0.50000     0.0300000   -0.1150000   1.719283e-04  1.090131e-07
    445    439   2   0.50000     0.0300000   -0.1150000   1.719283e-04  1.090131e-07
    446    435   2   0.50000     0.0300000   -0.1150000   1.719283e-04  1.090131e-07
    446    439   2   0.50000     0.0300000   -0.1150000   1.719283e-04  1.090131e-07
    433    436   2   0.50000     0.2318000   -0.1150000   1.091018e-03  2.092768e-06
    433    447   2   0.50000     0.2318000    0.1150000   2.262583e-04  1.374848e-07
    439    436   2   0.50000    -0.1150000   -0.1150000   1.172438e-03  2.346713e-06
    439    447   2   0.50000    -0.1150000    0.1150000   2.431434e-04  1.541678e-07
    433    438   2   0.50000     0.2318000   -0.1150000   1.091018e-03  2.092768e-06
    433    451   2   0.50000     0.2318000    0.1150000   2.262583e-04  1.374848e-07
    435    438   2   0.50000    -0.1150000   -0.1150000   1.172438e-03  2.346713e-06
    435    451   2   0.50000    -0.1150000    0.1150000   2.431434e-04  1.541678e-07
    434    437   2   0.50000    -0.0418000   -0.1150000   1.172438e-03  2.346713e-06
    434    448   2   0.50000    -0.0418000    0.1150000   2.431434e-04  1.541678e-07
    447    437   2   0.50000     0.1150000   -0.1150000   2.431434e-04  1.541678e-07
    447    448   2   0.50000     0.1150000    0.1150000   5.042375e-05  1.012808e-08
    435    449   2   0.50000    -0.1150000    0.1150000   2.431434e-04  1.541678e-07
    448    438   2   0.50000     0.1150000   -0.1150000   2.431434e-04  1.541678e-07
    448    449   2   0.50000     0.1150000    0.1150000   5.042375e-05  1.012808e-08
    436    450   2   0.50000    -0.1150000    0.1150000   2.431434e-04  1.541678e-07
    449    439   2   0.50000     0.1150000   -0.1150000   2.431434e-04  1.541678e-07
    449    450   2   0.50000     0.1150000    0.1150000   5.042375e-05  1.012808e-08
    437    451   2   0.50000    -0.1150000    0.1150000   2.431434e-04  1.541678e-07
    450    434   2   0.50000     0.1150000   -0.0418000   2.431434e-04  1.541678e-07
    450    451   2   0.50000     0.1150000    0.1150000   5.042375e-05  1.012808e-08
    428    454   2   0.50000     0.0000000   -0.1800000   1.015252e-03  1.866303e-06
    428    455   2   0.50000     0.0000000    0.5100000   1.575021e-03  3.561100e-06
    428    477   2   0.50000     0.0000000   -0.1200000   1.015252e-03  1.866303e-06
    465    454   2   0.50000     0.0600000   -0.1800000   2.494471e-04  1.671101e-07
    465    455   2   0.50000     0.0600000    0.5100000   3.869820e-04  3.188634e-07
    465    477   2   0.50000     0.0600000   -0.1200000   2.494471e-04  1.671101e-07
    466    454   2   0.50000     0.0600000   -0.1800000   2.494471e-04  1.671101e-07
    466    455   2   0.50000     0.0600000    0.5100000   3.869820e-04  3.188634e-07
    466    477   2   0.50000     0.0600000   -0.1200000   2.494471e-04  1.671101e-07
    452    467   2   0.50000    -0.1200000    0.0600000   2.494471e-04  1.671101e-07
    452    468   2   0.50000    -0.1200000    0.0600000   2.494471e-04  1.671101e-07
    452    469   2   0.50000    -0.1200000    0.0600000   2.494471e-04  1.671101e-07
    455    467   2   0.50000     0.5100000    0.0600000   3.869820e-04  3.188634e-07
    455    468   2   0.50000     0.5100000    0.0600000   3.869820e-04  3.188634e-07
    455    469   2   0.50000     0.5100000    0.0600000   3.869820e-04  3.188634e-07
    477    467   2   0.50000    -0.1200000    0.0600000   2.494471e-04  1.671101e-07
    477    468   2   0.50000    -0.1200000    0.0600000   2.494471e-04  1.671101e-07
    477    469   2   0.50000    -0.1200000    0.0600000   2.494471e-04  1.671101e-07
    452    456   2   0.50000    -0.1200000   -0.4300000   1.095425e-03  1.218041e-06
    452    457   2   0.50000    -0.1200000   -0.3300000   1.026091e-03  1.187829e-06
    454    456   2   0.50000    -0.1800000   -0.4300000   1.095425e-03  1.218041e-06
    454    457   2   0.50000    -0.1800000   -0.3300000   1.026091e-03  1.187829e-06
    477    456   2   0.50000    -0.1200000   -0.4300000   1.095425e-03  1.218041e-06
    477    457   2   0.50000    -0.1200000   -0.3300000   1.026091e-03  1.187829e-06
    452    478   2   0.50000    -0.1200000   -0.0600000   1.015252e-03  1.866303e-06
    452    490   2   0.50000    -0.1200000    0.0600000   2.494471e-04  1.671101e-07
    452    491   2   0.50000    -0.1200000    0.0600000   2.494471e-04  1.671101e-07
    454    478   2   0.50000    -0.1800000   -0.0600000   1.015252e-03  1.866303e-06
    454    490   2   0.50000    -0.1800000    0.0600000   2.494471e-04  1.671101e-07
    454    491   2   0.50000    -0.1800000    0.0600000   2.494471e-04  1.671101e-07
    455    478   2   0.50000     0.5100000   -0.0600000   1.575021e-03  3.561100e-06
    455    490   2   0.50000     0.5100000    0.0600000   3.869820e-04  3.188634e-07
    455    491   2   0.50000     0.5100000    0.0600000   3.869820e-04  3.188634e-07
    453    458   2   0.50000     0.0000000    0.2318000   1.015252e-03  1.866303e-06
    456    458   2   0.50000    -0.4300000    0.2318000   1.095425e-03  1.218041e-06
    455    459   2   0.50000     0.5100000   -0.0418000   1.692561e-03  3.993218e-06
    455    470   2   0.50000     0.5100000    0.0300000   2.482000e-04  1.854991e-07
    455    471   2   0.50000     0.5100000    0.0300000   2.482000e-04  1.854991e-07
    457    460   2   0.50000    -0.3300000   -0.1150000   1.102666e-03  1.331965e-06
    457    464   2   0.50000    -0.3300000   -0.1150000   1.102666e-03  1.331965e-06
    470    460   2   0.50000     0.0300000   -0.1150000   1.719283e-04  1.090131e-07
    470    464   2   0.50000     0.0300000   -0.1150000   1.719283e-04  1.090131e-07
    471    460   2   0.50000     0.0300000   -0.1150000   1.719283e-04  1.090131e-07
    471    464   2   0.50000     0.0300000   -0.1150000   1.719283e-04  1.090131e-07
    458    461   2   0.50000     0.2318000   -0.1150000   1.091018e-03  2.092768e-06
    458    472   2   0.50000     0.2318000    0.1150000   2.262583e-04  1.374848e-07
    464    461   2   0.50000    -0.1150000   -0.1150000   1.172438e-03  2.346713e-06
    464    472   2   0.50000    -0.1150000    0.1150000   2.431434e-04  1.541678e-07
    458    463   2   0.50000     0.2318000   -0.1150000   1.091018e-03  2.092768e-06
    458    476   2   0.50000     0.2318000    0.1150000   2.262583e-04  1.374848e-07
    460    463   2   0.50000    -0.1150000   -0.1150000   1.172438e-03  2.346713e-06
    460    476   2   0.50000    -0.1150000    0.1150000   2.431434e-04  1.541678e-07
    459    462   2   0.50000    -0.0418000   -0.1150000   1.172438e-03  2.346713e-06
    459    473   2   0.50000    -0.0418000    0.1150000   2.431434e-04  1.541678e-07
    472    462   2   0.50000     0.1150000   -0.1150000   2.431434e-04  1.541678e-07
    472    473   2   0.50000     0.1150000    0.1150000   5.042375e-05  1.012808e-08
    460    474   2   0.50000    -0.1150000    0.1150000   2.431434e-04  1.541678e-07
    473    463   2   0.50000     0.1150000   -0.1150000   2.431434e-04  1.541678e-07
    473    474   2   0.50000     0.1150000    0.1150000   5.042375e-05  1.012808e-08
    461    475   2   0.50000    -0.1150000    0.1150000   2.431434e-04  1.541678e-07
    474    464   2   0.50000     0.1150000   -0.1150000   2.431434e-04  1.541678e-07
    474    475   2   0.50000     0.1150000    0.1150000   5.042375e-05  1.012808e-08
    462    476   2   0.50000    -0.1150000    0.1150000   2.431434e-04  1.541678e-07
    475    459   2   0.50000     0.1150000   -0.0418000   2.431434e-04  1.541678e-07
    475    476   2   0.50000     0.1150000    0.1150000   5.042375e-05  1.012808e-08
    453    479   2   0.50000     0.0000000   -0.1800000   1.015252e-03  1.866303e-06
    453    480   2   0.50000     0.0000000    0.5100000   1.575021e-03  3.561100e-06
    453    502   2   0.50000     0.0000000    0.0600000   1.599888e-04  9.721644e-08
    490    479   2   0.50000     0.0600000   -0.1800000   2.494471e-04  1.671101e-07
    490    480   2   0.50000     0.0600000    0.5100000   3.869820e-04  3.188634e-07
    490    502   2   0.50000     0.0600000    0.0600000   3.930919e-05  8.704828e-09
    491    479   2   0.50000     0.0600000   -0.1800000   2.494471e-04  1.671101e-07
    491    480   2   0.50000     0.0600000    0.5100000   3.869820e-04  3.188634e-07
    491    502   2   0.50000     0.0600000    0.0600000   3.930919e-05  8.704828e-09
    477    492   2   0.50000    -0.1200000    0.0600000   2.494471e-04  1.671101e-07
    477    493   2   0.50000    -0.1200000    0.0600000   2.494471e-04  1.671101e-07
    477    494   2   0.50000    -0.1200000    0.0600000   2.494471e-04  1.671101e-07
    480    492   2   0.50000     0.5100000    0.0600000   3.869820e-04  3.188634e-07
    480    493   2   0.50000     0.5100000    0.0600000   3.869820e-04  3.188634e-07
    480    494   2   0.50000     0.5100000    0.0600000   3.869820e-04  3.188634e-07
    502    492   2   0.50000     0.0600000    0.0600000   3.930919e-05  8.704828e-09
    502    493   2   0.50000     0.0600000    0.0600000   3.930919e-05  8.704828e-09
    502    494   2   0.50000     0.0600000    0.0600000   3.930919e-05  8.704828e-09
    477    481   2   0.50000    -0.1200000   -0.4300000   1.095425e-03  1.218041e-06
    477    482   2   0.50000    -0.1200000   -0.3300000   1.026091e-03  1.187829e-06
    479    481   2   0.50000    -0.1800000   -0.4300000   1.095425e-03  1.218041e-06
    479    482   2   0.50000    -0.1800000   -0.3300000   1.026091e-03  1.187829e-06
    502    481   2   0.50000     0.0600000   -0.4300000   1.726228e-04  6.344822e-08
    502    482   2   0.50000     0.0600000   -0.3300000   1.616969e-04  6.187447e-08
    478    483   2   0.50000    -0.0600000    0.2318000   1.015252e-03  1.866303e-06
    481    483   2   0.50000    -0.4300000    0.2318000   1.095425e-03  1.218041e-06
    480    484   2   0.50000     0.5100000   -0.0418000   1.692561e-03  3.993218e-06
    480    495   2   0.50000     0.5100000    0.0300000   2.482000e-04  1.854991e-07
    480    496   2   0.50000     0.5100000    0.0300000   2.482000e-04  1.854991e-07
    482    485   2   0.50000    -0.3300000   -0.1150000   1.102666e-03  1.331965e-06
    482    489   2   0.50000    -0.3300000   -0.1150000   1.102666e-03  1.331965e-06
    495    485   2   0.50000     0.0300000   -0.1150000   1.719283e-04  1.090131e-07
    495    489   2   0.50000     0.0300000   -0.1150000   1.719283e-04  1.090131e-07
    496    485   2   0.50000     0.0300000   -0.1150000   1.719283e-04  1.090131e-07
    496    489   2   0.50000     0.0300000   -0.1150000   1.719283e-04  1.090131e-07
    483    486   2   0.50000     0.2318000   -0.1150000   1.091018e-03  2.092768e-06
    483    497   2   0.50000     0.2318000    0.1150000   2.262583e-04  1.374848e-07
    489    486   2   0.50000    -0.1150000   -0.1150000   1.172438e-03  2.346713e-06
    489    497   2   0.50000    -0.1150000    0.1150000   2.431434e-04  1.541678e-07
    483    488   2   0.50000     0.2318000   -0.1150000   1.091018e-03  2.092768e-06
    483    501   2   0.50000     0.2318000    0.1150000   2.262583e-04  1.374848e-07
    485    488   2   0.50000    -0.1150000   -0.1150000   1.172438e-03  2.346713e-06
    485    501   2   0.50000    -0.1150000    0.1150000   2.431434e-04  1.541678e-07
    484    487   2   0.50000    -0.0418000   -0.1150000   1.172438e-03  2.346713e-06
    484    498   2   0.50000    -0.0418000    0.1150000   2.431434e-04  1.541678e-07
    497    487   2   0.50000     0.1150000   -0.1150000   2.431434e-04  1.541678e-07
    497    498   2   0.50000     0.1150000    0.1150000   5.042375e-05  1.012808e-08
    485    499   2   0.50000    -0.1150000    0.1150000   2.431434e-04  1.541678e-07
    498    488   2   0.50000     0.1150000   -0.1150000   2.431434e-04  1.541678e-07
    498    499   2   0.50000     0.1150000    0.1150000   5.042375e-05  1.012808e-08
    486    500   2   0.50000    -0.1150000    0.1150000   2.431434e-04  1.541678e-07
    499    489   2   0.50000     0.1150000   -0.1150000   2.431434e-04  1.541678e-07
    499    500   2   0.50000     0.1150000    0.1150000   5.042375e-05  1.012808e-08
    487    501   2   0.50000    -0.1150000    0.1150000   2.431434e-04  1.541678e-07
    500    484   2   0.50000     0.1150000   -0.0418000   2.431434e-04  1.541678e-07
    500    501   2   0.50000     0.1150000    0.1150000   5.042375e-05  1.012808e-08

[ angles ]
; ai  aj  ak
      2      1     14   1    110.7000    313.8000
      2      1     15   1    110.7000    313.8000
      2      1     26   1    110.7000    313.8000
     14      1     15   1    107.8000    276.1440
     14      1     26   1    107.8000    276.1440
     15      1     26   1    107.8000    276.1440
      1      2      3   1    112.7000    488.2728
      1      2      4   1    111.1000    527.1840
      1      2     27   1    112.7000    488.2728
      3      2      4   1    111.1000    527.1840
      3      2     27   1    112.7000    488.2728
      4      2     27   1    111.1000    527.1840
      2      3     16   1    110.7000    313.8000
      2      3     17   1    110.7000    313.8000
      2      3     18   1    110.7000    313.8000
     16      3     17   1    107.8000    276.1440
     16      3     18   1    107.8000    276.1440
     17      3     18   1    107.8000    276.1440
      2      4      5   1    120.4000    669.4400
      2      4      6   1    111.4000    677.8080
      5      4      6   1    123.4000    694.5440
      4      6      7   1    116.9000    694.5440
      6      7      8   1    111.8570    711.2800
      6      7     19   1    109.5000    292.8800
      6      7     20   1    109.5000    292.8800
      8      7     19   1    109.5000    292.8800
      8      7     20   1    109.5000    292.8800
     19      7     20   1    107.8000    276.1440
      7      8      9   1    120.0000    585.7600
      7      8     13   1    120.0000    585.7600
      9      8     13   1    120.0000    527.1840
      8      9     10   1    120.0000    527.1840
      8      9     21   1    120.0000    292.8800
     10      9     21   1    120.0000    292.8800
      9     10     11   1    120.0000    527.1840
      9     10     22   1    120.0000    292.8800
     11     10     22   1    120.0000    292.8800
     10     11     12   1    120.0000    527.1840
     10     11     23   1    120.0000    292.8800
     12     11     23   1    120.0000    292.8800
     11     12     13   1    120.0000    527.1840
     11     12     24   1    120.0000    292.8800
     13     12     24   1    120.0000    292.8800
      8     13     12   1    120.0000    527.1840
      8     13     25   1    120.0000    292.8800
     12     13     25   1    120.0000    292.8800
      2     27     28   1    112.7000    488.2728
      2     27     40   1    110.7000    313.8000
      2     27     41   1    110.7000    313.8000
     28     27     40   1    110.7000    313.8000
     28     27     41   1    110.7000    313.8000
     40     27     41   1    107.8000    276.1440
     27     28     29   1    112.7000    488.2728
     27     28     30   1    111.1000    527.1840
     27     28     52   1    112.7000    488.2728
     29     28     30   1    111.1000    527.1840
     29     28     52   1    112.7000    488.2728
     30     28     52   1    111.1000    527.1840
     28     29     42   1    110.7000    313.8000
     28     29     43   1    110.7000    313.8000
     28     29     44   1    110.7000    313.8000
     42     29     43   1    107.8000    276.1440
     42     29     44   1    107.8000    276.1440
     43     29     44   1    107.8000    276.1440
     28     30     31   1    120.4000    669.4400
     28     30     32   1    111.4000    677.8080
     31     30     32   1    123.4000    694.5440
     30     32     33   1    116.9000    694.5440
     32     33     34   1    111.8570    711.2800
     32     33     45   1    109.5000    292.8800
     32     33     46   1    109.5000    292.8800
     34     33     45   1    109.5000    292.8800
     34     33     46   1    109.5000    292.8800
     45     33     46   1    107.8000    276.1440
     33     34     35   1    120.0000    585.7600
     33     34     39   1    120.0000    585.7600
     35     34     39   1    120.0000    527.1840
     34     35     36   1    120.0000    527.1840
     34     35     47   1    120.0000    292.8800
     36     35     47   1    120.0000    292.8800
     35     36     37   1    120.0000    527.1840
     35     36     48   1    120.0000    292.8800
     37     36     48   1    120.0000    292.8800
     36     37     38   1    120.0000    527.1840
     36     37     49   1    120.0000    292.8800
     38     37     49   1    120.0000    292.8800
     37     38     39   1    120.0000    527.1840
     37     38     50   1    120.0000    292.8800
     39     38     50   1    120.0000    292.8800
     34     39     38   1    120.0000    527.1840
     34     39     51   1    120.0000    292.8800
     38     39     51   1    120.0000    292.8800
     28     52     53   1    112.7000    488.2728
     28     52     65   1    110.7000    313.8000
     28     52     66   1    110.7000    313.8000
     53     52     65   1    110.7000    313.8000
     53     52     66   1    110.7000    313.8000
     65     52     66   1    107.8000    276.1440
     52     53     54   1    112.7000    488.2728
     52     53     55   1    111.1000    527.1840
     52     53     77   1    112.7000    488.2728
     54     53     55   1    111.1000    527.1840
     54     53     77   1    112.7000    488.2728
     55     53     77   1    111.1000    527.1840
     53     54     67   1    110.7000    313.8000
     53     54     68   1    110.7000    313.8000
     53     54     69   1    110.7000    313.8000
     67     54     68   1    107.8000    276.1440
     67     54     69   1    107.8000    276.1440
     68     54     69   1    107.8000    276.1440
     53     55     56   1    120.4000    669.4400
     53     55     57   1    111.4000    677.8080
     56     55     57   1    123.4000    694.5440
     55     57     58   1    116.9000    694.5440
     57     58     59   1    111.8570    711.2800
     57     58     70   1    109.5000    292.8800
     57     58     71   1    109.5000    292.8800
     59     58     70   1    109.5000    292.8800
     59     58     71   1    109.5000    292.8800
     70     58     71   1    107.8000    276.1440
     58     59     60   1    120.0000    585.7600
     58     59     64   1    120.0000    585.7600
     60     59     64   1    120.0000    527.1840
     59     60     61   1    120.0000    527.1840
     59     60     72   1    120.0000    292.8800
     61     60     72   1    120.0000    292.8800
     60     61     62   1    120.0000    527.1840
     60     61     73   1    120.0000    292.8800
     62     61     73   1    120.0000    292.8800
     61     62     63   1    120.0000    527.1840
     61     62     74   1    120.0000    292.8800
     63     62     74   1    120.0000    292.8800
     62     63     64   1    120.0000    527.1840
     62     63     75   1    120.0000    292.8800
     64     63     75   1    120.0000    292.8800
     59     64     63   1    120.0000    527.1840
     59     64     76   1    120.0000    292.8800
     63     64     76   1    120.0000    292.8800
     53     77     78   1    112.7000    488.2728
     53     77     90   1    110.7000    313.8000
     53     77     91   1    110.7000    313.8000
     78     77     90   1    110.7000    313.8000
     78     77     91   1    110.7000    313.8000
     90     77     91   1    107.8000    276.1440
     77     78     79   1    112.7000    488.2728
     77     78     80   1    111.1000    527.1840
     77     78    102   1    112.7000    488.2728
     79     78     80   1    111.1000    527.1840
     79     78    102   1    112.7000    488.2728
     80     78    102   1    111.1000    527.1840
     78     79     92   1    110.7000    313.8000
     78     79     93   1    110.7000    313.8000
     78     79     94   1    110.7000    313.8000
     92     79     93   1    107.8000    276.1440
     92     79     94   1    107.8000    276.1440
     93     79     94   1    107.8000    276.1440
     78     80     81   1    120.4000    669.4400
     78     80     82   1    111.4000    677.8080
     81     80     82   1    123.4000    694.5440
     80     82     83   1    116.9000    694.5440
     82     83     84   1    111.8570    711.2800
     82     83     95   1    109.5000    292.8800
     82     83     96   1    109.5000    292.8800
     84     83     95   1    109.5000    292.8800
     84     83     96   1    109.5000    292.8800
     95     83     96   1    107.8000    276.1440
     83     84     85   1    120.0000    585.7600
     83     84     89   1    120.0000    585.7600
     85     84     89   1    120.0000    527.1840
     84     85     86   1    120.0000    527.1840
     84     85     97   1    120.0000    292.8800
     86     85     97   1    120.0000    292.8800
     85     86     87   1    120.0000    527.1840
     85     86     98   1    120.0000    292.8800
     87     86     98   1    120.0000    292.8800
     86     87     88   1    120.0000    527.1840
     86     87     99   1    120.0000    292.8800
     88     87     99   1    120.0000    292.8800
     87     88     89   1    120.0000    527.1840
     87     88    100   1    120.0000    292.8800
     89     88    100   1    120.0000    292.8800
     84     89     88   1    120.0000    527.1840
     84     89    101   1    120.0000    292.8800
     88     89    101   1    120.0000    292.8800
     78    102    103   1    112.7000    488.2728
     78    102    115   1    110.7000    313.8000
     78    102    116   1    110.7000    313.8000
    103    102    115   1    110.7000    313.8000
    103    102    116   1    110.7000    313.8000
    115    102    116   1    107.8000    276.1440
    102    103    104   1    112.7000    488.2728
    102    103    105   1    111.1000    527.1840
    102    103    127   1    112.7000    488.2728
    104    103    105   1    111.1000    527.1840
    104    103    127   1    112.7000    488.2728
    105    103    127   1    111.1000    527.1840
    103    104    117   1    110.7000    313.8000
    103    104    118   1    110.7000    313.8000
    103    104    119   1    110.7000    313.8000
    117    104    118   1    107.8000    276.1440
    117    104    119   1    107.8000    276.1440
    118    104    119   1    107.8000    276.1440
    103    105    106   1    120.4000    669.4400
    103    105    107   1    111.4000    677.8080
    106    105    107   1    123.4000    694.5440
    105    107    108   1    116.9000    694.5440
    107    108    109   1    111.8570    711.2800
    107    108    120   1    109.5000    292.8800
    107    108    121   1    109.5000    292.8800
    109    108    120   1    109.5000    292.8800
    109    108    121   1    109.5000    292.8800
    120    108    121   1    107.8000    276.1440
    108    109    110   1    120.0000    585.7600
    108    109    114   1    120.0000    585.7600
    110    109    114   1    120.0000    527.1840
    109    110    111   1    120.0000    527.1840
    109    110    122   1    120.0000    292.8800
    111    110    122   1    120.0000    292.8800
    110    111    112   1    120.0000    527.1840
    110    111    123   1    120.0000    292.8800
    112    111    123   1    120.0000    292.8800
    111    112    113   1    120.0000    527.1840
    111    112    124   1    120.0000    292.8800
    113    112    124   1    120.0000    292.8800
    112    113    114   1    120.0000    527.1840
    112    113    125   1    120.0000    292.8800
    114    113    125   1    120.0000    292.8800
    109    114    113   1    120.0000    527.1840
    109    114    126   1    120.0000    292.8800
    113    114    126   1    120.0000    292.8800
    103    127    128   1    112.7000    488.2728
    103    127    140   1    110.7000    313.8000
    103    127    141   1    110.7000    313.8000
    128    127    140   1    110.7000    313.8000
    128    127    141   1    110.7000    313.8000
    140    127    141   1    107.8000    276.1440
    127    128    129   1    112.7000    488.2728
    127    128    130   1    111.1000    527.1840
    127    128    152   1    112.7000    488.2728
    129    128    130   1    111.1000    527.1840
    129    128    152   1    112.7000    488.2728
    130    128    152   1    111.1000    527.1840
    128    129    142   1    110.7000    313.8000
    128    129    143   1    110.7000    313.8000
    128    129    144   1    110.7000    313.8000
    142    129    143   1    107.8000    276.1440
    142    129    144   1    107.8000    276.1440
    143    129    144   1    107.8000    276.1440
    128    130    131   1    120.4000    669.4400
    128    130    132   1    111.4000    677.8080
    131    130    132   1    123.4000    694.5440
    130    132    133   1    116.9000    694.5440
    132    133    134   1    111.8570    711.2800
    132    133    145   1    109.5000    292.8800
    132    133    146   1    109.5000    292.8800
    134    133    145   1    109.5000    292.8800
    134    133    146   1    109.5000    292.8800
    145    133    146   1    107.8000    276.1440
    133    134    135   1    120.0000    585.7600
    133    134    139   1    120.0000    585.7600
    135    134    139   1    120.0000    527.1840
    134    135    136   1    120.0000    527.1840
    134    135    147   1    120.0000    292.8800
    136    135    147   1    120.0000    292.8800
    135    136    137   1    120.0000    527.1840
    135    136    148   1    120.0000    292.8800
    137    136    148   1    120.0000    292.8800
    136    137    138   1    120.0000    527.1840
    136    137    149   1    120.0000    292.8800
    138    137    149   1    120.0000    292.8800
    137    138    139   1    120.0000    527.1840
    137    138    150   1    120.0000    292.8800
    139    138    150   1    120.0000    292.8800
    134    139    138   1    120.0000    527.1840
    134    139    151   1    120.0000    292.8800
    138    139    151   1    120.0000    292.8800
    128    152    153   1    112.7000    488.2728
    128    152    165   1    110.7000    313.8000
    128    152    166   1    110.7000    313.8000
    153    152    165   1    110.7000    313.8000
    153    152    166   1    110.7000    313.8000
    165    152    166   1    107.8000    276.1440
    152    153    154   1    112.7000    488.2728
    152    153    155   1    111.1000    527.1840
    152    153    177   1    112.7000    488.2728
    154    153    155   1    111.1000    527.1840
    154    153    177   1    112.7000    488.2728
    155    153    177   1    111.1000    527.1840
    153    154    167   1    110.7000    313.8000
    153    154    168   1    110.7000    313.8000
    153    154    169   1    110.7000    313.8000
    167    154    168   1    107.8000    276.1440
    167    154    169   1    107.8000    276.1440
    168    154    169   1    107.8000    276.1440
    153    155    156   1    120.4000    669.4400
    153    155    157   1    111.4000    677.8080
    156    155    157   1    123.4000    694.5440
    155    157    158   1    116.9000    694.5440
    157    158    159   1    111.8570    711.2800
    157    158    170   1    109.5000    292.8800
    157    158    171   1    109.5000    292.8800
    159    158    170   1    109.5000    292.8800
    159    158    171   1    109.5000    292.8800
    170    158    171   1    107.8000    276.1440
    158    159    160   1    120.0000    585.7600
    158    159    164   1    120.0000    585.7600
    160    159    164   1    120.0000    527.1840
    159    160    161   1    120.0000    527.1840
    159    160    172   1    120.0000    292.8800
    161    160    172   1    120.0000    292.8800
    160    161    162   1    120.0000    527.1840
    160    161    173   1    120.0000    292.8800
    162    161    173   1    120.0000    292.8800
    161    162    163   1    120.0000    527.1840
    161    162    174   1    120.0000    292.8800
    163    162    174   1    120.0000    292.8800
    162    163    164   1    120.0000    527.1840
    162    163    175   1    120.0000    292.8800
    164    163    175   1    120.0000    292.8800
    159    164    163   1    120.0000    527.1840
    159    164    176   1    120.0000    292.8800
    163    164    176   1    120.0000    292.8800
    153    177    178   1    112.7000    488.2728
    153    177    190   1    110.7000    313.8000
    153    177    191   1    110.7000    313.8000
    178    177    190   1    110.7000    313.8000
    178    177    191   1    110.7000    313.8000
    190    177    191   1    107.8000    276.1440
    177    178    179   1    112.7000    488.2728
    177    178    180   1    111.1000    527.1840
    177    178    202   1    112.7000    488.2728
    179    178    180   1    111.1000    527.1840
    179    178    202   1    112.7000    488.2728
    180    178    202   1    111.1000    527.1840
    178    179    192   1    110.7000    313.8000
    178    179    193   1    110.7000    313.8000
    178    179    194   1    110.7000    313.8000
    192    179    193   1    107.8000    276.1440
    192    179    194   1    107.8000    276.1440
    193    179    194   1    107.8000    276.1440
    178    180    181   1    120.4000    669.4400
    178    180    182   1    111.4000    677.8080
    181    180    182   1    123.4000    694.5440
    180    182    183   1    116.9000    694.5440
    182    183    184   1    111.8570    711.2800
    182    183    195   1    109.5000    292.8800
    182    183    196   1    109.5000    292.8800
    184    183    195   1    109.5000    292.8800
    184    183    196   1    109.5000    292.8800
    195    183    196   1    107.8000    276.1440
    183    184    185   1    120.0000    585.7600
    183    184    189   1    120.0000    585.7600
    185    184    189   1    120.0000    527.1840
    184    185    186   1    120.0000    527.1840
    184    185    197   1    120.0000    292.8800
    186    185    197   1    120.0000    292.8800
    185    186    187   1    120.0000    527.1840
    185    186    198   1    120.0000    292.8800
    187    186    198   1    120.0000    292.8800
    186    187    188   1    120.0000    527.1840
    186    187    199   1    120.0000    292.8800
    188    187    199   1    120.0000    292.8800
    187    188    189   1    120.0000    527.1840
    187    188    200   1    120.0000    292.8800
    189    188    200   1    120.0000    292.8800
    184    189    188   1    120.0000    527.1840
    184    189    201   1    120.0000    292.8800
    188    189    201   1    120.0000    292.8800
    178    202    203   1    112.7000    488.2728
    178    202    215   1    110.7000    313.8000
    178    202    216   1    110.7000    313.8000
    203    202    215   1    110.7000    313.8000
    203    202    216   1    110.7000    313.8000
    215    202    216   1    107.8000    276.1440
    202    203    204   1    112.7000    488.2728
    202    203    205   1    111.1000    527.1840
    202    203    227   1    112.7000    488.2728
    204    203    205   1    111.1000    527.1840
    204    203    227   1    112.7000    488.2728
    205    203    227   1    111.1000    527.1840
    203    204    217   1    110.7000    313.8000
    203    204    218   1    110.7000    313.8000
    203    204    219   1    110.7000    313.8000
    217    204    218   1    107.8000    276.1440
    217    204    219   1    107.8000    276.1440
    218    204    219   1    107.8000    276.1440
    203    205    206   1    120.4000    669.4400
    203    205    207   1    111.4000    677.8080
    206    205    207   1    123.4000    694.5440
    205    207    208   1    116.9000    694.5440
    207    208    209   1    111.8570    711.2800
    207    208    220   1    109.5000    292.8800
    207    208    221   1    109.5000    292.8800
    209    208    220   1    109.5000    292.8800
    209    208    221   1    109.5000    292.8800
    220    208    221   1    107.8000    276.1440
    208    209    210   1    120.0000    585.7600
    208    209    214   1    120.0000    585.7600
    210    209    214   1    120.0000    527.1840
    209    210    211   1    120.0000    527.1840
    209    210    222   1    120.0000    292.8800
    211    210    222   1    120.0000    292.8800
    210    211    212   1    120.0000    527.1840
    210    211    223   1    120.0000    292.8800
    212    211    223   1    120.0000    292.8800
    211    212    213   1    120.0000    527.1840
    211    212    224   1    120.0000    292.8800
    213    212    224   1    120.0000    292.8800
    212    213    214   1    120.0000    527.1840
    212    213    225   1    120.0000    292.8800
    214    213    225   1    120.0000    292.8800
    209    214    213   1    120.0000    527.1840
    209    214    226   1    120.0000    292.8800
    213    214    226   1    120.0000    292.8800
    203    227    228   1    112.7000    488.2728
    203    227    240   1    110.7000    313.8000
    203    227    241   1    110.7000    313.8000
    228    227    240   1    110.7000    313.8000
    228    227    241   1    110.7000    313.8000
    240    227    241   1    107.8000    276.1440
    227    228    229   1    112.7000    488.2728
    227    228    230   1    111.1000    527.1840
    227    228    252   1    112.7000    488.2728
    229    228    230   1    111.1000    527.1840
    229    228    252   1    112.7000    488.2728
    230    228    252   1    111.1000    527.1840
    228    229    242   1    110.7000    313.8000
    228    229    243   1    110.7000    313.8000
    228    229    244   1    110.7000    313.8000
    242    229    243   1    107.8000    276.1440
    242    229    244   1    107.8000    276.1440
    243    229    244   1    107.8000    276.1440
    228    230    231   1    120.4000    669.4400
    228    230    232   1    111.4000    677.8080
    231    230    232   1    123.4000    694.5440
    230    232    233   1    116.9000    694.5440
    232    233    234   1    111.8570    711.2800
    232    233    245   1    109.5000    292.8800
    232    233    246   1    109.5000    292.8800
    234    233    245   1    109.5000    292.8800
    234    233    246   1    109.5000    292.8800
    245    233    246   1    107.8000    276.1440
    233    234    235   1    120.0000    585.7600
    233    234    239   1    120.0000    585.7600
    235    234    239   1    120.0000    527.1840
    234    235    236   1    120.0000    527.1840
    234    235    247   1    120.0000    292.8800
    236    235    247   1    120.0000    292.8800
    235    236    237   1    120.0000    527.1840
    235    236    248   1    120.0000    292.8800
    237    236    248   1    120.0000    292.8800
    236    237    238   1    120.0000    527.1840
    236    237    249   1    120.0000    292.8800
    238    237    249   1    120.0000    292.8800
    237    238    239   1    120.0000    527.1840
    237    238    250   1    120.0000    292.8800
    239    238    250   1    120.0000    292.8800
    234    239    238   1    120.0000    527.1840
    234    239    251   1    120.0000    292.8800
    238    239    251   1    120.0000    292.8800
    228    252    253   1    112.7000    488.2728
    228    252    265   1    110.7000    313.8000
    228    252    266   1    110.7000    313.8000
    253    252    265   1    110.7000    313.8000
    253    252    266   1    110.7000    313.8000
    265    252    266   1    107.8000    276.1440
    252    253    254   1    112.7000    488.2728
    252    253    255   1    111.1000    527.1840
    252    253    277   1    112.7000    488.2728
    254    253    255   1    111.1000    527.1840
    254    253    277   1    112.7000    488.2728
    255    253    277   1    111.1000    527.1840
    253    254    267   1    110.7000    313.8000
    253    254    268   1    110.7000    313.8000
    253    254    269   1    110.7000    313.8000
    267    254    268   1    107.8000    276.1440
    267    254    269   1    107.8000    276.1440
    268    254    269   1    107.8000    276.1440
    253    255    256   1    120.4000    669.4400
    253    255    257   1    111.4000    677.8080
    256    255    257   1    123.4000    694.5440
    255    257    258   1    116.9000    694.5440
    257    258    259   1    111.8570    711.2800
    257    258    270   1    109.5000    292.8800
    257    258    271   1    109.5000    292.8800
    259    258    270   1    109.5000    292.8800
    259    258    271   1    109.5000    292.8800
    270    258    271   1    107.8000    276.1440
    258    259    260   1    120.0000    585.7600
    258    259    264   1    120.0000    585.7600
    260    259    264   1    120.0000    527.1840
    259    260    261   1    120.0000    527.1840
    259    260    272   1    120.0000    292.8800
    261    260    272   1    120.0000    292.8800
    260    261    262   1    120.0000    527.1840
    260    261    273   1    120.0000    292.8800
    262    261    273   1    120.0000    292.8800
    261    262    263   1    120.0000    527.1840
    261    262    274   1    120.0000    292.8800
    263    262    274   1    120.0000    292.8800
    262    263    264   1    120.0000    527.1840
    262    263    275   1    120.0000    292.8800
    264    263    275   1    120.0000    292.8800
    259    264    263   1    120.0000    527.1840
    259    264    276   1    120.0000    292.8800
    263    264    276   1    120.0000    292.8800
    253    277    278   1    112.7000    488.2728
    253    277    290   1    110.7000    313.8000
    253    277    291   1    110.7000    313.8000
    278    277    290   1    110.7000    313.8000
    278    277    291   1    110.7000    313.8000
    290    277    291   1    107.8000    276.1440
    277    278    279   1    112.7000    488.2728
    277    278    280   1    111.1000    527.1840
    277    278    302   1    112.7000    488.2728
    279    278    280   1    111.1000    527.1840
    279    278    302   1    112.7000    488.2728
    280    278    302   1    111.1000    527.1840
    278    279    292   1    110.7000    313.8000
    278    279    293   1    110.7000    313.8000
    278    279    294   1    110.7000    313.8000
    292    279    293   1    107.8000    276.1440
    292    279    294   1    107.8000    276.1440
    293    279    294   1    107.8000    276.1440
    278    280    281   1    120.4000    669.4400
    278    280    282   1    111.4000    677.8080
    281    280    282   1    123.4000    694.5440
    280    282    283   1    116.9000    694.5440
    282    283    284   1    111.8570    711.2800
    282    283    295   1    109.5000    292.8800
    282    283    296   1    109.5000    292.8800
    284    283    295   1    109.5000    292.8800
    284    283    296   1    109.5000    292.8800
    295    283    296   1    107.8000    276.1440
    283    284    285   1    120.0000    585.7600
    283    284    289   1    120.0000    585.7600
    285    284    289   1    120.0000    527.1840
    284    285    286   1    120.0000    527.1840
    284    285    297   1    120.0000    292.8800
    286    285    297   1    120.0000    292.8800
    285    286    287   1    120.0000    527.1840
    285    286    298   1    120.0000    292.8800
    287    286    298   1    120.0000    292.8800
    286    287    288   1    120.0000    527.1840
    286    287    299   1    120.0000    292.8800
    288    287    299   1    120.0000    292.8800
    287    288    289   1    120.0000    527.1840
    287    288    300   1    120.0000    292.8800
    289    288    300   1    120.0000    292.8800
    284    289    288   1    120.0000    527.1840
    284    289    301   1    120.0000    292.8800
    288    289    301   1    120.0000    292.8800
    278    302    303   1    112.7000    488.2728
    278    302    315   1    110.7000    313.8000
    278    302    316   1    110.7000    313.8000
    303    302    315   1    110.7000    313.8000
    303    302    316   1    110.7000    313.8000
    315    302    316   1    107.8000    276.1440
    302    303    304   1    112.7000    488.2728
    302    303    305   1    111.1000    527.1840
    302    303    327   1    112.7000    488.2728
    304    303    305   1    111.1000    527.1840
    304    303    327   1    112.7000    488.2728
    305    303    327   1    111.1000    527.1840
    303    304    317   1    110.7000    313.8000
    303    304    318   1    110.7000    313.8000
    303    304    319   1    110.7000    313.8000
    317    304    318   1    107.8000    276.1440
    317    304    319   1    107.8000    276.1440
    318    304    319   1    107.8000    276.1440
    303    305    306   1    120.4000    669.4400
    303    305    307   1    111.4000    677.8080
    306    305    307   1    123.4000    694.5440
    305    307    308   1    116.9000    694.5440
    307    308    309   1    111.8570    711.2800
    307    308    320   1    109.5000    292.8800
    307    308    321   1    109.5000    292.8800
    309    308    320   1    109.5000    292.8800
    309    308    321   1    109.5000    292.8800
    320    308    321   1    107.8000    276.1440
    308    309    310   1    120.0000    585.7600
    308    309    314   1    120.0000    585.7600
    310    309    314   1    120.0000    527.1840
    309    310    311   1    120.0000    527.1840
    309    310    322   1    120.0000    292.8800
    311    310    322   1    120.0000    292.8800
    310    311    312   1    120.0000    527.1840
    310    311    323   1    120.0000    292.8800
    312    311    323   1    120.0000    292.8800
    311    312    313   1    120.0000    527.1840
    311    312    324   1    120.0000    292.8800
    313    312    324   1    120.0000    292.8800
    312    313    314   1    120.0000    527.1840
    312    313    325   1    120.0000    292.8800
    314    313    325   1    120.0000    292.8800
    309    314    313   1    120.0000    527.1840
    309    314    326   1    120.0000    292.8800
    313    314    326   1    120.0000    292.8800
    303    327    328   1    112.7000    488.2728
    303    327    340   1    110.7000    313.8000
    303    327    341   1    110.7000    313.8000
    328    327    340   1    110.7000    313.8000
    328    327    341   1    110.7000    313.8000
    340    327    341   1    107.8000    276.1440
    327    328    329   1    112.7000    488.2728
    327    328    330   1    111.1000    527.1840
    327    328    352   1    112.7000    488.2728
    329    328    330   1    111.1000    527.1840
    329    328    352   1    112.7000    488.2728
    330    328    352   1    111.1000    527.1840
    328    329    342   1    110.7000    313.8000
    328    329    343   1    110.7000    313.8000
    328    329    344   1    110.7000    313.8000
    342    329    343   1    107.8000    276.1440
    342    329    344   1    107.8000    276.1440
    343    329    344   1    107.8000    276.1440
    328    330    331   1    120.4000    669.4400
    328    330    332   1    111.4000    677.8080
    331    330    332   1    123.4000    694.5440
    330    332    333   1    116.9000    694.5440
    332    333    334   1    111.8570    711.2800
    332    333    345   1    109.5000    292.8800
    332    333    346   1    109.5000    292.8800
    334    333    345   1    109.5000    292.8800
    334    333    346   1    109.5000    292.8800
    345    333    346   1    107.8000    276.1440
    333    334    335   1    120.0000    585.7600
    333    334    339   1    120.0000    585.7600
    335    334    339   1    120.0000    527.1840
    334    335    336   1    120.0000    527.1840
    334    335    347   1    120.0000    292.8800
    336    335    347   1    120.0000    292.8800
    335    336    337   1    120.0000    527.1840
    335    336    348   1    120.0000    292.8800
    337    336    348   1    120.0000    292.8800
    336    337    338   1    120.0000    527.1840
    336    337    349   1    120.0000    292.8800
    338    337    349   1    120.0000    292.8800
    337    338    339   1    120.0000    527.1840
    337    338    350   1    120.0000    292.8800
    339    338    350   1    120.0000    292.8800
    334    339    338   1    120.0000    527.1840
    334    339    351   1    120.0000    292.8800
    338    339    351   1    120.0000    292.8800
    328    352    353   1    112.7000    488.2728
    328    352    365   1    110.7000    313.8000
    328    352    366   1    110.7000    313.8000
    353    352    365   1    110.7000    313.8000
    353    352    366   1    110.7000    313.8000
    365    352    366   1    107.8000    276.1440
    352    353    354   1    112.7000    488.2728
    352    353    355   1    111.1000    527.1840
    352    353    377   1    112.7000    488.2728
    354    353    355   1    111.1000    527.1840
    354    353    377   1    112.7000    488.2728
    355    353    377   1    111.1000    527.1840
    353    354    367   1    110.7000    313.8000
    353    354    368   1    110.7000    313.8000
    353    354    369   1    110.7000    313.8000
    367    354    368   1    107.8000    276.1440
    367    354    369   1    107.8000    276.1440
    368    354    369   1    107.8000    276.1440
    353    355    356   1    120.4000    669.4400
    353    355    357   1    111.4000    677.8080
    356    355    357   1    123.4000    694.5440
    355    357    358   1    116.9000    694.5440
    357    358    359   1    111.8570    711.2800
    357    358    370   1    109.5000    292.8800
    357    358    371   1    109.5000    292.8800
    359    358    370   1    109.5000    292.8800
    359    358    371   1    109.5000    292.8800
    370    358    371   1    107.8000    276.1440
    358    359    360   1    120.0000    585.7600
    358    359    364   1    120.0000    585.7600
    360    359    364   1    120.0000    527.1840
    359    360    361   1    120.0000    527.1840
    359    360    372   1    120.0000    292.8800
    361    360    372   1    120.0000    292.8800
    360    361    362   1    120.0000    527.1840
    360    361    373   1    120.0000    292.8800
    362    361    373   1    120.0000    292.8800
    361    362    363   1    120.0000    527.1840
    361    362    374   1    120.0000    292.8800
    363    362    374   1    120.0000    292.8800
    362    363    364   1    120.0000    527.1840
    362    363    375   1    120.0000    292.8800
    364    363    375   1    120.0000    292.8800
    359    364    363   1    120.0000    527.1840
    359    364    376   1    120.0000    292.8800
    363    364    376   1    120.0000    292.8800
    353    377    378   1    112.7000    488.2728
    353    377    390   1    110.7000    313.8000
    353    377    391   1    110.7000    313.8000
    378    377    390   1    110.7000    313.8000
    378    377    391   1    110.7000    313.8000
    390    377    391   1    107.8000    276.1440
    377    378    379   1    112.7000    488.2728
    377    378    380   1    111.1000    527.1840
    377    378    402   1    112.7000    488.2728
    379    378    380   1    111.1000    527.1840
    379    378    402   1    112.7000    488.2728
    380    378    402   1    111.1000    527.1840
    378    379    392   1    110.7000    313.8000
    378    379    393   1    110.7000    313.8000
    378    379    394   1    110.7000    313.8000
    392    379    393   1    107.8000    276.1440
    392    379    394   1    107.8000    276.1440
    393    379    394   1    107.8000    276.1440
    378    380    381   1    120.4000    669.4400
    378    380    382   1    111.4000    677.8080
    381    380    382   1    123.4000    694.5440
    380    382    383   1    116.9000    694.5440
    382    383    384   1    111.8570    711.2800
    382    383    395   1    109.5000    292.8800
    382    383    396   1    109.5000    292.8800
    384    383    395   1    109.5000    292.8800
    384    383    396   1    109.5000    292.8800
    395    383    396   1    107.8000    276.1440
    383    384    385   1    120.0000    585.7600
    383    384    389   1    120.0000    585.7600
    385    384    389   1    120.0000    527.1840
    384    385    386   1    120.0000    527.1840
    384    385    397   1    120.0000    292.8800
    386    385    397   1    120.0000    292.8800
    385    386    387   1    120.0000    527.1840
    385    386    398   1    120.0000    292.8800
    387    386    398   1    120.0000    292.8800
    386    387    388   1    120.0000    527.1840
    386    387    399   1    120.0000    292.8800
    388    387    399   1    120.0000    292.8800
    387    388    389   1    120.0000    527.1840
    387    388    400   1    120.0000    292.8800
    389    388    400   1    120.0000    292.8800
    384    389    388   1    120.0000    527.1840
    384    389    401   1    120.0000    292.8800
    388    389    401   1    120.0000    292.8800
    378    402    403   1    112.7000    488.2728
    378    402    415   1    110.7000    313.8000
    378    402    416   1    110.7000    313.8000
    403    402    415   1    110.7000    313.8000
    403    402    416   1    110.7000    313.8000
    415    402    416   1    107.8000    276.1440
    402    403    404   1    112.7000    488.2728
    402    403    405   1    111.1000    527.1840
    402    403    427   1    112.7000    488.2728
    404    403    405   1    111.1000    527.1840
    404    403    427   1    112.7000    488.2728
    405    403    427   1    111.1000    527.1840
    403    404    417   1    110.7000    313.8000
    403    404    418   1    110.7000    313.8000
    403    404    419   1    110.7000    313.8000
    417    404    418   1    107.8000    276.1440
    417    404    419   1    107.8000    276.1440
    418    404    419   1    107.8000    276.1440
    403    405    406   1    120.4000    669.4400
    403    405    407   1    111.4000    677.8080
    406    405    407   1    123.4000    694.5440
    405    407    408   1    116.9000    694.5440
    407    408    409   1    111.8570    711.2800
    407    408    420   1    109.5000    292.8800
    407    408    421   1    109.5000    292.8800
    409    408    420   1    109.5000    292.8800
    409    408    421   1    109.5000    292.8800
    420    408    421   1    107.8000    276.1440
    408    409    410   1    120.0000    585.7600
    408    409    414   1    120.0000    585.7600
    410    409    414   1    120.0000    527.1840
    409    410    411   1    120.0000    527.1840
    409    410    422   1    120.0000    292.8800
    411    410    422   1    120.0000    292.8800
    410    411    412   1    120.0000    527.1840
    410    411    423   1    120.0000    292.8800
    412    411    423   1    120.0000    292.8800
    411    412    413   1    120.0000    527.1840
    411    412    424   1    120.0000    292.8800
    413    412    424   1    120.0000    292.8800
    412    413    414   1    120.0000    527.1840
    412    413    425   1    120.0000    292.8800
    414    413    425   1    120.0000    292.8800
    409    414    413   1    120.0000    527.1840
    409    414    426   1    120.0000    292.8800
    413    414    426   1    120.0000    292.8800
    403    427    428   1    112.7000    488.2728
    403    427    440   1    110.7000    313.8000
    403    427    441   1    110.7000    313.8000
    428    427    440   1    110.7000    313.8000
    428    427    441   1    110.7000    313.8000
    440    427    441   1    107.8000    276.1440
    427    428    429   1    112.7000    488.2728
    427    428    430   1    111.1000    527.1840
    427    428    452   1    112.7000    488.2728
    429    428    430   1    111.1000    527.1840
    429    428    452   1    112.7000    488.2728
    430    428    452   1    111.1000    527.1840
    428    429    442   1    110.7000    313.8000
    428    429    443   1    110.7000    313.8000
    428    429    444   1    110.7000    313.8000
    442    429    443   1    107.8000    276.1440
    442    429    444   1    107.8000    276.1440
    443    429    444   1    107.8000    276.1440
    428    430    431   1    120.4000    669.4400
    428    430    432   1    111.4000    677.8080
    431    430    432   1    123.4000    694.5440
    430    432    433   1    116.9000    694.5440
    432    433    434   1    111.8570    711.2800
    432    433    445   1    109.5000    292.8800
    432    433    446   1    109.5000    292.8800
    434    433    445   1    109.5000    292.8800
    434    433    446   1    109.5000    292.8800
    445    433    446   1    107.8000    276.1440
    433    434    435   1    120.0000    585.7600
    433    434    439   1    120.0000    585.7600
    435    434    439   1    120.0000    527.1840
    434    435    436   1    120.0000    527.1840
    434    435    447   1    120.0000    292.8800
    436    435    447   1    120.0000    292.8800
    435    436    437   1    120.0000    527.1840
    435    436    448   1    120.0000    292.8800
    437    436    448   1    120.0000    292.8800
    436    437    438   1    120.0000    527.1840
    436    437    449   1    120.0000    292.8800
    438    437    449   1    120.0000    292.8800
    437    438    439   1    120.0000    527.1840
    437    438    450   1    120.0000    292.8800
    439    438    450   1    120.0000    292.8800
    434    439    438   1    120.0000    527.1840
    434    439    451   1    120.0000    292.8800
    438    439    451   1    120.0000    292.8800
    428    452    453   1    112.7000    488.2728
    428    452    465   1    110.7000    313.8000
    428    452    466   1    110.7000    313.8000
    453    452    465   1    110.7000    313.8000
    453    452    466   1    110.7000    313.8000
    465    452    466   1    107.8000    276.1440
    452    453    454   1    112.7000    488.2728
    452    453    455   1    111.1000    527.1840
    452    453    477   1    112.7000    488.2728
    454    453    455   1    111.1000    527.1840
    454    453    477   1    112.7000    488.2728
    455    453    477   1    111.1000    527.1840
    453    454    467   1    110.7000    313.8000
    453    454    468   1    110.7000    313.8000
    453    454    469   1    110.7000    313.8000
    467    454    468   1    107.8000    276.1440
    467    454    469   1    107.8000    276.1440
    468    454    469   1    107.8000    276.1440
    453    455    456   1    120.4000    669.4400
    453    455    457   1    111.4000    677.8080
    456    455    457   1    123.4000    694.5440
    455    457    458   1    116.9000    694.5440
    457    458    459   1    111.8570    711.2800
    457    458    470   1    109.5000    292.8800
    457    458    471   1    109.5000    292.8800
    459    458    470   1    109.5000    292.8800
    459    458    471   1    109.5000    292.8800
    470    458    471   1    107.8000    276.1440
    458    459    460   1    120.0000    585.7600
    458    459    464   1    120.0000    585.7600
    460    459    464   1    120.0000    527.1840
    459    460    461   1    120.0000    527.1840
    459    460    472   1    120.0000    292.8800
    461    460    472   1    120.0000    292.8800
    460    461    462   1    120.0000    527.1840
    460    461    473   1    120.0000    292.8800
    462    461    473   1    120.0000    292.8800
    461    462    463   1    120.0000    527.1840
    461    462    474   1    120.0000    292.8800
    463    462    474   1    120.0000    292.8800
    462    463    464   1    120.0000    527.1840
    462    463    475   1    120.0000    292.8800
    464    463    475   1    120.0000    292.8800
    459    464    463   1    120.0000    527.1840
    459    464    476   1    120.0000    292.8800
    463    464    476   1    120.0000    292.8800
    453    477    478   1    112.7000    488.2728
    453    477    490   1    110.7000    313.8000
    453    477    491   1    110.7000    313.8000
    478    477    490   1    110.7000    313.8000
    478    477    491   1    110.7000    313.8000
    490    477    491   1    107.8000    276.1440
    477    478    479   1    112.7000    488.2728
    477    478    480   1    111.1000    527.1840
    477    478    502   1    110.7000    313.8000
    479    478    480   1    111.1000    527.1840
    479    478    502   1    110.7000    313.8000
    480    478    502   1    109.5000    292.8800
    478    479    492   1    110.7000    313.8000
    478    479    493   1    110.7000    313.8000
    478    479    494   1    110.7000    313.8000
    492    479    493   1    107.8000    276.1440
    492    479    494   1    107.8000    276.1440
    493    479    494   1    107.8000    276.1440
    478    480    481   1    120.4000    669.4400
    478    480    482   1    111.4000    677.8080
    481    480    482   1    123.4000    694.5440
    480    482    483   1    116.9000    694.5440
    482    483    484   1    111.8570    711.2800
    482    483    495   1    109.5000    292.8800
    482    483    496   1    109.5000    292.8800
    484    483    495   1    109.5000    292.8800
    484    483    496   1    109.5000    292.8800
    495    483    496   1    107.8000    276.1440
    483    484    485   1    120.0000    585.7600
    483    484    489   1    120.0000    585.7600
    485    484    489   1    120.0000    527.1840
    484    485    486   1    120.0000    527.1840
    484    485    497   1    120.0000    292.8800
    486    485    497   1    120.0000    292.8800
    485    486    487   1    120.0000    527.1840
    485    486    498   1    120.0000    292.8800
    487    486    498   1    120.0000    292.8800
    486    487    488   1    120.0000    527.1840
    486    487    499   1    120.0000    292.8800
    488    487    499   1    120.0000    292.8800
    487    488    489   1    120.0000    527.1840
    487    488    500   1    120.0000    292.8800
    489    488    500   1    120.0000    292.8800
    484    489    488   1    120.0000    527.1840
    484    489    501   1    120.0000    292.8800
    488    489    501   1    120.0000    292.8800

[ dihedrals ]
; Proper dihedrals
     14      1      2      3   5     0.00000     0.00000     1.25520  0.0
     14      1      2      4   5     0.00000     0.00000    -0.94140  0.0
     14      1      2     27   5     0.00000     0.00000     1.25520  0.0
     15      1      2      3   5     0.00000     0.00000     1.25520  0.0
     15      1      2      4   5     0.00000     0.00000    -0.94140  0.0
     15      1      2     27   5     0.00000     0.00000     1.25520  0.0
     26      1      2      3   5     0.00000     0.00000     1.25520  0.0
     26      1      2      4   5     0.00000     0.00000    -0.94140  0.0
     26      1      2     27   5     0.00000     0.00000     1.25520  0.0
      1      2      3     16   5     0.00000     0.00000     1.25520  0.0
      1      2      3     17   5     0.00000     0.00000     1.25520  0.0
      1      2      3     18   5     0.00000     0.00000     1.25520  0.0
      4      2      3     16   5     0.00000     0.00000    -0.94140  0.0
      4      2      3     17   5     0.00000     0.00000    -0.94140  0.0
      4      2      3     18   5     0.00000     0.00000    -0.94140  0.0
     27      2      3     16   5     0.00000     0.00000     1.25520  0.0
     27      2      3     17   5     0.00000     0.00000     1.25520  0.0
     27      2      3     18   5     0.00000     0.00000     1.25520  0.0
      1      2      4      5   5     0.00000     2.52295     0.00000  0.0
      1      2      4      6   5     0.00000     0.00000     3.07524  0.0
      3      2      4      5   5     0.00000     2.52295     0.00000  0.0
      3      2      4      6   5     0.00000     0.00000     3.07524  0.0
     27      2      4      5   5     0.00000     2.52295     0.00000  0.0
     27      2      4      6   5     0.00000     0.00000     3.07524  0.0
      1      2     27     28   5     4.74884    -0.63178     1.67360  0.0
      1      2     27     40   5     0.00000     0.00000     1.25520  0.0
      1      2     27     41   5     0.00000     0.00000     1.25520  0.0
      3      2     27     28   5     4.74884    -0.63178     1.67360  0.0
      3      2     27     40   5     0.00000     0.00000     1.25520  0.0
      3      2     27     41   5     0.00000     0.00000     1.25520  0.0
      4      2     27     28   5    -8.00818    -1.52298     2.46438  0.0
      4      2     27     40   5     0.00000     0.00000    -0.94140  0.0
      4      2     27     41   5     0.00000     0.00000    -0.94140  0.0
      2      4      6      7   5    13.65239    24.43456     0.00000  0.0
      5      4      6      7   5     0.00000    25.10400     0.00000  0.0
      4      6      7      8   5     0.00000    -3.67355     1.17989  0.0
      4      6      7     19   5     0.00000     0.00000     0.67362  0.0
      4      6      7     20   5     0.00000     0.00000     0.67362  0.0
      6      7      8      9   5     5.39736     1.23846     1.72799  0.0
      6      7      8     13   5     5.39736     1.23846     1.72799  0.0
     19      7      8      9   5     0.00000     0.00000     0.00000  0.0
     19      7      8     13   5     0.00000     0.00000     0.00000  0.0
     20      7      8      9   5     0.00000     0.00000     0.00000  0.0
     20      7      8     13   5     0.00000     0.00000     0.00000  0.0
      7      8      9     10   5     0.00000    30.33400     0.00000  0.0
      7      8      9     21   5     0.00000    30.33400     0.00000  0.0
     13      8      9     10   5     0.00000    30.33400     0.00000  0.0
     13      8      9     21   5     0.00000    30.33400     0.00000  0.0
      7      8     13     12   5     0.00000    30.33400     0.00000  0.0
      7      8     13     25   5     0.00000    30.33400     0.00000  0.0
      9      8     13     12   5     0.00000    30.33400     0.00000  0.0
      9      8     13     25   5     0.00000    30.33400     0.00000  0.0
      8      9     10     11   5     0.00000    30.33400     0.00000  0.0
      8      9     10     22   5     0.00000    30.33400     0.00000  0.0
     21      9     10     11   5     0.00000    30.33400     0.00000  0.0
     21      9     10     22   5     0.00000    30.33400     0.00000  0.0
      9     10     11     12   5     0.00000    30.33400     0.00000  0.0
      9     10     11     23   5     0.00000    30.33400     0.00000  0.0
     22     10     11     12   5     0.00000    30.33400     0.00000  0.0
     22     10     11     23   5     0.00000    30.33400     0.00000  0.0
     10     11     12     13   5     0.00000    30.33400     0.00000  0.0
     10     11     12     24   5     0.00000    30.33400     0.00000  0.0
     23     11     12     13   5     0.00000    30.33400     0.00000  0.0
     23     11     12     24   5     0.00000    30.33400     0.00000  0.0
     11     12     13      8   5     0.00000    30.33400     0.00000  0.0
     11     12     13     25   5     0.00000    30.33400     0.00000  0.0
     24     12     13      8   5     0.00000    30.33400     0.00000  0.0
     24     12     13     25   5     0.00000    30.33400     0.00000  0.0
      2     27     28     29   5     4.74884    -0.63178     1.67360  0.0
      2     27     28     30   5    -8.00818    -1.52298     2.46438  0.0
      2     27     28     52   5     4.74884    -0.63178     1.67360  0.0
     40     27     28     29   5     0.00000     0.00000     1.25520  0.0
     40     27     28     30   5     0.00000     0.00000    -0.94140  0.0
     40     27     28     52   5     0.00000     0.00000     1.25520  0.0
     41     27     28     29   5     0.00000     0.00000     1.25520  0.0
     41     27     28     30   5     0.00000     0.00000    -0.94140  0.0
     41     27     28     52   5     0.00000     0.00000     1.25520  0.0
     27     28     29     42   5     0.00000     0.00000     1.25520  0.0
     27     28     29     43   5     0.00000     0.00000     1.25520  0.0
     27     28     29     44   5     0.00000     0.00000     1.25520  0.0
     30     28     29     42   5     0.00000     0.00000    -0.94140  0.0
     30     28     29     43   5     0.00000     0.00000    -0.94140  0.0
     30     28     29     44   5     0.00000     0.00000    -0.94140  0.0
     52     28     29     42   5     0.00000     0.00000     1.25520  0.0
     52     28     29     43   5     0.00000     0.00000     1.25520  0.0
     52     28     29     44   5     0.00000     0.00000     1.25520  0.0
     27     28     30     31   5     0.00000     2.52295     0.00000  0.0
     27     28     30     32   5     0.00000     0.00000     3.07524  0.0
     29     28     30     31   5     0.00000     2.52295     0.00000  0.0
     29     28     30     32   5     0.00000     0.00000     3.07524  0.0
     52     28     30     31   5     0.00000     2.52295     0.00000  0.0
     52     28     30     32   5     0.00000     0.00000     3.07524  0.0
     27     28     52     53   5     4.74884    -0.63178     1.67360  0.0
     27     28     52     65   5     0.00000     0.00000     1.25520  0.0
     27     28     52     66   5     0.00000     0.00000     1.25520  0.0
     29     28     52     53   5     4.74884    -0.63178     1.67360  0.0
     29     28     52     65   5     0.00000     0.00000     1.25520  0.0
     29     28     52     66   5     0.00000     0.00000     1.25520  0.0
     30     28     52     53   5    -8.00818    -1.52298     2.46438  0.0
     30     28     52     65   5     0.00000     0.00000    -0.94140  0.0
     30     28     52     66   5     0.00000     0.00000    -0.94140  0.0
     28     30     32     33   5    13.65239    24.43456     0.00000  0.0
     31     30     32     33   5     0.00000    25.10400     0.00000  0.0
     30     32     33     34   5     0.00000    -3.67355     1.17989  0.0
     30     32     33     45   5     0.00000     0.00000     0.67362  0.0
     30     32     33     46   5     0.00000     0.00000     0.67362  0.0
     32     33     34     35   5     5.39736     1.23846     1.72799  0.0
     32     33     34     39   5     5.39736     1.23846     1.72799  0.0
     45     33     34     35   5     0.00000     0.00000     0.00000  0.0
     45     33     34     39   5     0.00000     0.00000     0.00000  0.0
     46     33     34     35   5     0.00000     0.00000     0.00000  0.0
     46     33     34     39   5     0.00000     0.00000     0.00000  0.0
     33     34     35     36   5     0.00000    30.33400     0.00000  0.0
     33     34     35     47   5     0.00000    30.33400     0.00000  0.0
     39     34     35     36   5     0.00000    30.33400     0.00000  0.0
     39     34     35     47   5     0.00000    30.33400     0.00000  0.0
     33     34     39     38   5     0.00000    30.33400     0.00000  0.0
     33     34     39     51   5     0.00000    30.33400     0.00000  0.0
     35     34     39     38   5     0.00000    30.33400     0.00000  0.0
     35     34     39     51   5     0.00000    30.33400     0.00000  0.0
     34     35     36     37   5     0.00000    30.33400     0.00000  0.0
     34     35     36     48   5     0.00000    30.33400     0.00000  0.0
     47     35     36     37   5     0.00000    30.33400     0.00000  0.0
     47     35     36     48   5     0.00000    30.33400     0.00000  0.0
     35     36     37     38   5     0.00000    30.33400     0.00000  0.0
     35     36     37     49   5     0.00000    30.33400     0.00000  0.0
     48     36     37     38   5     0.00000    30.33400     0.00000  0.0
     48     36     37     49   5     0.00000    30.33400     0.00000  0.0
     36     37     38     39   5     0.00000    30.33400     0.00000  0.0
     36     37     38     50   5     0.00000    30.33400     0.00000  0.0
     49     37     38     39   5     0.00000    30.33400     0.00000  0.0
     49     37     38     50   5     0.00000    30.33400     0.00000  0.0
     37     38     39     34   5     0.00000    30.33400     0.00000  0.0
     37     38     39     51   5     0.00000    30.33400     0.00000  0.0
     50     38     39     34   5     0.00000    30.33400     0.00000  0.0
     50     38     39     51   5     0.00000    30.33400     0.00000  0.0
     28     52     53     54   5     4.74884    -0.63178     1.67360  0.0
     28     52     53     55   5    -8.00818    -1.52298     2.46438  0.0
     28     52     53     77   5     4.74884    -0.63178     1.67360  0.0
     65     52     53     54   5     0.00000     0.00000     1.25520  0.0
     65     52     53     55   5     0.00000     0.00000    -0.94140  0.0
     65     52     53     77   5     0.00000     0.00000     1.25520  0.0
     66     52     53     54   5     0.00000     0.00000     1.25520  0.0
     66     52     53     55   5     0.00000     0.00000    -0.94140  0.0
     66     52     53     77   5     0.00000     0.00000     1.25520  0.0
     52     53     54     67   5     0.00000     0.00000     1.25520  0.0
     52     53     54     68   5     0.00000     0.00000     1.25520  0.0
     52     53     54     69   5     0.00000     0.00000     1.25520  0.0
     55     53     54     67   5     0.00000     0.00000    -0.94140  0.0
     55     53     54     68   5     0.00000     0.00000    -0.94140  0.0
     55     53     54     69   5     0.00000     0.00000    -0.94140  0.0
     77     53     54     67   5     0.00000     0.00000     1.25520  0.0
     77     53     54     68   5     0.00000     0.00000     1.25520  0.0
     77     53     54     69   5     0.00000     0.00000     1.25520  0.0
     52     53     55     56   5     0.00000     2.52295     0.00000  0.0
     52     53     55     57   5     0.00000     0.00000     3.07524  0.0
     54     53     55     56   5     0.00000     2.52295     0.00000  0.0
     54     53     55     57   5     0.00000     0.00000     3.07524  0.0
     77     53     55     56   5     0.00000     2.52295     0.00000  0.0
     77     53     55     57   5     0.00000     0.00000     3.07524  0.0
     52     53     77     78   5     4.74884    -0.63178     1.67360  0.0
     52     53     77     90   5     0.00000     0.00000     1.25520  0.0
     52     53     77     91   5     0.00000     0.00000     1.25520  0.0
     54     53     77     78   5     4.74884    -0.63178     1.67360  0.0
     54     53     77     90   5     0.00000     0.00000     1.25520  0.0
     54     53     77     91   5     0.00000     0.00000     1.25520  0.0
     55     53     77     78   5    -8.00818    -1.52298     2.46438  0.0
     55     53     77     90   5     0.00000     0.00000    -0.94140  0.0
     55     53     77     91   5     0.00000     0.00000    -0.94140  0.0
     53     55     57     58   5    13.65239    24.43456     0.00000  0.0
     56     55     57     58   5     0.00000    25.10400     0.00000  0.0
     55     57     58     59   5     0.00000    -3.67355     1.17989  0.0
     55     57     58     70   5     0.00000     0.00000     0.67362  0.0
     55     57     58     71   5     0.00000     0.00000     0.67362  0.0
     57     58     59     60   5     5.39736     1.23846     1.72799  0.0
     57     58     59     64   5     5.39736     1.23846     1.72799  0.0
     70     58     59     60   5     0.00000     0.00000     0.00000  0.0
     70     58     59     64   5     0.00000     0.00000     0.00000  0.0
     71     58     59     60   5     0.00000     0.00000     0.00000  0.0
     71     58     59     64   5     0.00000     0.00000     0.00000  0.0
     58     59     60     61   5     0.00000    30.33400     0.00000  0.0
     58     59     60     72   5     0.00000    30.33400     0.00000  0.0
     64     59     60     61   5     0.00000    30.33400     0.00000  0.0
     64     59     60     72   5     0.00000    30.33400     0.00000  0.0
     58     59     64     63   5     0.00000    30.33400     0.00000  0.0
     58     59     64     76   5     0.00000    30.33400     0.00000  0.0
     60     59     64     63   5     0.00000    30.33400     0.00000  0.0
     60     59     64     76   5     0.00000    30.33400     0.00000  0.0
     59     60     61     62   5     0.00000    30.33400     0.00000  0.0
     59     60     61     73   5     0.00000    30.33400     0.00000  0.0
     72     60     61     62   5     0.00000    30.33400     0.00000  0.0
     72     60     61     73   5     0.00000    30.33400     0.00000  0.0
     60     61     62     63   5     0.00000    30.33400     0.00000  0.0
     60     61     62     74   5     0.00000    30.33400     0.00000  0.0
     73     61     62     63   5     0.00000    30.33400     0.00000  0.0
     73     61     62     74   5     0.00000    30.33400     0.00000  0.0
     61     62     63     64   5     0.00000    30.33400     0.00000  0.0
     61     62     63     75   5     0.00000    30.33400     0.00000  0.0
     74     62     63     64   5     0.00000    30.33400     0.00000  0.0
     74     62     63     75   5     0.00000    30.33400     0.00000  0.0
     62     63     64     59   5     0.00000    30.33400     0.00000  0.0
     62     63     64     76   5     0.00000    30.33400     0.00000  0.0
     75     63     64     59   5     0.00000    30.33400     0.00000  0.0
     75     63     64     76   5     0.00000    30.33400     0.00000  0.0
     53     77     78     79   5     4.74884    -0.63178     1.67360  0.0
     53     77     78     80   5    -8.00818    -1.52298     2.46438  0.0
     53     77     78    102   5     4.74884    -0.63178     1.67360  0.0
     90     77     78     79   5     0.00000     0.00000     1.25520  0.0
     90     77     78     80   5     0.00000     0.00000    -0.94140  0.0
     90     77     78    102   5     0.00000     0.00000     1.25520  0.0
     91     77     78     79   5     0.00000     0.00000     1.25520  0.0
     91     77     78     80   5     0.00000     0.00000    -0.94140  0.0
     91     77     78    102   5     0.00000     0.00000     1.25520  0.0
     77     78     79     92   5     0.00000     0.00000     1.25520  0.0
     77     78     79     93   5     0.00000     0.00000     1.25520  0.0
     77     78     79     94   5     0.00000     0.00000     1.25520  0.0
     80     78     79     92   5     0.00000     0.00000    -0.94140  0.0
     80     78     79     93   5     0.00000     0.00000    -0.94140  0.0
     80     78     79     94   5     0.00000     0.00000    -0.94140  0.0
    102     78     79     92   5     0.00000     0.00000     1.25520  0.0
    102     78     79     93   5     0.00000     0.00000     1.25520  0.0
    102     78     79     94   5     0.00000     0.00000     1.25520  0.0
     77     78     80     81   5     0.00000     2.52295     0.00000  0.0
     77     78     80     82   5     0.00000     0.00000     3.07524  0.0
     79     78     80     81   5     0.00000     2.52295     0.00000  0.0
     79     78     80     82   5     0.00000     0.00000     3.07524  0.0
    102     78     80     81   5     0.00000     2.52295     0.00000  0.0
    102     78     80     82   5     0.00000     0.00000     3.07524  0.0
     77     78    102    103   5     4.74884    -0.63178     1.67360  0.0
     77     78    102    115   5     0.00000     0.00000     1.25520  0.0
     77     78    102    116   5     0.00000     0.00000     1.25520  0.0
     79     78    102    103   5     4.74884    -0.63178     1.67360  0.0
     79     78    102    115   5     0.00000     0.00000     1.25520  0.0
     79     78    102    116   5     0.00000     0.00000     1.25520  0.0
     80     78    102    103   5    -8.00818    -1.52298     2.46438  0.0
     80     78    102    115   5     0.00000     0.00000    -0.94140  0.0
     80     78    102    116   5     0.00000     0.00000    -0.94140  0.0
     78     80     82     83   5    13.65239    24.43456     0.00000  0.0
     81     80     82     83   5     0.00000    25.10400     0.00000  0.0
     80     82     83     84   5     0.00000    -3.67355     1.17989  0.0
     80     82     83     95   5     0.00000     0.00000     0.67362  0.0
     80     82     83     96   5     0.00000     0.00000     0.67362  0.0
     82     83     84     85   5     5.39736     1.23846     1.72799  0.0
     82     83     84     89   5     5.39736     1.23846     1.72799  0.0
     95     83     84     85   5     0.00000     0.00000     0.00000  0.0
     95     83     84     89   5     0.00000     0.00000     0.00000  0.0
     96     83     84     85   5     0.00000     0.00000     0.00000  0.0
     96     83     84     89   5     0.00000     0.00000     0.00000  0.0
     83     84     85     86   5     0.00000    30.33400     0.00000  0.0
     83     84     85     97   5     0.00000    30.33400     0.00000  0.0
     89     84     85     86   5     0.00000    30.33400     0.00000  0.0
     89     84     85     97   5     0.00000    30.33400     0.00000  0.0
     83     84     89     88   5     0.00000    30.33400     0.00000  0.0
     83     84     89    101   5     0.00000    30.33400     0.00000  0.0
     85     84     89     88   5     0.00000    30.33400     0.00000  0.0
     85     84     89    101   5     0.00000    30.33400     0.00000  0.0
     84     85     86     87   5     0.00000    30.33400     0.00000  0.0
     84     85     86     98   5     0.00000    30.33400     0.00000  0.0
     97     85     86     87   5     0.00000    30.33400     0.00000  0.0
     97     85     86     98   5     0.00000    30.33400     0.00000  0.0
     85     86     87     88   5     0.00000    30.33400     0.00000  0.0
     85     86     87     99   5     0.00000    30.33400     0.00000  0.0
     98     86     87     88   5     0.00000    30.33400     0.00000  0.0
     98     86     87     99   5     0.00000    30.33400     0.00000  0.0
     86     87     88     89   5     0.00000    30.33400     0.00000  0.0
     86     87     88    100   5     0.00000    30.33400     0.00000  0.0
     99     87     88     89   5     0.00000    30.33400     0.00000  0.0
     99     87     88    100   5     0.00000    30.33400     0.00000  0.0
     87     88     89     84   5     0.00000    30.33400     0.00000  0.0
     87     88     89    101   5     0.00000    30.33400     0.00000  0.0
    100     88     89     84   5     0.00000    30.33400     0.00000  0.0
    100     88     89    101   5     0.00000    30.33400     0.00000  0.0
     78    102    103    104   5     4.74884    -0.63178     1.67360  0.0
     78    102    103    105   5    -8.00818    -1.52298     2.46438  0.0
     78    102    103    127   5     4.74884    -0.63178     1.67360  0.0
    115    102    103    104   5     0.00000     0.00000     1.25520  0.0
    115    102    103    105   5     0.00000     0.00000    -0.94140  0.0
    115    102    103    127   5     0.00000     0.00000     1.25520  0.0
    116    102    103    104   5     0.00000     0.00000     1.25520  0.0
    116    102    103    105   5     0.00000     0.00000    -0.94140  0.0
    116    102    103    127   5     0.00000     0.00000     1.25520  0.0
    102    103    104    117   5     0.00000     0.00000     1.25520  0.0
    102    103    104    118   5     0.00000     0.00000     1.25520  0.0
    102    103    104    119   5     0.00000     0.00000     1.25520  0.0
    105    103    104    117   5     0.00000     0.00000    -0.94140  0.0
    105    103    104    118   5     0.00000     0.00000    -0.94140  0.0
    105    103    104    119   5     0.00000     0.00000    -0.94140  0.0
    127    103    104    117   5     0.00000     0.00000     1.25520  0.0
    127    103    104    118   5     0.00000     0.00000     1.25520  0.0
    127    103    104    119   5     0.00000     0.00000     1.25520  0.0
    102    103    105    106   5     0.00000     2.52295     0.00000  0.0
    102    103    105    107   5     0.00000     0.00000     3.07524  0.0
    104    103    105    106   5     0.00000     2.52295     0.00000  0.0
    104    103    105    107   5     0.00000     0.00000     3.07524  0.0
    127    103    105    106   5     0.00000     2.52295     0.00000  0.0
    127    103    105    107   5     0.00000     0.00000     3.07524  0.0
    102    103    127    128   5     4.74884    -0.63178     1.67360  0.0
    102    103    127    140   5     0.00000     0.00000     1.25520  0.0
    102    103    127    141   5     0.00000     0.00000     1.25520  0.0
    104    103    127    128   5     4.74884    -0.63178     1.67360  0.0
    104    103    127    140   5     0.00000     0.00000     1.25520  0.0
    104    103    127    141   5     0.00000     0.00000     1.25520  0.0
    105    103    127    128   5    -8.00818    -1.52298     2.46438  0.0
    105    103    127    140   5     0.00000     0.00000    -0.94140  0.0
    105    103    127    141   5     0.00000     0.00000    -0.94140  0.0
    103    105    107    108   5    13.65239    24.43456     0.00000  0.0
    106    105    107    108   5     0.00000    25.10400     0.00000  0.0
    105    107    108    109   5     0.00000    -3.67355     1.17989  0.0
    105    107    108    120   5     0.00000     0.00000     0.67362  0.0
    105    107    108    121   5     0.00000     0.00000     0.67362  0.0
    107    108    109    110   5     5.39736     1.23846     1.72799  0.0
    107    108    109    114   5     5.39736     1.23846     1.72799  0.0
    120    108    109    110   5     0.00000     0.00000     0.00000  0.0
    120    108    109    114   5     0.00000     0.00000     0.00000  0.0
    121    108    109    110   5     0.00000     0.00000     0.00000  0.0
    121    108    109    114   5     0.00000     0.00000     0.00000  0.0
    108    109    110    111   5     0.00000    30.33400     0.00000  0.0
    108    109    110    122   5     0.00000    30.33400     0.00000  0.0
    114    109    110    111   5     0.00000    30.33400     0.00000  0.0
    114    109    110    122   5     0.00000    30.33400     0.00000  0.0
    108    109    114    113   5     0.00000    30.33400     0.00000  0.0
    108    109    114    126   5     0.00000    30.33400     0.00000  0.0
    110    109    114    113   5     0.00000    30.33400     0.00000  0.0
    110    109    114    126   5     0.00000    30.33400     0.00000  0.0
    109    110    111    112   5     0.00000    30.33400     0.00000  0.0
    109    110    111    123   5     0.00000    30.33400     0.00000  0.0
    122    110    111    112   5     0.00000    30.33400     0.00000  0.0
    122    110    111    123   5     0.00000    30.33400     0.00000  0.0
    110    111    112    113   5     0.00000    30.33400     0.00000  0.0
    110    111    112    124   5     0.00000    30.33400     0.00000  0.0
    123    111    112    113   5     0.00000    30.33400     0.00000  0.0
    123    111    112    124   5     0.00000    30.33400     0.00000  0.0
    111    112    113    114   5     0.00000    30.33400     0.00000  0.0
    111    112    113    125   5     0.00000    30.33400     0.00000  0.0
    124    112    113    114   5     0.00000    30.33400     0.00000  0.0
    124    112    113    125   5     0.00000    30.33400     0.00000  0.0
    112    113    114    109   5     0.00000    30.33400     0.00000  0.0
    112    113    114    126   5     0.00000    30.33400     0.00000  0.0
    125    113    114    109   5     0.00000    30.33400     0.00000  0.0
    125    113    114    126   5     0.00000    30.33400     0.00000  0.0
    103    127    128    129   5     4.74884    -0.63178     1.67360  0.0
    103    127    128    130   5    -8.00818    -1.52298     2.46438  0.0
    103    127    128    152   5     4.74884    -0.63178     1.67360  0.0
    140    127    128    129   5     0.00000     0.00000     1.25520  0.0
    140    127    128    130   5     0.00000     0.00000    -0.94140  0.0
    140    127    128    152   5     0.00000     0.00000     1.25520  0.0
    141    127    128    129   5     0.00000     0.00000     1.25520  0.0
    141    127    128    130   5     0.00000     0.00000    -0.94140  0.0
    141    127    128    152   5     0.00000     0.00000     1.25520  0.0
    127    128    129    142   5     0.00000     0.00000     1.25520  0.0
    127    128    129    143   5     0.00000     0.00000     1.25520  0.0
    127    128    129    144   5     0.00000     0.00000     1.25520  0.0
    130    128    129    142   5     0.00000     0.00000    -0.94140  0.0
    130    128    129    143   5     0.00000     0.00000    -0.94140  0.0
    130    128    129    144   5     0.00000     0.00000    -0.94140  0.0
    152    128    129    142   5     0.00000     0.00000     1.25520  0.0
    152    128    129    143   5     0.00000     0.00000     1.25520  0.0
    152    128    129    144   5     0.00000     0.00000     1.25520  0.0
    127    128    130    131   5     0.00000     2.52295     0.00000  0.0
    127    128    130    132   5     0.00000     0.00000     3.07524  0.0
    129    128    130    131   5     0.00000     2.52295     0.00000  0.0
    129    128    130    132   5     0.00000     0.00000     3.07524  0.0
    152    128    130    131   5     0.00000     2.52295     0.00000  0.0
    152    128    130    132   5     0.00000     0.00000     3.07524  0.0
    127    128    152    153   5     4.74884    -0.63178     1.67360  0.0
    127    128    152    165   5     0.00000     0.00000     1.25520  0.0
    127    128    152    166   5     0.00000     0.00000     1.25520  0.0
    129    128    152    153   5     4.74884    -0.63178     1.67360  0.0
    129    128    152    165   5     0.00000     0.00000     1.25520  0.0
    129    128    152    166   5     0.00000     0.00000     1.25520  0.0
    130    128    152    153   5    -8.00818    -1.52298     2.46438  0.0
    130    128    152    165   5     0.00000     0.00000    -0.94140  0.0
    130    128    152    166   5     0.00000     0.00000    -0.94140  0.0
    128    130    132    133   5    13.65239    24.43456     0.00000  0.0
    131    130    132    133   5     0.00000    25.10400     0.00000  0.0
    130    132    133    134   5     0.00000    -3.67355     1.17989  0.0
    130    132    133    145   5     0.00000     0.00000     0.67362  0.0
    130    132    133    146   5     0.00000     0.00000     0.67362  0.0
    132    133    134    135   5     5.39736     1.23846     1.72799  0.0
    132    133    134    139   5     5.39736     1.23846     1.72799  0.0
    145    133    134    135   5     0.00000     0.00000     0.00000  0.0
    145    133    134    139   5     0.00000     0.00000     0.00000  0.0
    146    133    134    135   5     0.00000     0.00000     0.00000  0.0
    146    133    134    139   5     0.00000     0.00000     0.00000  0.0
    133    134    135    136   5     0.00000    30.33400     0.00000  0.0
    133    134    135    147   5     0.00000    30.33400     0.00000  0.0
    139    134    135    136   5     0.00000    30.33400     0.00000  0.0
    139    134    135    147   5     0.00000    30.33400     0.00000  0.0
    133    134    139    138   5     0.00000    30.33400     0.00000  0.0
    133    134    139    151   5     0.00000    30.33400     0.00000  0.0
    135    134    139    138   5     0.00000    30.33400     0.00000  0.0
    135    134    139    151   5     0.00000    30.33400     0.00000  0.0
    134    135    136    137   5     0.00000    30.33400     0.00000  0.0
    134    135    136    148   5     0.00000    30.33400     0.00000  0.0
    147    135    136    137   5     0.00000    30.33400     0.00000  0.0
    147    135    136    148   5     0.00000    30.33400     0.00000  0.0
    135    136    137    138   5     0.00000    30.33400     0.00000  0.0
    135    136    137    149   5     0.00000    30.33400     0.00000  0.0
    148    136    137    138   5     0.00000    30.33400     0.00000  0.0
    148    136    137    149   5     0.00000    30.33400     0.00000  0.0
    136    137    138    139   5     0.00000    30.33400     0.00000  0.0
    136    137    138    150   5     0.00000    30.33400     0.00000  0.0
    149    137    138    139   5     0.00000    30.33400     0.00000  0.0
    149    137    138    150   5     0.00000    30.33400     0.00000  0.0
    137    138    139    134   5     0.00000    30.33400     0.00000  0.0
    137    138    139    151   5     0.00000    30.33400     0.00000  0.0
    150    138    139    134   5     0.00000    30.33400     0.00000  0.0
    150    138    139    151   5     0.00000    30.33400     0.00000  0.0
    128    152    153    154   5     4.74884    -0.63178     1.67360  0.0
    128    152    153    155   5    -8.00818    -1.52298     2.46438  0.0
    128    152    153    177   5     4.74884    -0.63178     1.67360  0.0
    165    152    153    154   5     0.00000     0.00000     1.25520  0.0
    165    152    153    155   5     0.00000     0.00000    -0.94140  0.0
    165    152    153    177   5     0.00000     0.00000     1.25520  0.0
    166    152    153    154   5     0.00000     0.00000     1.25520  0.0
    166    152    153    155   5     0.00000     0.00000    -0.94140  0.0
    166    152    153    177   5     0.00000     0.00000     1.25520  0.0
    152    153    154    167   5     0.00000     0.00000     1.25520  0.0
    152    153    154    168   5     0.00000     0.00000     1.25520  0.0
    152    153    154    169   5     0.00000     0.00000     1.25520  0.0
    155    153    154    167   5     0.00000     0.00000    -0.94140  0.0
    155    153    154    168   5     0.00000     0.00000    -0.94140  0.0
    155    153    154    169   5     0.00000     0.00000    -0.94140  0.0
    177    153    154    167   5     0.00000     0.00000     1.25520  0.0
    177    153    154    168   5     0.00000     0.00000     1.25520  0.0
    177    153    154    169   5     0.00000     0.00000     1.25520  0.0
    152    153    155    156   5     0.00000     2.52295     0.00000  0.0
    152    153    155    157   5     0.00000     0.00000     3.07524  0.0
    154    153    155    156   5     0.00000     2.52295     0.00000  0.0
    154    153    155    157   5     0.00000     0.00000     3.07524  0.0
    177    153    155    156   5     0.00000     2.52295     0.00000  0.0
    177    153    155    157   5     0.00000     0.00000     3.07524  0.0
    152    153    177    178   5     4.74884    -0.63178     1.67360  0.0
    152    153    177    190   5     0.00000     0.00000     1.25520  0.0
    152    153    177    191   5     0.00000     0.00000     1.25520  0.0
    154    153    177    178   5     4.74884    -0.63178     1.67360  0.0
    154    153    177    190   5     0.00000     0.00000     1.25520  0.0
    154    153    177    191   5     0.00000     0.00000     1.25520  0.0
    155    153    177    178   5    -8.00818    -1.52298     2.46438  0.0
    155    153    177    190   5     0.00000     0.00000    -0.94140  0.0
    155    153    177    191   5     0.00000     0.00000    -0.94140  0.0
    153    155    157    158   5    13.65239    24.43456     0.00000  0.0
    156    155    157    158   5     0.00000    25.10400     0.00000  0.0
    155    157    158    159   5     0.00000    -3.67355     1.17989  0.0
    155    157    158    170   5     0.00000     0.00000     0.67362  0.0
    155    157    158    171   5     0.00000     0.00000     0.67362  0.0
    157    158    159    160   5     5.39736     1.23846     1.72799  0.0
    157    158    159    164   5     5.39736     1.23846     1.72799  0.0
    170    158    159    160   5     0.00000     0.00000     0.00000  0.0
    170    158    159    164   5     0.00000     0.00000     0.00000  0.0
    171    158    159    160   5     0.00000     0.00000     0.00000  0.0
    171    158    159    164   5     0.00000     0.00000     0.00000  0.0
    158    159    160    161   5     0.00000    30.33400     0.00000  0.0
    158    159    160    172   5     0.00000    30.33400     0.00000  0.0
    164    159    160    161   5     0.00000    30.33400     0.00000  0.0
    164    159    160    172   5     0.00000    30.33400     0.00000  0.0
    158    159    164    163   5     0.00000    30.33400     0.00000  0.0
    158    159    164    176   5     0.00000    30.33400     0.00000  0.0
    160    159    164    163   5     0.00000    30.33400     0.00000  0.0
    160    159    164    176   5     0.00000    30.33400     0.00000  0.0
    159    160    161    162   5     0.00000    30.33400     0.00000  0.0
    159    160    161    173   5     0.00000    30.33400     0.00000  0.0
    172    160    161    162   5     0.00000    30.33400     0.00000  0.0
    172    160    161    173   5     0.00000    30.33400     0.00000  0.0
    160    161    162    163   5     0.00000    30.33400     0.00000  0.0
    160    161    162    174   5     0.00000    30.33400     0.00000  0.0
    173    161    162    163   5     0.00000    30.33400     0.00000  0.0
    173    161    162    174   5     0.00000    30.33400     0.00000  0.0
    161    162    163    164   5     0.00000    30.33400     0.00000  0.0
    161    162    163    175   5     0.00000    30.33400     0.00000  0.0
    174    162    163    164   5     0.00000    30.33400     0.00000  0.0
    174    162    163    175   5     0.00000    30.33400     0.00000  0.0
    162    163    164    159   5     0.00000    30.33400     0.00000  0.0
    162    163    164    176   5     0.00000    30.33400     0.00000  0.0
    175    163    164    159   5     0.00000    30.33400     0.00000  0.0
    175    163    164    176   5     0.00000    30.33400     0.00000  0.0
    153    177    178    179   5     4.74884    -0.63178     1.67360  0.0
    153    177    178    180   5    -8.00818    -1.52298     2.46438  0.0
    153    177    178    202   5     4.74884    -0.63178     1.67360  0.0
    190    177    178    179   5     0.00000     0.00000     1.25520  0.0
    190    177    178    180   5     0.00000     0.00000    -0.94140  0.0
    190    177    178    202   5     0.00000     0.00000     1.25520  0.0
    191    177    178    179   5     0.00000     0.00000     1.25520  0.0
    191    177    178    180   5     0.00000     0.00000    -0.94140  0.0
    191    177    178    202   5     0.00000     0.00000     1.25520  0.0
    177    178    179    192   5     0.00000     0.00000     1.25520  0.0
    177    178    179    193   5     0.00000     0.00000     1.25520  0.0
    177    178    179    194   5     0.00000     0.00000     1.25520  0.0
    180    178    179    192   5     0.00000     0.00000    -0.94140  0.0
    180    178    179    193   5     0.00000     0.00000    -0.94140  0.0
    180    178    179    194   5     0.00000     0.00000    -0.94140  0.0
    202    178    179    192   5     0.00000     0.00000     1.25520  0.0
    202    178    179    193   5     0.00000     0.00000     1.25520  0.0
    202    178    179    194   5     0.00000     0.00000     1.25520  0.0
    177    178    180    181   5     0.00000     2.52295     0.00000  0.0
    177    178    180    182   5     0.00000     0.00000     3.07524  0.0
    179    178    180    181   5     0.00000     2.52295     0.00000  0.0
    179    178    180    182   5     0.00000     0.00000     3.07524  0.0
    202    178    180    181   5     0.00000     2.52295     0.00000  0.0
    202    178    180    182   5     0.00000     0.00000     3.07524  0.0
    177    178    202    203   5     4.74884    -0.63178     1.67360  0.0
    177    178    202    215   5     0.00000     0.00000     1.25520  0.0
    177    178    202    216   5     0.00000     0.00000     1.25520  0.0
    179    178    202    203   5     4.74884    -0.63178     1.67360  0.0
    179    178    202    215   5     0.00000     0.00000     1.25520  0.0
    179    178    202    216   5     0.00000     0.00000     1.25520  0.0
    180    178    202    203   5    -8.00818    -1.52298     2.46438  0.0
    180    178    202    215   5     0.00000     0.00000    -0.94140  0.0
    180    178    202    216   5     0.00000     0.00000    -0.94140  0.0
    178    180    182    183   5    13.65239    24.43456     0.00000  0.0
    181    180    182    183   5     0.00000    25.10400     0.00000  0.0
    180    182    183    184   5     0.00000    -3.67355     1.17989  0.0
    180    182    183    195   5     0.00000     0.00000     0.67362  0.0
    180    182    183    196   5     0.00000     0.00000     0.67362  0.0
    182    183    184    185   5     5.39736     1.23846     1.72799  0.0
    182    183    184    189   5     5.39736     1.23846     1.72799  0.0
    195    183    184    185   5     0.00000     0.00000     0.00000  0.0
    195    183    184    189   5     0.00000     0.00000     0.00000  0.0
    196    183    184    185   5     0.00000     0.00000     0.00000  0.0
    196    183    184    189   5     0.00000     0.00000     0.00000  0.0
    183    184    185    186   5     0.00000    30.33400     0.00000  0.0
    183    184    185    197   5     0.00000    30.33400     0.00000  0.0
    189    184    185    186   5     0.00000    30.33400     0.00000  0.0
    189    184    185    197   5     0.00000    30.33400     0.00000  0.0
    183    184    189    188   5     0.00000    30.33400     0.00000  0.0
    183    184    189    201   5     0.00000    30.33400     0.00000  0.0
    185    184    189    188   5     0.00000    30.33400     0.00000  0.0
    185    184    189    201   5     0.00000    30.33400     0.00000  0.0
    184    185    186    187   5     0.00000    30.33400     0.00000  0.0
    184    185    186    198   5     0.00000    30.33400     0.00000  0.0
    197    185    186    187   5     0.00000    30.33400     0.00000  0.0
    197    185    186    198   5     0.00000    30.33400     0.00000  0.0
    185    186    187    188   5     0.00000    30.33400     0.00000  0.0
    185    186    187    199   5     0.00000    30.33400     0.00000  0.0
    198    186    187    188   5     0.00000    30.33400     0.00000  0.0
    198    186    187    199   5     0.00000    30.33400     0.00000  0.0
    186    187    188    189   5     0.00000    30.33400     0.00000  0.0
    186    187    188    200   5     0.00000    30.33400     0.00000  0.0
    199    187    188    189   5     0.00000    30.33400     0.00000  0.0
    199    187    188    200   5     0.00000    30.33400     0.00000  0.0
    187    188    189    184   5     0.00000    30.33400     0.00000  0.0
    187    188    189    201   5     0.00000    30.33400     0.00000  0.0
    200    188    189    184   5     0.00000    30.33400     0.00000  0.0
    200    188    189    201   5     0.00000    30.33400     0.00000  0.0
    178    202    203    204   5     4.74884    -0.63178     1.67360  0.0
    178    202    203    205   5    -8.00818    -1.52298     2.46438  0.0
    178    202    203    227   5     4.74884    -0.63178     1.67360  0.0
    215    202    203    204   5     0.00000     0.00000     1.25520  0.0
    215    202    203    205   5     0.00000     0.00000    -0.94140  0.0
    215    202    203    227   5     0.00000     0.00000     1.25520  0.0
    216    202    203    204   5     0.00000     0.00000     1.25520  0.0
    216    202    203    205   5     0.00000     0.00000    -0.94140  0.0
    216    202    203    227   5     0.00000     0.00000     1.25520  0.0
    202    203    204    217   5     0.00000     0.00000     1.25520  0.0
    202    203    204    218   5     0.00000     0.00000     1.25520  0.0
    202    203    204    219   5     0.00000     0.00000     1.25520  0.0
    205    203    204    217   5     0.00000     0.00000    -0.94140  0.0
    205    203    204    218   5     0.00000     0.00000    -0.94140  0.0
    205    203    204    219   5     0.00000     0.00000    -0.94140  0.0
    227    203    204    217   5     0.00000     0.00000     1.25520  0.0
    227    203    204    218   5     0.00000     0.00000     1.25520  0.0
    227    203    204    219   5     0.00000     0.00000     1.25520  0.0
    202    203    205    206   5     0.00000     2.52295     0.00000  0.0
    202    203    205    207   5     0.00000     0.00000     3.07524  0.0
    204    203    205    206   5     0.00000     2.52295     0.00000  0.0
    204    203    205    207   5     0.00000     0.00000     3.07524  0.0
    227    203    205    206   5     0.00000     2.52295     0.00000  0.0
    227    203    205    207   5     0.00000     0.00000     3.07524  0.0
    202    203    227    228   5     4.74884    -0.63178     1.67360  0.0
    202    203    227    240   5     0.00000     0.00000     1.25520  0.0
    202    203    227    241   5     0.00000     0.00000     1.25520  0.0
    204    203    227    228   5     4.74884    -0.63178     1.67360  0.0
    204    203    227    240   5     0.00000     0.00000     1.25520  0.0
    204    203    227    241   5     0.00000     0.00000     1.25520  0.0
    205    203    227    228   5    -8.00818    -1.52298     2.46438  0.0
    205    203    227    240   5     0.00000     0.00000    -0.94140  0.0
    205    203    227    241   5     0.00000     0.00000    -0.94140  0.0
    203    205    207    208   5    13.65239    24.43456     0.00000  0.0
    206    205    207    208   5     0.00000    25.10400     0.00000  0.0
    205    207    208    209   5     0.00000    -3.67355     1.17989  0.0
    205    207    208    220   5     0.00000     0.00000     0.67362  0.0
    205    207    208    221   5     0.00000     0.00000     0.67362  0.0
    207    208    209    210   5     5.39736     1.23846     1.72799  0.0
    207    208    209    214   5     5.39736     1.23846     1.72799  0.0
    220    208    209    210   5     0.00000     0.00000     0.00000  0.0
    220    208    209    214   5     0.00000     0.00000     0.00000  0.0
    221    208    209    210   5     0.00000     0.00000     0.00000  0.0
    221    208    209    214   5     0.00000     0.00000     0.00000  0.0
    208    209    210    211   5     0.00000    30.33400     0.00000  0.0
    208    209    210    222   5     0.00000    30.33400     0.00000  0.0
    214    209    210    211   5     0.00000    30.33400     0.00000  0.0
    214    209    210    222   5     0.00000    30.33400     0.00000  0.0
    208    209    214    213   5     0.00000    30.33400     0.00000  0.0
    208    209    214    226   5     0.00000    30.33400     0.00000  0.0
    210    209    214    213   5     0.00000    30.33400     0.00000  0.0
    210    209    214    226   5     0.00000    30.33400     0.00000  0.0
    209    210    211    212   5     0.00000    30.33400     0.00000  0.0
    209    210    211    223   5     0.00000    30.33400     0.00000  0.0
    222    210    211    212   5     0.00000    30.33400     0.00000  0.0
    222    210    211    223   5     0.00000    30.33400     0.00000  0.0
    210    211    212    213   5     0.00000    30.33400     0.00000  0.0
    210    211    212    224   5     0.00000    30.33400     0.00000  0.0
    223    211    212    213   5     0.00000    30.33400     0.00000  0.0
    223    211    212    224   5     0.00000    30.33400     0.00000  0.0
    211    212    213    214   5     0.00000    30.33400     0.00000  0.0
    211    212    213    225   5     0.00000    30.33400     0.00000  0.0
    224    212    213    214   5     0.00000    30.33400     0.00000  0.0
    224    212    213    225   5     0.00000    30.33400     0.00000  0.0
    212    213    214    209   5     0.00000    30.33400     0.00000  0.0
    212    213    214    226   5     0.00000    30.33400     0.00000  0.0
    225    213    214    209   5     0.00000    30.33400     0.00000  0.0
    225    213    214    226   5     0.00000    30.33400     0.00000  0.0
    203    227    228    229   5     4.74884    -0.63178     1.67360  0.0
    203    227    228    230   5    -8.00818    -1.52298     2.46438  0.0
    203    227    228    252   5     4.74884    -0.63178     1.67360  0.0
    240    227    228    229   5     0.00000     0.00000     1.25520  0.0
    240    227    228    230   5     0.00000     0.00000    -0.94140  0.0
    240    227    228    252   5     0.00000     0.00000     1.25520  0.0
    241    227    228    229   5     0.00000     0.00000     1.25520  0.0
    241    227    228    230   5     0.00000     0.00000    -0.94140  0.0
    241    227    228    252   5     0.00000     0.00000     1.25520  0.0
    227    228    229    242   5     0.00000     0.00000     1.25520  0.0
    227    228    229    243   5     0.00000     0.00000     1.25520  0.0
    227    228    229    244   5     0.00000     0.00000     1.25520  0.0
    230    228    229    242   5     0.00000     0.00000    -0.94140  0.0
    230    228    229    243   5     0.00000     0.00000    -0.94140  0.0
    230    228    229    244   5     0.00000     0.00000    -0.94140  0.0
    252    228    229    242   5     0.00000     0.00000     1.25520  0.0
    252    228    229    243   5     0.00000     0.00000     1.25520  0.0
    252    228    229    244   5     0.00000     0.00000     1.25520  0.0
    227    228    230    231   5     0.00000     2.52295     0.00000  0.0
    227    228    230    232   5     0.00000     0.00000     3.07524  0.0
    229    228    230    231   5     0.00000     2.52295     0.00000  0.0
    229    228    230    232   5     0.00000     0.00000     3.07524  0.0
    252    228    230    231   5     0.00000     2.52295     0.00000  0.0
    252    228    230    232   5     0.00000     0.00000     3.07524  0.0
    227    228    252    253   5     4.74884    -0.63178     1.67360  0.0
    227    228    252    265   5     0.00000     0.00000     1.25520  0.0
    227    228    252    266   5     0.00000     0.00000     1.25520  0.0
    229    228    252    253   5     4.74884    -0.63178     1.67360  0.0
    229    228    252    265   5     0.00000     0.00000     1.25520  0.0
    229    228    252    266   5     0.00000     0.00000     1.25520  0.0
    230    228    252    253   5    -8.00818    -1.52298     2.46438  0.0
    230    228    252    265   5     0.00000     0.00000    -0.94140  0.0
    230    228    252    266   5     0.00000     0.00000    -0.94140  0.0
    228    230    232    233   5    13.65239    24.43456     0.00000  0.0
    231    230    232    233   5     0.00000    25.10400     0.00000  0.0
    230    232    233    234   5     0.00000    -3.67355     1.17989  0.0
    230    232    233    245   5     0.00000     0.00000     0.67362  0.0
    230    232    233    246   5     0.00000     0.00000     0.67362  0.0
    232    233    234    235   5     5.39736     1.23846     1.72799  0.0
    232    233    234    239   5     5.39736     1.23846     1.72799  0.0
    245    233    234    235   5     0.00000     0.00000     0.00000  0.0
    245    233    234    239   5     0.00000     0.00000     0.00000  0.0
    246    233    234    235   5     0.00000     0.00000     0.00000  0.0
    246    233    234    239   5     0.00000     0.00000     0.00000  0.0
    233    234    235    236   5     0.00000    30.33400     0.00000  0.0
    233    234    235    247   5     0.00000    30.33400     0.00000  0.0
    239    234    235    236   5     0.00000    30.33400     0.00000  0.0
    239    234    235    247   5     0.00000    30.33400     0.00000  0.0
    233    234    239    238   5     0.00000    30.33400     0.00000  0.0
    233    234    239    251   5     0.00000    30.33400     0.00000  0.0
    235    234    239    238   5     0.00000    30.33400     0.00000  0.0
    235    234    239    251   5     0.00000    30.33400     0.00000  0.0
    234    235    236    237   5     0.00000    30.33400     0.00000  0.0
    234    235    236    248   5     0.00000    30.33400     0.00000  0.0
    247    235    236    237   5     0.00000    30.33400     0.00000  0.0
    247    235    236    248   5     0.00000    30.33400     0.00000  0.0
    235    236    237    238   5     0.00000    30.33400     0.00000  0.0
    235    236    237    249   5     0.00000    30.33400     0.00000  0.0
    248    236    237    238   5     0.00000    30.33400     0.00000  0.0
    248    236    237    249   5     0.00000    30.33400     0.00000  0.0
    236    237    238    239   5     0.00000    30.33400     0.00000  0.0
    236    237    238    250   5     0.00000    30.33400     0.00000  0.0
    249    237    238    239   5     0.00000    30.33400     0.00000  0.0
    249    237    238    250   5     0.00000    30.33400     0.00000  0.0
    237    238    239    234   5     0.00000    30.33400     0.00000  0.0
    237    238    239    251   5     0.00000    30.33400     0.00000  0.0
    250    238    239    234   5     0.00000    30.33400     0.00000  0.0
    250    238    239    251   5     0.00000    30.33400     0.00000  0.0
    228    252    253    254   5     4.74884    -0.63178     1.67360  0.0
    228    252    253    255   5    -8.00818    -1.52298     2.46438  0.0
    228    252    253    277   5     4.74884    -0.63178     1.67360  0.0
    265    252    253    254   5     0.00000     0.00000     1.25520  0.0
    265    252    253    255   5     0.00000     0.00000    -0.94140  0.0
    265    252    253    277   5     0.00000     0.00000     1.25520  0.0
    266    252    253    254   5     0.00000     0.00000     1.25520  0.0
    266    252    253    255   5     0.00000     0.00000    -0.94140  0.0
    266    252    253    277   5     0.00000     0.00000     1.25520  0.0
    252    253    254    267   5     0.00000     0.00000     1.25520  0.0
    252    253    254    268   5     0.00000     0.00000     1.25520  0.0
    252    253    254    269   5     0.00000     0.00000     1.25520  0.0
    255    253    254    267   5     0.00000     0.00000    -0.94140  0.0
    255    253    254    268   5     0.00000     0.00000    -0.94140  0.0
    255    253    254    269   5     0.00000     0.00000    -0.94140  0.0
    277    253    254    267   5     0.00000     0.00000     1.25520  0.0
    277    253    254    268   5     0.00000     0.00000     1.25520  0.0
    277    253    254    269   5     0.00000     0.00000     1.25520  0.0
    252    253    255    256   5     0.00000     2.52295     0.00000  0.0
    252    253    255    257   5     0.00000     0.00000     3.07524  0.0
    254    253    255    256   5     0.00000     2.52295     0.00000  0.0
    254    253    255    257   5     0.00000     0.00000     3.07524  0.0
    277    253    255    256   5     0.00000     2.52295     0.00000  0.0
    277    253    255    257   5     0.00000     0.00000     3.07524  0.0
    252    253    277    278   5     4.74884    -0.63178     1.67360  0.0
    252    253    277    290   5     0.00000     0.00000     1.25520  0.0
    252    253    277    291   5     0.00000     0.00000     1.25520  0.0
    254    253    277    278   5     4.74884    -0.63178     1.67360  0.0
    254    253    277    290   5     0.00000     0.00000     1.25520  0.0
    254    253    277    291   5     0.00000     0.00000     1.25520  0.0
    255    253    277    278   5    -8.00818    -1.52298     2.46438  0.0
    255    253    277    290   5     0.00000     0.00000    -0.94140  0.0
    255    253    277    291   5     0.00000     0.00000    -0.94140  0.0
    253    255    257    258   5    13.65239    24.43456     0.00000  0.0
    256    255    257    258   5     0.00000    25.10400     0.00000  0.0
    255    257    258    259   5     0.00000    -3.67355     1.17989  0.0
    255    257    258    270   5     0.00000     0.00000     0.67362  0.0
    255    257    258    271   5     0.00000     0.00000     0.67362  0.0
    257    258    259    260   5     5.39736     1.23846     1.72799  0.0
    257    258    259    264   5     5.39736     1.23846     1.72799  0.0
    270    258    259    260   5     0.00000     0.00000     0.00000  0.0
    270    258    259    264   5     0.00000     0.00000     0.00000  0.0
    271    258    259    260   5     0.00000     0.00000     0.00000  0.0
    271    258    259    264   5     0.00000     0.00000     0.00000  0.0
    258    259    260    261   5     0.00000    30.33400     0.00000  0.0
    258    259    260    272   5     0.00000    30.33400     0.00000  0.0
    264    259    260    261   5     0.00000    30.33400     0.00000  0.0
    264    259    260    272   5     0.00000    30.33400     0.00000  0.0
    258    259    264    263   5     0.00000    30.33400     0.00000  0.0
    258    259    264    276   5     0.00000    30.33400     0.00000  0.0
    260    259    264    263   5     0.00000    30.33400     0.00000  0.0
    260    259    264    276   5     0.00000    30.33400     0.00000  0.0
    259    260    261    262   5     0.00000    30.33400     0.00000  0.0
    259    260    261    273   5     0.00000    30.33400     0.00000  0.0
    272    260    261    262   5     0.00000    30.33400     0.00000  0.0
    272    260    261    273   5     0.00000    30.33400     0.00000  0.0
    260    261    262    263   5     0.00000    30.33400     0.00000  0.0
    260    261    262    274   5     0.00000    30.33400     0.00000  0.0
    273    261    262    263   5     0.00000    30.33400     0.00000  0.0
    273    261    262    274   5     0.00000    30.33400     0.00000  0.0
    261    262    263    264   5     0.00000    30.33400     0.00000  0.0
    261    262    263    275   5     0.00000    30.33400     0.00000  0.0
    274    262    263    264   5     0.00000    30.33400     0.00000  0.0
    274    262    263    275   5     0.00000    30.33400     0.00000  0.0
    262    263    264    259   5     0.00000    30.33400     0.00000  0.0
    262    263    264    276   5     0.00000    30.33400     0.00000  0.0
    275    263    264    259   5     0.00000    30.33400     0.00000  0.0
    275    263    264    276   5     0.00000    30.33400     0.00000  0.0
    253    277    278    279   5     4.74884    -0.63178     1.67360  0.0
    253    277    278    280   5    -8.00818    -1.52298     2.46438  0.0
    253    277    278    302   5     4.74884    -0.63178     1.67360  0.0
    290    277    278    279   5     0.00000     0.00000     1.25520  0.0
    290    277    278    280   5     0.00000     0.00000    -0.94140  0.0
    290    277    278    302   5     0.00000     0.00000     1.25520  0.0
    291    277    278    279   5     0.00000     0.00000     1.25520  0.0
    291    277    278    280   5     0.00000     0.00000    -0.94140  0.0
    291    277    278    302   5     0.00000     0.00000     1.25520  0.0
    277    278    279    292   5     0.00000     0.00000     1.25520  0.0
    277    278    279    293   5     0.00000     0.00000     1.25520  0.0
    277    278    279    294   5     0.00000     0.00000     1.25520  0.0
    280    278    279    292   5     0.00000     0.00000    -0.94140  0.0
    280    278    279    293   5     0.00000     0.00000    -0.94140  0.0
    280    278    279    294   5     0.00000     0.00000    -0.94140  0.0
    302    278    279    292   5     0.00000     0.00000     1.25520  0.0
    302    278    279    293   5     0.00000     0.00000     1.25520  0.0
    302    278    279    294   5     0.00000     0.00000     1.25520  0.0
    277    278    280    281   5     0.00000     2.52295     0.00000  0.0
    277    278    280    282   5     0.00000     0.00000     3.07524  0.0
    279    278    280    281   5     0.00000     2.52295     0.00000  0.0
    279    278    280    282   5     0.00000     0.00000     3.07524  0.0
    302    278    280    281   5     0.00000     2.52295     0.00000  0.0
    302    278    280    282   5     0.00000     0.00000     3.07524  0.0
    277    278    302    303   5     4.74884    -0.63178     1.67360  0.0
    277    278    302    315   5     0.00000     0.00000     1.25520  0.0
    277    278    302    316   5     0.00000     0.00000     1.25520  0.0
    279    278    302    303   5     4.74884    -0.63178     1.67360  0.0
    279    278    302    315   5     0.00000     0.00000     1.25520  0.0
    279    278    302    316   5     0.00000     0.00000     1.25520  0.0
    280    278    302    303   5    -8.00818    -1.52298     2.46438  0.0
    280    278    302    315   5     0.00000     0.00000    -0.94140  0.0
    280    278    302    316   5     0.00000     0.00000    -0.94140  0.0
    278    280    282    283   5    13.65239    24.43456     0.00000  0.0
    281    280    282    283   5     0.00000    25.10400     0.00000  0.0
    280    282    283    284   5     0.00000    -3.67355     1.17989  0.0
    280    282    283    295   5     0.00000     0.00000     0.67362  0.0
    280    282    283    296   5     0.00000     0.00000     0.67362  0.0
    282    283    284    285   5     5.39736     1.23846     1.72799  0.0
    282    283    284    289   5     5.39736     1.23846     1.72799  0.0
    295    283    284    285   5     0.00000     0.00000     0.00000  0.0
    295    283    284    289   5     0.00000     0.00000     0.00000  0.0
    296    283    284    285   5     0.00000     0.00000     0.00000  0.0
    296    283    284    289   5     0.00000     0.00000     0.00000  0.0
    283    284    285    286   5     0.00000    30.33400     0.00000  0.0
    283    284    285    297   5     0.00000    30.33400     0.00000  0.0
    289    284    285    286   5     0.00000    30.33400     0.00000  0.0
    289    284    285    297   5     0.00000    30.33400     0.00000  0.0
    283    284    289    288   5     0.00000    30.33400     0.00000  0.0
    283    284    289    301   5     0.00000    30.33400     0.00000  0.0
    285    284    289    288   5     0.00000    30.33400     0.00000  0.0
    285    284    289    301   5     0.00000    30.33400     0.00000  0.0
    284    285    286    287   5     0.00000    30.33400     0.00000  0.0
    284    285    286    298   5     0.00000    30.33400     0.00000  0.0
    297    285    286    287   5     0.00000    30.33400     0.00000  0.0
    297    285    286    298   5     0.00000    30.33400     0.00000  0.0
    285    286    287    288   5     0.00000    30.33400     0.00000  0.0
    285    286    287    299   5     0.00000    30.33400     0.00000  0.0
    298    286    287    288   5     0.00000    30.33400     0.00000  0.0
    298    286    287    299   5     0.00000    30.33400     0.00000  0.0
    286    287    288    289   5     0.00000    30.33400     0.00000  0.0
    286    287    288    300   5     0.00000    30.33400     0.00000  0.0
    299    287    288    289   5     0.00000    30.33400     0.00000  0.0
    299    287    288    300   5     0.00000    30.33400     0.00000  0.0
    287    288    289    284   5     0.00000    30.33400     0.00000  0.0
    287    288    289    301   5     0.00000    30.33400     0.00000  0.0
    300    288    289    284   5     0.00000    30.33400     0.00000  0.0
    300    288    289    301   5     0.00000    30.33400     0.00000  0.0
    278    302    303    304   5     4.74884    -0.63178     1.67360  0.0
    278    302    303    305   5    -8.00818    -1.52298     2.46438  0.0
    278    302    303    327   5     4.74884    -0.63178     1.67360  0.0
    315    302    303    304   5     0.00000     0.00000     1.25520  0.0
    315    302    303    305   5     0.00000     0.00000    -0.94140  0.0
    315    302    303    327   5     0.00000     0.00000     1.25520  0.0
    316    302    303    304   5     0.00000     0.00000     1.25520  0.0
    316    302    303    305   5     0.00000     0.00000    -0.94140  0.0
    316    302    303    327   5     0.00000     0.00000     1.25520  0.0
    302    303    304    317   5     0.00000     0.00000     1.25520  0.0
    302    303    304    318   5     0.00000     0.00000     1.25520  0.0
    302    303    304    319   5     0.00000     0.00000     1.25520  0.0
    305    303    304    317   5     0.00000     0.00000    -0.94140  0.0
    305    303    304    318   5     0.00000     0.00000    -0.94140  0.0
    305    303    304    319   5     0.00000     0.00000    -0.94140  0.0
    327    303    304    317   5     0.00000     0.00000     1.25520  0.0
    327    303    304    318   5     0.00000     0.00000     1.25520  0.0
    327    303    304    319   5     0.00000     0.00000     1.25520  0.0
    302    303    305    306   5     0.00000     2.52295     0.00000  0.0
    302    303    305    307   5     0.00000     0.00000     3.07524  0.0
    304    303    305    306   5     0.00000     2.52295     0.00000  0.0
    304    303    305    307   5     0.00000     0.00000     3.07524  0.0
    327    303    305    306   5     0.00000     2.52295     0.00000  0.0
    327    303    305    307   5     0.00000     0.00000     3.07524  0.0
    302    303    327    328   5     4.74884    -0.63178     1.67360  0.0
    302    303    327    340   5     0.00000     0.00000     1.25520  0.0
    302    303    327    341   5     0.00000     0.00000     1.25520  0.0
    304    303    327    328   5     4.74884    -0.63178     1.67360  0.0
    304    303    327    340   5     0.00000     0.00000     1.25520  0.0
    304    303    327    341   5     0.00000     0.00000     1.25520  0.0
    305    303    327    328   5    -8.00818    -1.52298     2.46438  0.0
    305    303    327    340   5     0.00000     0.00000    -0.94140  0.0
    305    303    327    341   5     0.00000     0.00000    -0.94140  0.0
    303    305    307    308   5    13.65239    24.43456     0.00000  0.0
    306    305    307    308   5     0.00000    25.10400     0.00000  0.0
    305    307    308    309   5     0.00000    -3.67355     1.17989  0.0
    305    307    308    320   5     0.00000     0.00000     0.67362  0.0
    305    307    308    321   5     0.00000     0.00000     0.67362  0.0
    307    308    309    310   5     5.39736     1.23846     1.72799  0.0
    307    308    309    314   5     5.39736     1.23846     1.72799  0.0
    320    308    309    310   5     0.00000     0.00000     0.00000  0.0
    320    308    309    314   5     0.00000     0.00000     0.00000  0.0
    321    308    309    310   5     0.00000     0.00000     0.00000  0.0
    321    308    309    314   5     0.00000     0.00000     0.00000  0.0
    308    309    310    311   5     0.00000    30.33400     0.00000  0.0
    308    309    310    322   5     0.00000    30.33400     0.00000  0.0
    314    309    310    311   5     0.00000    30.33400     0.00000  0.0
    314    309    310    322   5     0.00000    30.33400     0.00000  0.0
    308    309    314    313   5     0.00000    30.33400     0.00000  0.0
    308    309    314    326   5     0.00000    30.33400     0.00000  0.0
    310    309    314    313   5     0.00000    30.33400     0.00000  0.0
    310    309    314    326   5     0.00000    30.33400     0.00000  0.0
    309    310    311    312   5     0.00000    30.33400     0.00000  0.0
    309    310    311    323   5     0.00000    30.33400     0.00000  0.0
    322    310    311    312   5     0.00000    30.33400     0.00000  0.0
    322    310    311    323   5     0.00000    30.33400     0.00000  0.0
    310    311    312    313   5     0.00000    30.33400     0.00000  0.0
    310    311    312    324   5     0.00000    30.33400     0.00000  0.0
    323    311    312    313   5     0.00000    30.33400     0.00000  0.0
    323    311    312    324   5     0.00000    30.33400     0.00000  0.0
    311    312    313    314   5     0.00000    30.33400     0.00000  0.0
    311    312    313    325   5     0.00000    30.33400     0.00000  0.0
    324    312    313    314   5     0.00000    30.33400     0.00000  0.0
    324    312    313    325   5     0.00000    30.33400     0.00000  0.0
    312    313    314    309   5     0.00000    30.33400     0.00000  0.0
    312    313    314    326   5     0.00000    30.33400     0.00000  0.0
    325    313    314    309   5     0.00000    30.33400     0.00000  0.0
    325    313    314    326   5     0.00000    30.33400     0.00000  0.0
    303    327    328    329   5     4.74884    -0.63178     1.67360  0.0
    303    327    328    330   5    -8.00818    -1.52298     2.46438  0.0
    303    327    328    352   5     4.74884    -0.63178     1.67360  0.0
    340    327    328    329   5     0.00000     0.00000     1.25520  0.0
    340    327    328    330   5     0.00000     0.00000    -0.94140  0.0
    340    327    328    352   5     0.00000     0.00000     1.25520  0.0
    341    327    328    329   5     0.00000     0.00000     1.25520  0.0
    341    327    328    330   5     0.00000     0.00000    -0.94140  0.0
    341    327    328    352   5     0.00000     0.00000     1.25520  0.0
    327    328    329    342   5     0.00000     0.00000     1.25520  0.0
    327    328    329    343   5     0.00000     0.00000     1.25520  0.0
    327    328    329    344   5     0.00000     0.00000     1.25520  0.0
    330    328    329    342   5     0.00000     0.00000    -0.94140  0.0
    330    328    329    343   5     0.00000     0.00000    -0.94140  0.0
    330    328    329    344   5     0.00000     0.00000    -0.94140  0.0
    352    328    329    342   5     0.00000     0.00000     1.25520  0.0
    352    328    329    343   5     0.00000     0.00000     1.25520  0.0
    352    328    329    344   5     0.00000     0.00000     1.25520  0.0
    327    328    330    331   5     0.00000     2.52295     0.00000  0.0
    327    328    330    332   5     0.00000     0.00000     3.07524  0.0
    329    328    330    331   5     0.00000     2.52295     0.00000  0.0
    329    328    330    332   5     0.00000     0.00000     3.07524  0.0
    352    328    330    331   5     0.00000     2.52295     0.00000  0.0
    352    328    330    332   5     0.00000     0.00000     3.07524  0.0
    327    328    352    353   5     4.74884    -0.63178     1.67360  0.0
    327    328    352    365   5     0.00000     0.00000     1.25520  0.0
    327    328    352    366   5     0.00000     0.00000     1.25520  0.0
    329    328    352    353   5     4.74884    -0.63178     1.67360  0.0
    329    328    352    365   5     0.00000     0.00000     1.25520  0.0
    329    328    352    366   5     0.00000     0.00000     1.25520  0.0
    330    328    352    353   5    -8.00818    -1.52298     2.46438  0.0
    330    328    352    365   5     0.00000     0.00000    -0.94140  0.0
    330    328    352    366   5     0.00000     0.00000    -0.94140  0.0
    328    330    332    333   5    13.65239    24.43456     0.00000  0.0
    331    330    332    333   5     0.00000    25.10400     0.00000  0.0
    330    332    333    334   5     0.00000    -3.67355     1.17989  0.0
    330    332    333    345   5     0.00000     0.00000     0.67362  0.0
    330    332    333    346   5     0.00000     0.00000     0.67362  0.0
    332    333    334    335   5     5.39736     1.23846     1.72799  0.0
    332    333    334    339   5     5.39736     1.23846     1.72799  0.0
    345    333    334    335   5     0.00000     0.00000     0.00000  0.0
    345    333    334    339   5     0.00000     0.00000     0.00000  0.0
    346    333    334    335   5     0.00000     0.00000     0.00000  0.0
    346    333    334    339   5     0.00000     0.00000     0.00000  0.0
    333    334    335    336   5     0.00000    30.33400     0.00000  0.0
    333    334    335    347   5     0.00000    30.33400     0.00000  0.0
    339    334    335    336   5     0.00000    30.33400     0.00000  0.0
    339    334    335    347   5     0.00000    30.33400     0.00000  0.0
    333    334    339    338   5     0.00000    30.33400     0.00000  0.0
    333    334    339    351   5     0.00000    30.33400     0.00000  0.0
    335    334    339    338   5     0.00000    30.33400     0.00000  0.0
    335    334    339    351   5     0.00000    30.33400     0.00000  0.0
    334    335    336    337   5     0.00000    30.33400     0.00000  0.0
    334    335    336    348   5     0.00000    30.33400     0.00000  0.0
    347    335    336    337   5     0.00000    30.33400     0.00000  0.0
    347    335    336    348   5     0.00000    30.33400     0.00000  0.0
    335    336    337    338   5     0.00000    30.33400     0.00000  0.0
    335    336    337    349   5     0.00000    30.33400     0.00000  0.0
    348    336    337    338   5     0.00000    30.33400     0.00000  0.0
    348    336    337    349   5     0.00000    30.33400     0.00000  0.0
    336    337    338    339   5     0.00000    30.33400     0.00000  0.0
    336    337    338    350   5     0.00000    30.33400     0.00000  0.0
    349    337    338    339   5     0.00000    30.33400     0.00000  0.0
    349    337    338    350   5     0.00000    30.33400     0.00000  0.0
    337    338    339    334   5     0.00000    30.33400     0.00000  0.0
    337    338    339    351   5     0.00000    30.33400     0.00000  0.0
    350    338    339    334   5     0.00000    30.33400     0.00000  0.0
    350    338    339    351   5     0.00000    30.33400     0.00000  0.0
    328    352    353    354   5     4.74884    -0.63178     1.67360  0.0
    328    352    353    355   5    -8.00818    -1.52298     2.46438  0.0
    328    352    353    377   5     4.74884    -0.63178     1.67360  0.0
    365    352    353    354   5     0.00000     0.00000     1.25520  0.0
    365    352    353    355   5     0.00000     0.00000    -0.94140  0.0
    365    352    353    377   5     0.00000     0.00000     1.25520  0.0
    366    352    353    354   5     0.00000     0.00000     1.25520  0.0
    366    352    353    355   5     0.00000     0.00000    -0.94140  0.0
    366    352    353    377   5     0.00000     0.00000     1.25520  0.0
    352    353    354    367   5     0.00000     0.00000     1.25520  0.0
    352    353    354    368   5     0.00000     0.00000     1.25520  0.0
    352    353    354    369   5     0.00000     0.00000     1.25520  0.0
    355    353    354    367   5     0.00000     0.00000    -0.94140  0.0
    355    353    354    368   5     0.00000     0.00000    -0.94140  0.0
    355    353    354    369   5     0.00000     0.00000    -0.94140  0.0
    377    353    354    367   5     0.00000     0.00000     1.25520  0.0
    377    353    354    368   5     0.00000     0.00000     1.25520  0.0
    377    353    354    369   5     0.00000     0.00000     1.25520  0.0
    352    353    355    356   5     0.00000     2.52295     0.00000  0.0
    352    353    355    357   5     0.00000     0.00000     3.07524  0.0
    354    353    355    356   5     0.00000     2.52295     0.00000  0.0
    354    353    355    357   5     0.00000     0.00000     3.07524  0.0
    377    353    355    356   5     0.00000     2.52295     0.00000  0.0
    377    353    355    357   5     0.00000     0.00000     3.07524  0.0
    352    353    377    378   5     4.74884    -0.63178     1.67360  0.0
    352    353    377    390   5     0.00000     0.00000     1.25520  0.0
    352    353    377    391   5     0.00000     0.00000     1.25520  0.0
    354    353    377    378   5     4.74884    -0.63178     1.67360  0.0
    354    353    377    390   5     0.00000     0.00000     1.25520  0.0
    354    353    377    391   5     0.00000     0.00000     1.25520  0.0
    355    353    377    378   5    -8.00818    -1.52298     2.46438  0.0
    355    353    377    390   5     0.00000     0.00000    -0.94140  0.0
    355    353    377    391   5     0.00000     0.00000    -0.94140  0.0
    353    355    357    358   5    13.65239    24.43456     0.00000  0.0
    356    355    357    358   5     0.00000    25.10400     0.00000  0.0
    355    357    358    359   5     0.00000    -3.67355     1.17989  0.0
    355    357    358    370   5     0.00000     0.00000     0.67362  0.0
    355    357    358    371   5     0.00000     0.00000     0.67362  0.0
    357    358    359    360   5     5.39736     1.23846     1.72799  0.0
    357    358    359    364   5     5.39736     1.23846     1.72799  0.0
    370    358    359    360   5     0.00000     0.00000     0.00000  0.0
    370    358    359    364   5     0.00000     0.00000     0.00000  0.0
    371    358    359    360   5     0.00000     0.00000     0.00000  0.0
    371    358    359    364   5     0.00000     0.00000     0.00000  0.0
    358    359    360    361   5     0.00000    30.33400     0.00000  0.0
    358    359    360    372   5     0.00000    30.33400     0.00000  0.0
    364    359    360    361   5     0.00000    30.33400     0.00000  0.0
    364    359    360    372   5     0.00000    30.33400     0.00000  0.0
    358    359    364    363   5     0.00000    30.33400     0.00000  0.0
    358    359    364    376   5     0.00000    30.33400     0.00000  0.0
    360    359    364    363   5     0.00000    30.33400     0.00000  0.0
    360    359    364    376   5     0.00000    30.33400     0.00000  0.0
    359    360    361    362   5     0.00000    30.33400     0.00000  0.0
    359    360    361    373   5     0.00000    30.33400     0.00000  0.0
    372    360    361    362   5     0.00000    30.33400     0.00000  0.0
    372    360    361    373   5     0.00000    30.33400     0.00000  0.0
    360    361    362    363   5     0.00000    30.33400     0.00000  0.0
    360    361    362    374   5     0.00000    30.33400     0.00000  0.0
    373    361    362    363   5     0.00000    30.33400     0.00000  0.0
    373    361    362    374   5     0.00000    30.33400     0.00000  0.0
    361    362    363    364   5     0.00000    30.33400     0.00000  0.0
    361    362    363    375   5     0.00000    30.33400     0.00000  0.0
    374    362    363    364   5     0.00000    30.33400     0.00000  0.0
    374    362    363    375   5     0.00000    30.33400     0.00000  0.0
    362    363    364    359   5     0.00000    30.33400     0.00000  0.0
    362    363    364    376   5     0.00000    30.33400     0.00000  0.0
    375    363    364    359   5     0.00000    30.33400     0.00000  0.0
    375    363    364    376   5     0.00000    30.33400     0.00000  0.0
    353    377    378    379   5     4.74884    -0.63178     1.67360  0.0
    353    377    378    380   5    -8.00818    -1.52298     2.46438  0.0
    353    377    378    402   5     4.74884    -0.63178     1.67360  0.0
    390    377    378    379   5     0.00000     0.00000     1.25520  0.0
    390    377    378    380   5     0.00000     0.00000    -0.94140  0.0
    390    377    378    402   5     0.00000     0.00000     1.25520  0.0
    391    377    378    379   5     0.00000     0.00000     1.25520  0.0
    391    377    378    380   5     0.00000     0.00000    -0.94140  0.0
    391    377    378    402   5     0.00000     0.00000     1.25520  0.0
    377    378    379    392   5     0.00000     0.00000     1.25520  0.0
    377    378    379    393   5     0.00000     0.00000     1.25520  0.0
    377    378    379    394   5     0.00000     0.00000     1.25520  0.0
    380    378    379    392   5     0.00000     0.00000    -0.94140  0.0
    380    378    379    393   5     0.00000     0.00000    -0.94140  0.0
    380    378    379    394   5     0.00000     0.00000    -0.94140  0.0
    402    378    379    392   5     0.00000     0.00000     1.25520  0.0
    402    378    379    393   5     0.00000     0.00000     1.25520  0.0
    402    378    379    394   5     0.00000     0.00000     1.25520  0.0
    377    378    380    381   5     0.00000     2.52295     0.00000  0.0
    377    378    380    382   5     0.00000     0.00000     3.07524  0.0
    379    378    380    381   5     0.00000     2.52295     0.00000  0.0
    379    378    380    382   5     0.00000     0.00000     3.07524  0.0
    402    378    380    381   5     0.00000     2.52295     0.00000  0.0
    402    378    380    382   5     0.00000     0.00000     3.07524  0.0
    377    378    402    403   5     4.74884    -0.63178     1.67360  0.0
    377    378    402    415   5     0.00000     0.00000     1.25520  0.0
    377    378    402    416   5     0.00000     0.00000     1.25520  0.0
    379    378    402    403   5     4.74884    -0.63178     1.67360  0.0
    379    378    402    415   5     0.00000     0.00000     1.25520  0.0
    379    378    402    416   5     0.00000     0.00000     1.25520  0.0
    380    378    402    403   5    -8.00818    -1.52298     2.46438  0.0
    380    378    402    415   5     0.00000     0.00000    -0.94140  0.0
    380    378    402    416   5     0.00000     0.00000    -0.94140  0.0
    378    380    382    383   5    13.65239    24.43456     0.00000  0.0
    381    380    382    383   5     0.00000    25.10400     0.00000  0.0
    380    382    383    384   5     0.00000    -3.67355     1.17989  0.0
    380    382    383    395   5     0.00000     0.00000     0.67362  0.0
    380    382    383    396   5     0.00000     0.00000     0.67362  0.0
    382    383    384    385   5     5.39736     1.23846     1.72799  0.0
    382    383    384    389   5     5.39736     1.23846     1.72799  0.0
    395    383    384    385   5     0.00000     0.00000     0.00000  0.0
    395    383    384    389   5     0.00000     0.00000     0.00000  0.0
    396    383    384    385   5     0.00000     0.00000     0.00000  0.0
    396    383    384    389   5     0.00000     0.00000     0.00000  0.0
    383    384    385    386   5     0.00000    30.33400     0.00000  0.0
    383    384    385    397   5     0.00000    30.33400     0.00000  0.0
    389    384    385    386   5     0.00000    30.33400     0.00000  0.0
    389    384    385    397   5     0.00000    30.33400     0.00000  0.0
    383    384    389    388   5     0.00000    30.33400     0.00000  0.0
    383    384    389    401   5     0.00000    30.33400     0.00000  0.0
    385    384    389    388   5     0.00000    30.33400     0.00000  0.0
    385    384    389    401   5     0.00000    30.33400     0.00000  0.0
    384    385    386    387   5     0.00000    30.33400     0.00000  0.0
    384    385    386    398   5     0.00000    30.33400     0.00000  0.0
    397    385    386    387   5     0.00000    30.33400     0.00000  0.0
    397    385    386    398   5     0.00000    30.33400     0.00000  0.0
    385    386    387    388   5     0.00000    30.33400     0.00000  0.0
    385    386    387    399   5     0.00000    30.33400     0.00000  0.0
    398    386    387    388   5     0.00000    30.33400     0.00000  0.0
    398    386    387    399   5     0.00000    30.33400     0.00000  0.0
    386    387    388    389   5     0.00000    30.33400     0.00000  0.0
    386    387    388    400   5     0.00000    30.33400     0.00000  0.0
    399    387    388    389   5     0.00000    30.33400     0.00000  0.0
    399    387    388    400   5     0.00000    30.33400     0.00000  0.0
    387    388    389    384   5     0.00000    30.33400     0.00000  0.0
    387    388    389    401   5     0.00000    30.33400     0.00000  0.0
    400    388    389    384   5     0.00000    30.33400     0.00000  0.0
    400    388    389    401   5     0.00000    30.33400     0.00000  0.0
    378    402    403    404   5     4.74884    -0.63178     1.67360  0.0
    378    402    403    405   5    -8.00818    -1.52298     2.46438  0.0
    378    402    403    427   5     4.74884    -0.63178     1.67360  0.0
    415    402    403    404   5     0.00000     0.00000     1.25520  0.0
    415    402    403    405   5     0.00000     0.00000    -0.94140  0.0
    415    402    403    427   5     0.00000     0.00000     1.25520  0.0
    416    402    403    404   5     0.00000     0.00000     1.25520  0.0
    416    402    403    405   5     0.00000     0.00000    -0.94140  0.0
    416    402    403    427   5     0.00000     0.00000     1.25520  0.0
    402    403    404    417   5     0.00000     0.00000     1.25520  0.0
    402    403    404    418   5     0.00000     0.00000     1.25520  0.0
    402    403    404    419   5     0.00000     0.00000     1.25520  0.0
    405    403    404    417   5     0.00000     0.00000    -0.94140  0.0
    405    403    404    418   5     0.00000     0.00000    -0.94140  0.0
    405    403    404    419   5     0.00000     0.00000    -0.94140  0.0
    427    403    404    417   5     0.00000     0.00000     1.25520  0.0
    427    403    404    418   5     0.00000     0.00000     1.25520  0.0
    427    403    404    419   5     0.00000     0.00000     1.25520  0.0
    402    403    405    406   5     0.00000     2.52295     0.00000  0.0
    402    403    405    407   5     0.00000     0.00000     3.07524  0.0
    404    403    405    406   5     0.00000     2.52295     0.00000  0.0
    404    403    405    407   5     0.00000     0.00000     3.07524  0.0
    427    403    405    406   5     0.00000     2.52295     0.00000  0.0
    427    403    405    407   5     0.00000     0.00000     3.07524  0.0
    402    403    427    428   5     4.74884    -0.63178     1.67360  0.0
    402    403    427    440   5     0.00000     0.00000     1.25520  0.0
    402    403    427    441   5     0.00000     0.00000     1.25520  0.0
    404    403    427    428   5     4.74884    -0.63178     1.67360  0.0
    404    403    427    440   5     0.00000     0.00000     1.25520  0.0
    404    403    427    441   5     0.00000     0.00000     1.25520  0.0
    405    403    427    428   5    -8.00818    -1.52298     2.46438  0.0
    405    403    427    440   5     0.00000     0.00000    -0.94140  0.0
    405    403    427    441   5     0.00000     0.00000    -0.94140  0.0
    403    405    407    408   5    13.65239    24.43456     0.00000  0.0
    406    405    407    408   5     0.00000    25.10400     0.00000  0.0
    405    407    408    409   5     0.00000    -3.67355     1.17989  0.0
    405    407    408    420   5     0.00000     0.00000     0.67362  0.0
    405    407    408    421   5     0.00000     0.00000     0.67362  0.0
    407    408    409    410   5     5.39736     1.23846     1.72799  0.0
    407    408    409    414   5     5.39736     1.23846     1.72799  0.0
    420    408    409    410   5     0.00000     0.00000     0.00000  0.0
    420    408    409    414   5     0.00000     0.00000     0.00000  0.0
    421    408    409    410   5     0.00000     0.00000     0.00000  0.0
    421    408    409    414   5     0.00000     0.00000     0.00000  0.0
    408    409    410    411   5     0.00000    30.33400     0.00000  0.0
    408    409    410    422   5     0.00000    30.33400     0.00000  0.0
    414    409    410    411   5     0.00000    30.33400     0.00000  0.0
    414    409    410    422   5     0.00000    30.33400     0.00000  0.0
    408    409    414    413   5     0.00000    30.33400     0.00000  0.0
    408    409    414    426   5     0.00000    30.33400     0.00000  0.0
    410    409    414    413   5     0.00000    30.33400     0.00000  0.0
    410    409    414    426   5     0.00000    30.33400     0.00000  0.0
    409    410    411    412   5     0.00000    30.33400     0.00000  0.0
    409    410    411    423   5     0.00000    30.33400     0.00000  0.0
    422    410    411    412   5     0.00000    30.33400     0.00000  0.0
    422    410    411    423   5     0.00000    30.33400     0.00000  0.0
    410    411    412    413   5     0.00000    30.33400     0.00000  0.0
    410    411    412    424   5     0.00000    30.33400     0.00000  0.0
    423    411    412    413   5     0.00000    30.33400     0.00000  0.0
    423    411    412    424   5     0.00000    30.33400     0.00000  0.0
    411    412    413    414   5     0.00000    30.33400     0.00000  0.0
    411    412    413    425   5     0.00000    30.33400     0.00000  0.0
    424    412    413    414   5     0.00000    30.33400     0.00000  0.0
    424    412    413    425   5     0.00000    30.33400     0.00000  0.0
    412    413    414    409   5     0.00000    30.33400     0.00000  0.0
    412    413    414    426   5     0.00000    30.33400     0.00000  0.0
    425    413    414    409   5     0.00000    30.33400     0.00000  0.0
    425    413    414    426   5     0.00000    30.33400     0.00000  0.0
    403    427    428    429   5     4.74884    -0.63178     1.67360  0.0
    403    427    428    430   5    -8.00818    -1.52298     2.46438  0.0
    403    427    428    452   5     4.74884    -0.63178     1.67360  0.0
    440    427    428    429   5     0.00000     0.00000     1.25520  0.0
    440    427    428    430   5     0.00000     0.00000    -0.94140  0.0
    440    427    428    452   5     0.00000     0.00000     1.25520  0.0
    441    427    428    429   5     0.00000     0.00000     1.25520  0.0
    441    427    428    430   5     0.00000     0.00000    -0.94140  0.0
    441    427    428    452   5     0.00000     0.00000     1.25520  0.0
    427    428    429    442   5     0.00000     0.00000     1.25520  0.0
    427    428    429    443   5     0.00000     0.00000     1.25520  0.0
    427    428    429    444   5     0.00000     0.00000     1.25520  0.0
    430    428    429    442   5     0.00000     0.00000    -0.94140  0.0
    430    428    429    443   5     0.00000     0.00000    -0.94140  0.0
    430    428    429    444   5     0.00000     0.00000    -0.94140  0.0
    452    428    429    442   5     0.00000     0.00000     1.25520  0.0
    452    428    429    443   5     0.00000     0.00000     1.25520  0.0
    452    428    429    444   5     0.00000     0.00000     1.25520  0.0
    427    428    430    431   5     0.00000     2.52295     0.00000  0.0
    427    428    430    432   5     0.00000     0.00000     3.07524  0.0
    429    428    430    431   5     0.00000     2.52295     0.00000  0.0
    429    428    430    432   5     0.00000     0.00000     3.07524  0.0
    452    428    430    431   5     0.00000     2.52295     0.00000  0.0
    452    428    430    432   5     0.00000     0.00000     3.07524  0.0
    427    428    452    453   5     4.74884    -0.63178     1.67360  0.0
    427    428    452    465   5     0.00000     0.00000     1.25520  0.0
    427    428    452    466   5     0.00000     0.00000     1.25520  0.0
    429    428    452    453   5     4.74884    -0.63178     1.67360  0.0
    429    428    452    465   5     0.00000     0.00000     1.25520  0.0
    429    428    452    466   5     0.00000     0.00000     1.25520  0.0
    430    428    452    453   5    -8.00818    -1.52298     2.46438  0.0
    430    428    452    465   5     0.00000     0.00000    -0.94140  0.0
    430    428    452    466   5     0.00000     0.00000    -0.94140  0.0
    428    430    432    433   5    13.65239    24.43456     0.00000  0.0
    431    430    432    433   5     0.00000    25.10400     0.00000  0.0
    430    432    433    434   5     0.00000    -3.67355     1.17989  0.0
    430    432    433    445   5     0.00000     0.00000     0.67362  0.0
    430    432    433    446   5     0.00000     0.00000     0.67362  0.0
    432    433    434    435   5     5.39736     1.23846     1.72799  0.0
    432    433    434    439   5     5.39736     1.23846     1.72799  0.0
    445    433    434    435   5     0.00000     0.00000     0.00000  0.0
    445    433    434    439   5     0.00000     0.00000     0.00000  0.0
    446    433    434    435   5     0.00000     0.00000     0.00000  0.0
    446    433    434    439   5     0.00000     0.00000     0.00000  0.0
    433    434    435    436   5     0.00000    30.33400     0.00000  0.0
    433    434    435    447   5     0.00000    30.33400     0.00000  0.0
    439    434    435    436   5     0.00000    30.33400     0.00000  0.0
    439    434    435    447   5     0.00000    30.33400     0.00000  0.0
    433    434    439    438   5     0.00000    30.33400     0.00000  0.0
    433    434    439    451   5     0.00000    30.33400     0.00000  0.0
    435    434    439    438   5     0.00000    30.33400     0.00000  0.0
    435    434    439    451   5     0.00000    30.33400     0.00000  0.0
    434    435    436    437   5     0.00000    30.33400     0.00000  0.0
    434    435    436    448   5     0.00000    30.33400     0.00000  0.0
    447    435    436    437   5     0.00000    30.33400     0.00000  0.0
    447    435    436    448   5     0.00000    30.33400     0.00000  0.0
    435    436    437    438   5     0.00000    30.33400     0.00000  0.0
    435    436    437    449   5     0.00000    30.33400     0.00000  0.0
    448    436    437    438   5     0.00000    30.33400     0.00000  0.0
    448    436    437    449   5     0.00000    30.33400     0.00000  0.0
    436    437    438    439   5     0.00000    30.33400     0.00000  0.0
    436    437    438    450   5     0.00000    30.33400     0.00000  0.0
    449    437    438    439   5     0.00000    30.33400     0.00000  0.0
    449    437    438    450   5     0.00000    30.33400     0.00000  0.0
    437    438    439    434   5     0.00000    30.33400     0.00000  0.0
    437    438    439    451   5     0.00000    30.33400     0.00000  0.0
    450    438    439    434   5     0.00000    30.33400     0.00000  0.0
    450    438    439    451   5     0.00000    30.33400     0.00000  0.0
    428    452    453    454   5     4.74884    -0.63178     1.67360  0.0
    428    452    453    455   5    -8.00818    -1.52298     2.46438  0.0
    428    452    453    477   5     4.74884    -0.63178     1.67360  0.0
    465    452    453    454   5     0.00000     0.00000     1.25520  0.0
    465    452    453    455   5     0.00000     0.00000    -0.94140  0.0
    465    452    453    477   5     0.00000     0.00000     1.25520  0.0
    466    452    453    454   5     0.00000     0.00000     1.25520  0.0
    466    452    453    455   5     0.00000     0.00000    -0.94140  0.0
    466    452    453    477   5     0.00000     0.00000     1.25520  0.0
    452    453    454    467   5     0.00000     0.00000     1.25520  0.0
    452    453    454    468   5     0.00000     0.00000     1.25520  0.0
    452    453    454    469   5     0.00000     0.00000     1.25520  0.0
    455    453    454    467   5     0.00000     0.00000    -0.94140  0.0
    455    453    454    468   5     0.00000     0.00000    -0.94140  0.0
    455    453    454    469   5     0.00000     0.00000    -0.94140  0.0
    477    453    454    467   5     0.00000     0.00000     1.25520  0.0
    477    453    454    468   5     0.00000     0.00000     1.25520  0.0
    477    453    454    469   5     0.00000     0.00000     1.25520  0.0
    452    453    455    456   5     0.00000     2.52295     0.00000  0.0
    452    453    455    457   5     0.00000     0.00000     3.07524  0.0
    454    453    455    456   5     0.00000     2.52295     0.00000  0.0
    454    453    455    457   5     0.00000     0.00000     3.07524  0.0
    477    453    455    456   5     0.00000     2.52295     0.00000  0.0
    477    453    455    457   5     0.00000     0.00000     3.07524  0.0
    452    453    477    478   5     4.74884    -0.63178     1.67360  0.0
    452    453    477    490   5     0.00000     0.00000     1.25520  0.0
    452    453    477    491   5     0.00000     0.00000     1.25520  0.0
    454    453    477    478   5     4.74884    -0.63178     1.67360  0.0
    454    453    477    490   5     0.00000     0.00000     1.25520  0.0
    454    453    477    491   5     0.00000     0.00000     1.25520  0.0
    455    453    477    478   5    -8.00818    -1.52298     2.46438  0.0
    455    453    477    490   5     0.00000     0.00000    -0.94140  0.0
    455    453    477    491   5     0.00000     0.00000    -0.94140  0.0
    453    455    457    458   5    13.65239    24.43456     0.00000  0.0
    456    455    457    458   5     0.00000    25.10400     0.00000  0.0
    455    457    458    459   5     0.00000    -3.67355     1.17989  0.0
    455    457    458    470   5     0.00000     0.00000     0.67362  0.0
    455    457    458    471   5     0.00000     0.00000     0.67362  0.0
    457    458    459    460   5     5.39736     1.23846     1.72799  0.0
    457    458    459    464   5     5.39736     1.23846     1.72799  0.0
    470    458    459    460   5     0.00000     0.00000     0.00000  0.0
    470    458    459    464   5     0.00000     0.00000     0.00000  0.0
    471    458    459    460   5     0.00000     0.00000     0.00000  0.0
    471    458    459    464   5     0.00000     0.00000     0.00000  0.0
    458    459    460    461   5     0.00000    30.33400     0.00000  0.0
    458    459    460    472   5     0.00000    30.33400     0.00000  0.0
    464    459    460    461   5     0.00000    30.33400     0.00000  0.0
    464    459    460    472   5     0.00000    30.33400     0.00000  0.0
    458    459    464    463   5     0.00000    30.33400     0.00000  0.0
    458    459    464    476   5     0.00000    30.33400     0.00000  0.0
    460    459    464    463   5     0.00000    30.33400     0.00000  0.0
    460    459    464    476   5     0.00000    30.33400     0.00000  0.0
    459    460    461    462   5     0.00000    30.33400     0.00000  0.0
    459    460    461    473   5     0.00000    30.33400     0.00000  0.0
    472    460    461    462   5     0.00000    30.33400     0.00000  0.0
    472    460    461    473   5     0.00000    30.33400     0.00000  0.0
    460    461    462    463   5     0.00000    30.33400     0.00000  0.0
    460    461    462    474   5     0.00000    30.33400     0.00000  0.0
    473    461    462    463   5     0.00000    30.33400     0.00000  0.0
    473    461    462    474   5     0.00000    30.33400     0.00000  0.0
    461    462    463    464   5     0.00000    30.33400     0.00000  0.0
    461    462    463    475   5     0.00000    30.33400     0.00000  0.0
    474    462    463    464   5     0.00000    30.33400     0.00000  0.0
    474    462    463    475   5     0.00000    30.33400     0.00000  0.0
    462    463    464    459   5     0.00000    30.33400     0.00000  0.0
    462    463    464    476   5     0.00000    30.33400     0.00000  0.0
    475    463    464    459   5     0.00000    30.33400     0.00000  0.0
    475    463    464    476   5     0.00000    30.33400     0.00000  0.0
    453    477    478    479   5     4.74884    -0.63178     1.67360  0.0
    453    477    478    480   5    -8.00818    -1.52298     2.46438  0.0
    453    477    478    502   5     0.00000     0.00000     1.25520  0.0
    490    477    478    479   5     0.00000     0.00000     1.25520  0.0
    490    477    478    480   5     0.00000     0.00000    -0.94140  0.0
    490    477    478    502   5     0.00000     0.00000     1.25520  0.0
    491    477    478    479   5     0.00000     0.00000     1.25520  0.0
    491    477    478    480   5     0.00000     0.00000    -0.94140  0.0
    491    477    478    502   5     0.00000     0.00000     1.25520  0.0
    477    478    479    492   5     0.00000     0.00000     1.25520  0.0
    477    478    479    493   5     0.00000     0.00000     1.25520  0.0
    477    478    479    494   5     0.00000     0.00000     1.25520  0.0
    480    478    479    492   5     0.00000     0.00000    -0.94140  0.0
    480    478    479    493   5     0.00000     0.00000    -0.94140  0.0
    480    478    479    494   5     0.00000     0.00000    -0.94140  0.0
    502    478    479    492   5     0.00000     0.00000     1.25520  0.0
    502    478    479    493   5     0.00000     0.00000     1.25520  0.0
    502    478    479    494   5     0.00000     0.00000     1.25520  0.0
    477    478    480    481   5     0.00000     2.52295     0.00000  0.0
    477    478    480    482   5     0.00000     0.00000     3.07524  0.0
    479    478    480    481   5     0.00000     2.52295     0.00000  0.0
    479    478    480    482   5     0.00000     0.00000     3.07524  0.0
    502    478    480    481   5     0.00000     0.00000     0.00000  0.0
    502    478    480    482   5     0.00000     0.00000     0.00000  0.0
    478    480    482    483   5    13.65239    24.43456     0.00000  0.0
    481    480    482    483   5     0.00000    25.10400     0.00000  0.0
    480    482    483    484   5     0.00000    -3.67355     1.17989  0.0
    480    482    483    495   5     0.00000     0.00000     0.67362  0.0
    480    482    483    496   5     0.00000     0.00000     0.67362  0.0
    482    483    484    485   5     5.39736     1.23846     1.72799  0.0
    482    483    484    489   5     5.39736     1.23846     1.72799  0.0
    495    483    484    485   5     0.00000     0.00000     0.00000  0.0
    495    483    484    489   5     0.00000     0.00000     0.00000  0.0
    496    483    484    485   5     0.00000     0.00000     0.00000  0.0
    496    483    484    489   5     0.00000     0.00000     0.00000  0.0
    483    484    485    486   5     0.00000    30.33400     0.00000  0.0
    483    484    485    497   5     0.00000    30.33400     0.00000  0.0
    489    484    485    486   5     0.00000    30.33400     0.00000  0.0
    489    484    485    497   5     0.00000    30.33400     0.00000  0.0
    483    484    489    488   5     0.00000    30.33400     0.00000  0.0
    483    484    489    501   5     0.00000    30.33400     0.00000  0.0
    485    484    489    488   5     0.00000    30.33400     0.00000  0.0
    485    484    489    501   5     0.00000    30.33400     0.00000  0.0
    484    485    486    487   5     0.00000    30.33400     0.00000  0.0
    484    485    486    498   5     0.00000    30.33400     0.00000  0.0
    497    485    486    487   5     0.00000    30.33400     0.00000  0.0
    497    485    486    498   5     0.00000    30.33400     0.00000  0.0
    485    486    487    488   5     0.00000    30.33400     0.00000  0.0
    485    486    487    499   5     0.00000    30.33400     0.00000  0.0
    498    486    487    488   5     0.00000    30.33400     0.00000  0.0
    498    486    487    499   5     0.00000    30.33400     0.00000  0.0
    486    487    488    489   5     0.00000    30.33400     0.00000  0.0
    486    487    488    500   5     0.00000    30.33400     0.00000  0.0
    499    487    488    489   5     0.00000    30.33400     0.00000  0.0
    499    487    488    500   5     0.00000    30.33400     0.00000  0.0
    487    488    489    484   5     0.00000    30.33400     0.00000  0.0
    487    488    489    501   5     0.00000    30.33400     0.00000  0.0
    500    488    489    484   5     0.00000    30.33400     0.00000  0.0
    500    488    489    501   5     0.00000    30.33400     0.00000  0.0

[ dihedrals ]
; Improper dihedrals
; h   i   j   k   funct
      2      5      4      6   5     0.00000    87.86400     0.00000  0.0
      7      9      8     13   5     0.00000    33.47200     0.00000  0.0
      8     10      9     21   5     0.00000     9.20480     0.00000  0.0
      9     11     10     22   5     0.00000     9.20480     0.00000  0.0
     10     12     11     23   5     0.00000     9.20480     0.00000  0.0
     11     13     12     24   5     0.00000     9.20480     0.00000  0.0
      8     12     13     25   5     0.00000     9.20480     0.00000  0.0
     28     31     30     32   5     0.00000    87.86400     0.00000  0.0
     33     35     34     39   5     0.00000    33.47200     0.00000  0.0
     34     36     35     47   5     0.00000     9.20480     0.00000  0.0
     35     37     36     48   5     0.00000     9.20480     0.00000  0.0
     36     38     37     49   5     0.00000     9.20480     0.00000  0.0
     37     39     38     50   5     0.00000     9.20480     0.00000  0.0
     34     38     39     51   5     0.00000     9.20480     0.00000  0.0
     53     56     55     57   5     0.00000    87.86400     0.00000  0.0
     58     60     59     64   5     0.00000    33.47200     0.00000  0.0
     59     61     60     72   5     0.00000     9.20480     0.00000  0.0
     60     62     61     73   5     0.00000     9.20480     0.00000  0.0
     61     63     62     74   5     0.00000     9.20480     0.00000  0.0
     62     64     63     75   5     0.00000     9.20480     0.00000  0.0
     59     63     64     76   5     0.00000     9.20480     0.00000  0.0
     78     81     80     82   5     0.00000    87.86400     0.00000  0.0
     83     85     84     89   5     0.00000    33.47200     0.00000  0.0
     84     86     85     97   5     0.00000     9.20480     0.00000  0.0
     85     87     86     98   5     0.00000     9.20480     0.00000  0.0
     86     88     87     99   5     0.00000     9.20480     0.00000  0.0
     87     89     88    100   5     0.00000     9.20480     0.00000  0.0
     84     88     89    101   5     0.00000     9.20480     0.00000  0.0
    103    106    105    107   5     0.00000    87.86400     0.00000  0.0
    108    110    109    114   5     0.00000    33.47200     0.00000  0.0
    109    111    110    122   5     0.00000     9.20480     0.00000  0.0
    110    112    111    123   5     0.00000     9.20480     0.00000  0.0
    111    113    112    124   5     0.00000     9.20480     0.00000  0.0
    112    114    113    125   5     0.00000     9.20480     0.00000  0.0
    109    113    114    126   5     0.00000     9.20480     0.00000  0.0
    128    131    130    132   5     0.00000    87.86400     0.00000  0.0
    133    135    134    139   5     0.00000    33.47200     0.00000  0.0
    134    136    135    147   5     0.00000     9.20480     0.00000  0.0
    135    137    136    148   5     0.00000     9.20480     0.00000  0.0
    136    138    137    149   5     0.00000     9.20480     0.00000  0.0
    137    139    138    150   5     0.00000     9.20480     0.00000  0.0
    134    138    139    151   5     0.00000     9.20480     0.00000  0.0
    153    156    155    157   5     0.00000    87.86400     0.00000  0.0
    158    160    159    164   5     0.00000    33.47200     0.00000  0.0
    159    161    160    172   5     0.00000     9.20480     0.00000  0.0
    160    162    161    173   5     0.00000     9.20480     0.00000  0.0
    161    163    162    174   5     0.00000     9.20480     0.00000  0.0
    162    164    163    175   5     0.00000     9.20480     0.00000  0.0
    159    163    164    176   5     0.00000     9.20480     0.00000  0.0
    178    181    180    182   5     0.00000    87.86400     0.00000  0.0
    183    185    184    189   5     0.00000    33.47200     0.00000  0.0
    184    186    185    197   5     0.00000     9.20480     0.00000  0.0
    185    187    186    198   5     0.00000     9.20480     0.00000  0.0
    186    188    187    199   5     0.00000     9.20480     0.00000  0.0
    187    189    188    200   5     0.00000     9.20480     0.00000  0.0
    184    188    189    201   5     0.00000     9.20480     0.00000  0.0
    203    206    205    207   5     0.00000    87.86400     0.00000  0.0
    208    210    209    214   5     0.00000    33.47200     0.00000  0.0
    209    211    210    222   5     0.00000     9.20480     0.00000  0.0
    210    212    211    223   5     0.00000     9.20480     0.00000  0.0
    211    213    212    224   5     0.00000     9.20480     0.00000  0.0
    212    214    213    225   5     0.00000     9.20480     0.00000  0.0
    209    213    214    226   5     0.00000     9.20480     0.00000  0.0
    228    231    230    232   5     0.00000    87.86400     0.00000  0.0
    233    235    234    239   5     0.00000    33.47200     0.00000  0.0
    234    236    235    247   5     0.00000     9.20480     0.00000  0.0
    235    237    236    248   5     0.00000     9.20480     0.00000  0.0
    236    238    237    249   5     0.00000     9.20480     0.00000  0.0
    237    239    238    250   5     0.00000     9.20480     0.00000  0.0
    234    238    239    251   5     0.00000     9.20480     0.00000  0.0
    253    256    255    257   5     0.00000    87.86400     0.00000  0.0
    258    260    259    264   5     0.00000    33.47200     0.00000  0.0
    259    261    260    272   5     0.00000     9.20480     0.00000  0.0
    260    262    261    273   5     0.00000     9.20480     0.00000  0.0
    261    263    262    274   5     0.00000     9.20480     0.00000  0.0
    262    264    263    275   5     0.00000     9.20480     0.00000  0.0
    259    263    264    276   5     0.00000     9.20480     0.00000  0.0
    278    281    280    282   5     0.00000    87.86400     0.00000  0.0
    283    285    284    289   5     0.00000    33.47200     0.00000  0.0
    284    286    285    297   5     0.00000     9.20480     0.00000  0.0
    285    287    286    298   5     0.00000     9.20480     0.00000  0.0
    286    288    287    299   5     0.00000     9.20480     0.00000  0.0
    287    289    288    300   5     0.00000     9.20480     0.00000  0.0
    284    288    289    301   5     0.00000     9.20480     0.00000  0.0
    303    306    305    307   5     0.00000    87.86400     0.00000  0.0
    308    310    309    314   5     0.00000    33.47200     0.00000  0.0
    309    311    310    322   5     0.00000     9.20480     0.00000  0.0
    310    312    311    323   5     0.00000     9.20480     0.00000  0.0
    311    313    312    324   5     0.00000     9.20480     0.00000  0.0
    312    314    313    325   5     0.00000     9.20480     0.00000  0.0
    309    313    314    326   5     0.00000     9.20480     0.00000  0.0
    328    331    330    332   5     0.00000    87.86400     0.00000  0.0
    333    335    334    339   5     0.00000    33.47200     0.00000  0.0
    334    336    335    347   5     0.00000     9.20480     0.00000  0.0
    335    337    336    348   5     0.00000     9.20480     0.00000  0.0
    336    338    337    349   5     0.00000     9.20480     0.00000  0.0
    337    339    338    350   5     0.00000     9.20480     0.00000  0.0
    334    338    339    351   5     0.00000     9.20480     0.00000  0.0
    353    356    355    357   5     0.00000    87.86400     0.00000  0.0
    358    360    359    364   5     0.00000    33.47200     0.00000  0.0
    359    361    360    372   5     0.00000     9.20480     0.00000  0.0
    360    362    361    373   5     0.00000     9.20480     0.00000  0.0
    361    363    362    374   5     0.00000     9.20480     0.00000  0.0
    362    364    363    375   5     0.00000     9.20480     0.00000  0.0
    359    363    364    376   5     0.00000     9.20480     0.00000  0.0
    378    381    380    382   5     0.00000    87.86400     0.00000  0.0
    383    385    384    389   5     0.00000    33.47200     0.00000  0.0
    384    386    385    397   5     0.00000     9.20480     0.00000  0.0
    385    387    386    398   5     0.00000     9.20480     0.00000  0.0
    386    388    387    399   5     0.00000     9.20480     0.00000  0.0
    387    389    388    400   5     0.00000     9.20480     0.00000  0.0
    384    388    389    401   5     0.00000     9.20480     0.00000  0.0
    403    406    405    407   5     0.00000    87.86400     0.00000  0.0
    408    410    409    414   5     0.00000    33.47200     0.00000  0.0
    409    411    410    422   5     0.00000     9.20480     0.00000  0.0
    410    412    411    423   5     0.00000     9.20480     0.00000  0.0
    411    413    412    424   5     0.00000     9.20480     0.00000  0.0
    412    414    413    425   5     0.00000     9.20480     0.00000  0.0
    409    413    414    426   5     0.00000     9.20480     0.00000  0.0
    428    431    430    432   5     0.00000    87.86400     0.00000  0.0
    433    435    434    439   5     0.00000    33.47200     0.00000  0.0
    434    436    435    447   5     0.00000     9.20480     0.00000  0.0
    435    437    436    448   5     0.00000     9.20480     0.00000  0.0
    436    438    437    449   5     0.00000     9.20480     0.00000  0.0
    437    439    438    450   5     0.00000     9.20480     0.00000  0.0
    434    438    439    451   5     0.00000     9.20480     0.00000  0.0
    453    456    455    457   5     0.00000    87.86400     0.00000  0.0
    458    460    459    464   5     0.00000    33.47200     0.00000  0.0
    459    461    460    472   5     0.00000     9.20480     0.00000  0.0
    460    462    461    473   5     0.00000     9.20480     0.00000  0.0
    461    463    462    474   5     0.00000     9.20480     0.00000  0.0
    462    464    463    475   5     0.00000     9.20480     0.00000  0.0
    459    463    464    476   5     0.00000     9.20480     0.00000  0.0
    478    481    480    482   5     0.00000    87.86400     0.00000  0.0
    483    485    484    489   5     0.00000    33.47200     0.00000  0.0
    484    486    485    497   5     0.00000     9.20480     0.00000  0.0
    485    487    486    498   5     0.00000     9.20480     0.00000  0.0
    486    488    487    499   5     0.00000     9.20480     0.00000  0.0
    487    489    488    500   5     0.00000     9.20480     0.00000  0.0
    484    488    489    501   5     0.00000     9.20480     0.00000  0.0
