;
; Gromacs include topology (itp) file.
; For Molecular Group XYZ
; Force field scheme: opls2005
; Produced from DL_FIELD v4.11
;


[ moleculetype ]
; name    nrexcl
XYZ    3

[ atoms ]
; nr   type   resnr   residu    atom    cgnr    charge    mass
    1       CO4    1  MOL      C1     1   0.4500000   12.0115
    2         O    1  MOL      O2     2  -0.4500000   15.9994
    3        CT    1  MOL      C3     3  -0.1200000   12.0115
    4        CT    1  MOL      C4     4  -0.1200000   12.0115
    5        CT    1  MOL      C5     5  -0.1200000   12.0115
    6        CT    1  MOL      C6     6  -0.1200000   12.0115
    7        CT    1  MOL      C7     7   0.1900000   12.0115
    8       OES    1  MOL      O8     8  -0.3300000   15.9994
    9       HAE    1  MOL      H9     9   0.0600000    1.0080
   10       HAE    1  MOL     H10    10   0.0600000    1.0080
   11        HC    1  MOL     H11    11   0.0600000    1.0080
   12        HC    1  MOL     H12    12   0.0600000    1.0080
   13        HC    1  MOL     H13    13   0.0600000    1.0080
   14        HC    1  MOL     H14    14   0.0600000    1.0080
   15        HC    1  MOL     H15    15   0.0600000    1.0080
   16        HC    1  MOL     H16    16   0.0600000    1.0080
   17       HAE    1  MOL     H17    17   0.0300000    1.0080
   18       HAE    1  MOL     H18    18   0.0300000    1.0080
   19       HAE    1  MOL     H19    19   0.0000000    1.0080
   20       CO4    1  MOL     C20    20   0.5100000   12.0115
   21         O    1  MOL     O21    21  -0.4300000   15.9994
   22        CT    1  MOL     C22    22  -0.1200000   12.0115
   23        CT    1  MOL     C23    23  -0.1200000   12.0115
   24        CT    1  MOL     C24    24  -0.1200000   12.0115
   25        CT    1  MOL     C25    25  -0.1200000   12.0115
   26        CT    1  MOL     C26    26   0.1900000   12.0115
   27       OES    1  MOL     O27    27  -0.3300000   15.9994
   28       HAE    1  MOL     H28    28   0.0600000    1.0080
   29       HAE    1  MOL     H29    29   0.0600000    1.0080
   30        HC    1  MOL     H30    30   0.0600000    1.0080
   31        HC    1  MOL     H31    31   0.0600000    1.0080
   32        HC    1  MOL     H32    32   0.0600000    1.0080
   33        HC    1  MOL     H33    33   0.0600000    1.0080
   34        HC    1  MOL     H34    34   0.0600000    1.0080
   35        HC    1  MOL     H35    35   0.0600000    1.0080
   36       HAE    1  MOL     H36    36   0.0300000    1.0080
   37       HAE    1  MOL     H37    37   0.0300000    1.0080
   38       CO4    1  MOL     C38    38   0.5100000   12.0115
   39         O    1  MOL     O39    39  -0.4300000   15.9994
   40        CT    1  MOL     C40    40  -0.1200000   12.0115
   41        CT    1  MOL     C41    41  -0.1200000   12.0115
   42        CT    1  MOL     C42    42  -0.1200000   12.0115
   43        CT    1  MOL     C43    43  -0.1200000   12.0115
   44        CT    1  MOL     C44    44   0.1900000   12.0115
   45       OES    1  MOL     O45    45  -0.3300000   15.9994
   46       HAE    1  MOL     H46    46   0.0600000    1.0080
   47       HAE    1  MOL     H47    47   0.0600000    1.0080
   48        HC    1  MOL     H48    48   0.0600000    1.0080
   49        HC    1  MOL     H49    49   0.0600000    1.0080
   50        HC    1  MOL     H50    50   0.0600000    1.0080
   51        HC    1  MOL     H51    51   0.0600000    1.0080
   52        HC    1  MOL     H52    52   0.0600000    1.0080
   53        HC    1  MOL     H53    53   0.0600000    1.0080
   54       HAE    1  MOL     H54    54   0.0300000    1.0080
   55       HAE    1  MOL     H55    55   0.0300000    1.0080
   56       CO4    1  MOL     C56    56   0.5100000   12.0115
   57         O    1  MOL     O57    57  -0.4300000   15.9994
   58        CT    1  MOL     C58    58  -0.1200000   12.0115
   59        CT    1  MOL     C59    59  -0.1200000   12.0115
   60        CT    1  MOL     C60    60  -0.1200000   12.0115
   61        CT    1  MOL     C61    61  -0.1200000   12.0115
   62        CT    1  MOL     C62    62   0.1900000   12.0115
   63       OES    1  MOL     O63    63  -0.3300000   15.9994
   64       HAE    1  MOL     H64    64   0.0600000    1.0080
   65       HAE    1  MOL     H65    65   0.0600000    1.0080
   66        HC    1  MOL     H66    66   0.0600000    1.0080
   67        HC    1  MOL     H67    67   0.0600000    1.0080
   68        HC    1  MOL     H68    68   0.0600000    1.0080
   69        HC    1  MOL     H69    69   0.0600000    1.0080
   70        HC    1  MOL     H70    70   0.0600000    1.0080
   71        HC    1  MOL     H71    71   0.0600000    1.0080
   72       HAE    1  MOL     H72    72   0.0300000    1.0080
   73       HAE    1  MOL     H73    73   0.0300000    1.0080
   74       CO4    1  MOL     C74    74   0.5100000   12.0115
   75         O    1  MOL     O75    75  -0.4300000   15.9994
   76        CT    1  MOL     C76    76  -0.1200000   12.0115
   77        CT    1  MOL     C77    77  -0.1200000   12.0115
   78        CT    1  MOL     C78    78  -0.1200000   12.0115
   79        CT    1  MOL     C79    79  -0.1200000   12.0115
   80        CT    1  MOL     C80    80   0.1900000   12.0115
   81       OES    1  MOL     O81    81  -0.3300000   15.9994
   82       HAE    1  MOL     H82    82   0.0600000    1.0080
   83       HAE    1  MOL     H83    83   0.0600000    1.0080
   84        HC    1  MOL     H84    84   0.0600000    1.0080
   85        HC    1  MOL     H85    85   0.0600000    1.0080
   86        HC    1  MOL     H86    86   0.0600000    1.0080
   87        HC    1  MOL     H87    87   0.0600000    1.0080
   88        HC    1  MOL     H88    88   0.0600000    1.0080
   89        HC    1  MOL     H89    89   0.0600000    1.0080
   90       HAE    1  MOL     H90    90   0.0300000    1.0080
   91       HAE    1  MOL     H91    91   0.0300000    1.0080
   92       CO4    1  MOL     C92    92   0.5100000   12.0115
   93         O    1  MOL     O93    93  -0.4300000   15.9994
   94        CT    1  MOL     C94    94  -0.1200000   12.0115
   95        CT    1  MOL     C95    95  -0.1200000   12.0115
   96        CT    1  MOL     C96    96  -0.1200000   12.0115
   97        CT    1  MOL     C97    97  -0.1200000   12.0115
   98        CT    1  MOL     C98    98   0.1900000   12.0115
   99       OES    1  MOL     O99    99  -0.3300000   15.9994
  100       HAE    1  MOL    H100   100   0.0600000    1.0080
  101       HAE    1  MOL    H101   101   0.0600000    1.0080
  102        HC    1  MOL    H102   102   0.0600000    1.0080
  103        HC    1  MOL    H103   103   0.0600000    1.0080
  104        HC    1  MOL    H104   104   0.0600000    1.0080
  105        HC    1  MOL    H105   105   0.0600000    1.0080
  106        HC    1  MOL    H106   106   0.0600000    1.0080
  107        HC    1  MOL    H107   107   0.0600000    1.0080
  108       HAE    1  MOL    H108   108   0.0300000    1.0080
  109       HAE    1  MOL    H109   109   0.0300000    1.0080
  110       CO4    1  MOL    C110   110   0.5100000   12.0115
  111         O    1  MOL    O111   111  -0.4300000   15.9994
  112        CT    1  MOL    C112   112  -0.1200000   12.0115
  113        CT    1  MOL    C113   113  -0.1200000   12.0115
  114        CT    1  MOL    C114   114  -0.1200000   12.0115
  115        CT    1  MOL    C115   115  -0.1200000   12.0115
  116        CT    1  MOL    C116   116   0.1900000   12.0115
  117       OES    1  MOL    O117   117  -0.3300000   15.9994
  118       HAE    1  MOL    H118   118   0.0600000    1.0080
  119       HAE    1  MOL    H119   119   0.0600000    1.0080
  120        HC    1  MOL    H120   120   0.0600000    1.0080
  121        HC    1  MOL    H121   121   0.0600000    1.0080
  122        HC    1  MOL    H122   122   0.0600000    1.0080
  123        HC    1  MOL    H123   123   0.0600000    1.0080
  124        HC    1  MOL    H124   124   0.0600000    1.0080
  125        HC    1  MOL    H125   125   0.0600000    1.0080
  126       HAE    1  MOL    H126   126   0.0300000    1.0080
  127       HAE    1  MOL    H127   127   0.0300000    1.0080
  128       CO4    1  MOL    C128   128   0.5100000   12.0115
  129         O    1  MOL    O129   129  -0.4300000   15.9994
  130        CT    1  MOL    C130   130  -0.1200000   12.0115
  131        CT    1  MOL    C131   131  -0.1200000   12.0115
  132        CT    1  MOL    C132   132  -0.1200000   12.0115
  133        CT    1  MOL    C133   133  -0.1200000   12.0115
  134        CT    1  MOL    C134   134   0.1900000   12.0115
  135       OES    1  MOL    O135   135  -0.3300000   15.9994
  136       HAE    1  MOL    H136   136   0.0600000    1.0080
  137       HAE    1  MOL    H137   137   0.0600000    1.0080
  138        HC    1  MOL    H138   138   0.0600000    1.0080
  139        HC    1  MOL    H139   139   0.0600000    1.0080
  140        HC    1  MOL    H140   140   0.0600000    1.0080
  141        HC    1  MOL    H141   141   0.0600000    1.0080
  142        HC    1  MOL    H142   142   0.0600000    1.0080
  143        HC    1  MOL    H143   143   0.0600000    1.0080
  144       HAE    1  MOL    H144   144   0.0300000    1.0080
  145       HAE    1  MOL    H145   145   0.0300000    1.0080
  146       CO4    1  MOL    C146   146   0.5100000   12.0115
  147         O    1  MOL    O147   147  -0.4300000   15.9994
  148        CT    1  MOL    C148   148  -0.1200000   12.0115
  149        CT    1  MOL    C149   149  -0.1200000   12.0115
  150        CT    1  MOL    C150   150  -0.1200000   12.0115
  151        CT    1  MOL    C151   151  -0.1200000   12.0115
  152        CT    1  MOL    C152   152   0.1900000   12.0115
  153       OES    1  MOL    O153   153  -0.3300000   15.9994
  154       HAE    1  MOL    H154   154   0.0600000    1.0080
  155       HAE    1  MOL    H155   155   0.0600000    1.0080
  156        HC    1  MOL    H156   156   0.0600000    1.0080
  157        HC    1  MOL    H157   157   0.0600000    1.0080
  158        HC    1  MOL    H158   158   0.0600000    1.0080
  159        HC    1  MOL    H159   159   0.0600000    1.0080
  160        HC    1  MOL    H160   160   0.0600000    1.0080
  161        HC    1  MOL    H161   161   0.0600000    1.0080
  162       HAE    1  MOL    H162   162   0.0300000    1.0080
  163       HAE    1  MOL    H163   163   0.0300000    1.0080
  164       CO4    1  MOL    C164   164   0.5100000   12.0115
  165         O    1  MOL    O165   165  -0.4300000   15.9994
  166        CT    1  MOL    C166   166  -0.1200000   12.0115
  167        CT    1  MOL    C167   167  -0.1200000   12.0115
  168        CT    1  MOL    C168   168  -0.1200000   12.0115
  169        CT    1  MOL    C169   169  -0.1200000   12.0115
  170        CT    1  MOL    C170   170   0.1900000   12.0115
  171       OES    1  MOL    O171   171  -0.3300000   15.9994
  172       HAE    1  MOL    H172   172   0.0600000    1.0080
  173       HAE    1  MOL    H173   173   0.0600000    1.0080
  174        HC    1  MOL    H174   174   0.0600000    1.0080
  175        HC    1  MOL    H175   175   0.0600000    1.0080
  176        HC    1  MOL    H176   176   0.0600000    1.0080
  177        HC    1  MOL    H177   177   0.0600000    1.0080
  178        HC    1  MOL    H178   178   0.0600000    1.0080
  179        HC    1  MOL    H179   179   0.0600000    1.0080
  180       HAE    1  MOL    H180   180   0.0300000    1.0080
  181       HAE    1  MOL    H181   181   0.0300000    1.0080
  182       CO4    1  MOL    C182   182   0.5100000   12.0115
  183         O    1  MOL    O183   183  -0.4300000   15.9994
  184        CT    1  MOL    C184   184  -0.1200000   12.0115
  185        CT    1  MOL    C185   185  -0.1200000   12.0115
  186        CT    1  MOL    C186   186  -0.1200000   12.0115
  187        CT    1  MOL    C187   187  -0.1200000   12.0115
  188        CT    1  MOL    C188   188   0.1900000   12.0115
  189       OES    1  MOL    O189   189  -0.3300000   15.9994
  190       HAE    1  MOL    H190   190   0.0600000    1.0080
  191       HAE    1  MOL    H191   191   0.0600000    1.0080
  192        HC    1  MOL    H192   192   0.0600000    1.0080
  193        HC    1  MOL    H193   193   0.0600000    1.0080
  194        HC    1  MOL    H194   194   0.0600000    1.0080
  195        HC    1  MOL    H195   195   0.0600000    1.0080
  196        HC    1  MOL    H196   196   0.0600000    1.0080
  197        HC    1  MOL    H197   197   0.0600000    1.0080
  198       HAE    1  MOL    H198   198   0.0300000    1.0080
  199       HAE    1  MOL    H199   199   0.0300000    1.0080
  200       CO4    1  MOL    C200   200   0.5100000   12.0115
  201         O    1  MOL    O201   201  -0.4300000   15.9994
  202        CT    1  MOL    C202   202  -0.1200000   12.0115
  203        CT    1  MOL    C203   203  -0.1200000   12.0115
  204        CT    1  MOL    C204   204  -0.1200000   12.0115
  205        CT    1  MOL    C205   205  -0.1200000   12.0115
  206        CT    1  MOL    C206   206   0.1900000   12.0115
  207       OES    1  MOL    O207   207  -0.3300000   15.9994
  208       HAE    1  MOL    H208   208   0.0600000    1.0080
  209       HAE    1  MOL    H209   209   0.0600000    1.0080
  210        HC    1  MOL    H210   210   0.0600000    1.0080
  211        HC    1  MOL    H211   211   0.0600000    1.0080
  212        HC    1  MOL    H212   212   0.0600000    1.0080
  213        HC    1  MOL    H213   213   0.0600000    1.0080
  214        HC    1  MOL    H214   214   0.0600000    1.0080
  215        HC    1  MOL    H215   215   0.0600000    1.0080
  216       HAE    1  MOL    H216   216   0.0300000    1.0080
  217       HAE    1  MOL    H217   217   0.0300000    1.0080
  218       CO4    1  MOL    C218   218   0.5100000   12.0115
  219         O    1  MOL    O219   219  -0.4300000   15.9994
  220        CT    1  MOL    C220   220  -0.1200000   12.0115
  221        CT    1  MOL    C221   221  -0.1200000   12.0115
  222        CT    1  MOL    C222   222  -0.1200000   12.0115
  223        CT    1  MOL    C223   223  -0.1200000   12.0115
  224        CT    1  MOL    C224   224   0.1900000   12.0115
  225       OES    1  MOL    O225   225  -0.3300000   15.9994
  226       HAE    1  MOL    H226   226   0.0600000    1.0080
  227       HAE    1  MOL    H227   227   0.0600000    1.0080
  228        HC    1  MOL    H228   228   0.0600000    1.0080
  229        HC    1  MOL    H229   229   0.0600000    1.0080
  230        HC    1  MOL    H230   230   0.0600000    1.0080
  231        HC    1  MOL    H231   231   0.0600000    1.0080
  232        HC    1  MOL    H232   232   0.0600000    1.0080
  233        HC    1  MOL    H233   233   0.0600000    1.0080
  234       HAE    1  MOL    H234   234   0.0300000    1.0080
  235       HAE    1  MOL    H235   235   0.0300000    1.0080
  236       CO4    1  MOL    C236   236   0.5100000   12.0115
  237         O    1  MOL    O237   237  -0.4300000   15.9994
  238        CT    1  MOL    C238   238  -0.1200000   12.0115
  239        CT    1  MOL    C239   239  -0.1200000   12.0115
  240        CT    1  MOL    C240   240  -0.1200000   12.0115
  241        CT    1  MOL    C241   241  -0.1200000   12.0115
  242        CT    1  MOL    C242   242   0.1900000   12.0115
  243       OES    1  MOL    O243   243  -0.3300000   15.9994
  244       HAE    1  MOL    H244   244   0.0600000    1.0080
  245       HAE    1  MOL    H245   245   0.0600000    1.0080
  246        HC    1  MOL    H246   246   0.0600000    1.0080
  247        HC    1  MOL    H247   247   0.0600000    1.0080
  248        HC    1  MOL    H248   248   0.0600000    1.0080
  249        HC    1  MOL    H249   249   0.0600000    1.0080
  250        HC    1  MOL    H250   250   0.0600000    1.0080
  251        HC    1  MOL    H251   251   0.0600000    1.0080
  252       HAE    1  MOL    H252   252   0.0300000    1.0080
  253       HAE    1  MOL    H253   253   0.0300000    1.0080
  254       CO4    1  MOL    C254   254   0.5100000   12.0115
  255         O    1  MOL    O255   255  -0.4300000   15.9994
  256        CT    1  MOL    C256   256  -0.1200000   12.0115
  257        CT    1  MOL    C257   257  -0.1200000   12.0115
  258        CT    1  MOL    C258   258  -0.1200000   12.0115
  259        CT    1  MOL    C259   259  -0.1200000   12.0115
  260        CT    1  MOL    C260   260   0.1900000   12.0115
  261       OES    1  MOL    O261   261  -0.3300000   15.9994
  262       HAE    1  MOL    H262   262   0.0600000    1.0080
  263       HAE    1  MOL    H263   263   0.0600000    1.0080
  264        HC    1  MOL    H264   264   0.0600000    1.0080
  265        HC    1  MOL    H265   265   0.0600000    1.0080
  266        HC    1  MOL    H266   266   0.0600000    1.0080
  267        HC    1  MOL    H267   267   0.0600000    1.0080
  268        HC    1  MOL    H268   268   0.0600000    1.0080
  269        HC    1  MOL    H269   269   0.0600000    1.0080
  270       HAE    1  MOL    H270   270   0.0300000    1.0080
  271       HAE    1  MOL    H271   271   0.0300000    1.0080
  272       CO4    1  MOL    C272   272   0.5100000   12.0115
  273         O    1  MOL    O273   273  -0.4300000   15.9994
  274        CT    1  MOL    C274   274  -0.1200000   12.0115
  275        CT    1  MOL    C275   275  -0.1200000   12.0115
  276        CT    1  MOL    C276   276  -0.1200000   12.0115
  277        CT    1  MOL    C277   277  -0.1200000   12.0115
  278        CT    1  MOL    C278   278   0.1900000   12.0115
  279       OES    1  MOL    O279   279  -0.3300000   15.9994
  280       HAE    1  MOL    H280   280   0.0600000    1.0080
  281       HAE    1  MOL    H281   281   0.0600000    1.0080
  282        HC    1  MOL    H282   282   0.0600000    1.0080
  283        HC    1  MOL    H283   283   0.0600000    1.0080
  284        HC    1  MOL    H284   284   0.0600000    1.0080
  285        HC    1  MOL    H285   285   0.0600000    1.0080
  286        HC    1  MOL    H286   286   0.0600000    1.0080
  287        HC    1  MOL    H287   287   0.0600000    1.0080
  288       HAE    1  MOL    H288   288   0.0300000    1.0080
  289       HAE    1  MOL    H289   289   0.0300000    1.0080
  290       CO4    1  MOL    C290   290   0.5100000   12.0115
  291         O    1  MOL    O291   291  -0.4300000   15.9994
  292        CT    1  MOL    C292   292  -0.1200000   12.0115
  293        CT    1  MOL    C293   293  -0.1200000   12.0115
  294        CT    1  MOL    C294   294  -0.1200000   12.0115
  295        CT    1  MOL    C295   295  -0.1200000   12.0115
  296        CT    1  MOL    C296   296   0.1900000   12.0115
  297       OES    1  MOL    O297   297  -0.3300000   15.9994
  298       HAE    1  MOL    H298   298   0.0600000    1.0080
  299       HAE    1  MOL    H299   299   0.0600000    1.0080
  300        HC    1  MOL    H300   300   0.0600000    1.0080
  301        HC    1  MOL    H301   301   0.0600000    1.0080
  302        HC    1  MOL    H302   302   0.0600000    1.0080
  303        HC    1  MOL    H303   303   0.0600000    1.0080
  304        HC    1  MOL    H304   304   0.0600000    1.0080
  305        HC    1  MOL    H305   305   0.0600000    1.0080
  306       HAE    1  MOL    H306   306   0.0300000    1.0080
  307       HAE    1  MOL    H307   307   0.0300000    1.0080
  308       CO4    1  MOL    C308   308   0.5100000   12.0115
  309         O    1  MOL    O309   309  -0.4300000   15.9994
  310        CT    1  MOL    C310   310  -0.1200000   12.0115
  311        CT    1  MOL    C311   311  -0.1200000   12.0115
  312        CT    1  MOL    C312   312  -0.1200000   12.0115
  313        CT    1  MOL    C313   313  -0.1200000   12.0115
  314        CT    1  MOL    C314   314   0.1900000   12.0115
  315       OES    1  MOL    O315   315  -0.3300000   15.9994
  316       HAE    1  MOL    H316   316   0.0600000    1.0080
  317       HAE    1  MOL    H317   317   0.0600000    1.0080
  318        HC    1  MOL    H318   318   0.0600000    1.0080
  319        HC    1  MOL    H319   319   0.0600000    1.0080
  320        HC    1  MOL    H320   320   0.0600000    1.0080
  321        HC    1  MOL    H321   321   0.0600000    1.0080
  322        HC    1  MOL    H322   322   0.0600000    1.0080
  323        HC    1  MOL    H323   323   0.0600000    1.0080
  324       HAE    1  MOL    H324   324   0.0300000    1.0080
  325       HAE    1  MOL    H325   325   0.0300000    1.0080
  326       CO4    1  MOL    C326   326   0.5100000   12.0115
  327         O    1  MOL    O327   327  -0.4300000   15.9994
  328        CT    1  MOL    C328   328  -0.1200000   12.0115
  329        CT    1  MOL    C329   329  -0.1200000   12.0115
  330        CT    1  MOL    C330   330  -0.1200000   12.0115
  331        CT    1  MOL    C331   331  -0.1200000   12.0115
  332        CT    1  MOL    C332   332   0.1900000   12.0115
  333       OES    1  MOL    O333   333  -0.3300000   15.9994
  334       HAE    1  MOL    H334   334   0.0600000    1.0080
  335       HAE    1  MOL    H335   335   0.0600000    1.0080
  336        HC    1  MOL    H336   336   0.0600000    1.0080
  337        HC    1  MOL    H337   337   0.0600000    1.0080
  338        HC    1  MOL    H338   338   0.0600000    1.0080
  339        HC    1  MOL    H339   339   0.0600000    1.0080
  340        HC    1  MOL    H340   340   0.0600000    1.0080
  341        HC    1  MOL    H341   341   0.0600000    1.0080
  342       HAE    1  MOL    H342   342   0.0300000    1.0080
  343       HAE    1  MOL    H343   343   0.0300000    1.0080
  344       CO4    1  MOL    C344   344   0.5100000   12.0115
  345         O    1  MOL    O345   345  -0.4300000   15.9994
  346        CT    1  MOL    C346   346  -0.1200000   12.0115
  347        CT    1  MOL    C347   347  -0.1200000   12.0115
  348        CT    1  MOL    C348   348  -0.1200000   12.0115
  349        CT    1  MOL    C349   349  -0.1200000   12.0115
  350        CT    1  MOL    C350   350   0.1450000   12.0115
  351       OAL    1  MOL    O351   351  -0.6830000   15.9994
  352       HAE    1  MOL    H352   352   0.0600000    1.0080
  353       HAE    1  MOL    H353   353   0.0600000    1.0080
  354        HC    1  MOL    H354   354   0.0600000    1.0080
  355        HC    1  MOL    H355   355   0.0600000    1.0080
  356        HC    1  MOL    H356   356   0.0600000    1.0080
  357        HC    1  MOL    H357   357   0.0600000    1.0080
  358        HC    1  MOL    H358   358   0.0600000    1.0080
  359        HC    1  MOL    H359   359   0.0600000    1.0080
  360        HC    1  MOL    H360   360   0.0600000    1.0080
  361        HC    1  MOL    H361   361   0.0600000    1.0080
  362        HO    1  MOL    H362   362   0.4180000    1.0080

[ bonds ]
      1      2   1      0.1229 476976.0000
      1      3   1      0.1522 265265.6000
      1     19   1      0.1090 284512.0000
      3      4   1      0.1529 224262.4000
      3      9   1      0.1090 284512.0000
      3     10   1      0.1090 284512.0000
      4      5   1      0.1529 224262.4000
      4     11   1      0.1090 284512.0000
      4     12   1      0.1090 284512.0000
      5      6   1      0.1529 224262.4000
      5     13   1      0.1090 284512.0000
      5     14   1      0.1090 284512.0000
      6      7   1      0.1529 224262.4000
      6     15   1      0.1090 284512.0000
      6     16   1      0.1090 284512.0000
      7      8   1      0.1410 267776.0000
      7     17   1      0.1090 284512.0000
      7     18   1      0.1090 284512.0000
      8     20   1      0.1327 179075.2000
     20     21   1      0.1229 476976.0000
     20     22   1      0.1522 265265.6000
     22     23   1      0.1529 224262.4000
     22     28   1      0.1090 284512.0000
     22     29   1      0.1090 284512.0000
     23     24   1      0.1529 224262.4000
     23     30   1      0.1090 284512.0000
     23     31   1      0.1090 284512.0000
     24     25   1      0.1529 224262.4000
     24     32   1      0.1090 284512.0000
     24     33   1      0.1090 284512.0000
     25     26   1      0.1529 224262.4000
     25     34   1      0.1090 284512.0000
     25     35   1      0.1090 284512.0000
     26     27   1      0.1410 267776.0000
     26     36   1      0.1090 284512.0000
     26     37   1      0.1090 284512.0000
     27     38   1      0.1327 179075.2000
     38     39   1      0.1229 476976.0000
     38     40   1      0.1522 265265.6000
     40     41   1      0.1529 224262.4000
     40     46   1      0.1090 284512.0000
     40     47   1      0.1090 284512.0000
     41     42   1      0.1529 224262.4000
     41     48   1      0.1090 284512.0000
     41     49   1      0.1090 284512.0000
     42     43   1      0.1529 224262.4000
     42     50   1      0.1090 284512.0000
     42     51   1      0.1090 284512.0000
     43     44   1      0.1529 224262.4000
     43     52   1      0.1090 284512.0000
     43     53   1      0.1090 284512.0000
     44     45   1      0.1410 267776.0000
     44     54   1      0.1090 284512.0000
     44     55   1      0.1090 284512.0000
     45     56   1      0.1327 179075.2000
     56     57   1      0.1229 476976.0000
     56     58   1      0.1522 265265.6000
     58     59   1      0.1529 224262.4000
     58     64   1      0.1090 284512.0000
     58     65   1      0.1090 284512.0000
     59     60   1      0.1529 224262.4000
     59     66   1      0.1090 284512.0000
     59     67   1      0.1090 284512.0000
     60     61   1      0.1529 224262.4000
     60     68   1      0.1090 284512.0000
     60     69   1      0.1090 284512.0000
     61     62   1      0.1529 224262.4000
     61     70   1      0.1090 284512.0000
     61     71   1      0.1090 284512.0000
     62     63   1      0.1410 267776.0000
     62     72   1      0.1090 284512.0000
     62     73   1      0.1090 284512.0000
     63     74   1      0.1327 179075.2000
     74     75   1      0.1229 476976.0000
     74     76   1      0.1522 265265.6000
     76     77   1      0.1529 224262.4000
     76     82   1      0.1090 284512.0000
     76     83   1      0.1090 284512.0000
     77     78   1      0.1529 224262.4000
     77     84   1      0.1090 284512.0000
     77     85   1      0.1090 284512.0000
     78     79   1      0.1529 224262.4000
     78     86   1      0.1090 284512.0000
     78     87   1      0.1090 284512.0000
     79     80   1      0.1529 224262.4000
     79     88   1      0.1090 284512.0000
     79     89   1      0.1090 284512.0000
     80     81   1      0.1410 267776.0000
     80     90   1      0.1090 284512.0000
     80     91   1      0.1090 284512.0000
     81     92   1      0.1327 179075.2000
     92     93   1      0.1229 476976.0000
     92     94   1      0.1522 265265.6000
     94     95   1      0.1529 224262.4000
     94    100   1      0.1090 284512.0000
     94    101   1      0.1090 284512.0000
     95     96   1      0.1529 224262.4000
     95    102   1      0.1090 284512.0000
     95    103   1      0.1090 284512.0000
     96     97   1      0.1529 224262.4000
     96    104   1      0.1090 284512.0000
     96    105   1      0.1090 284512.0000
     97     98   1      0.1529 224262.4000
     97    106   1      0.1090 284512.0000
     97    107   1      0.1090 284512.0000
     98     99   1      0.1410 267776.0000
     98    108   1      0.1090 284512.0000
     98    109   1      0.1090 284512.0000
     99    110   1      0.1327 179075.2000
    110    111   1      0.1229 476976.0000
    110    112   1      0.1522 265265.6000
    112    113   1      0.1529 224262.4000
    112    118   1      0.1090 284512.0000
    112    119   1      0.1090 284512.0000
    113    114   1      0.1529 224262.4000
    113    120   1      0.1090 284512.0000
    113    121   1      0.1090 284512.0000
    114    115   1      0.1529 224262.4000
    114    122   1      0.1090 284512.0000
    114    123   1      0.1090 284512.0000
    115    116   1      0.1529 224262.4000
    115    124   1      0.1090 284512.0000
    115    125   1      0.1090 284512.0000
    116    117   1      0.1410 267776.0000
    116    126   1      0.1090 284512.0000
    116    127   1      0.1090 284512.0000
    117    128   1      0.1327 179075.2000
    128    129   1      0.1229 476976.0000
    128    130   1      0.1522 265265.6000
    130    131   1      0.1529 224262.4000
    130    136   1      0.1090 284512.0000
    130    137   1      0.1090 284512.0000
    131    132   1      0.1529 224262.4000
    131    138   1      0.1090 284512.0000
    131    139   1      0.1090 284512.0000
    132    133   1      0.1529 224262.4000
    132    140   1      0.1090 284512.0000
    132    141   1      0.1090 284512.0000
    133    134   1      0.1529 224262.4000
    133    142   1      0.1090 284512.0000
    133    143   1      0.1090 284512.0000
    134    135   1      0.1410 267776.0000
    134    144   1      0.1090 284512.0000
    134    145   1      0.1090 284512.0000
    135    146   1      0.1327 179075.2000
    146    147   1      0.1229 476976.0000
    146    148   1      0.1522 265265.6000
    148    149   1      0.1529 224262.4000
    148    154   1      0.1090 284512.0000
    148    155   1      0.1090 284512.0000
    149    150   1      0.1529 224262.4000
    149    156   1      0.1090 284512.0000
    149    157   1      0.1090 284512.0000
    150    151   1      0.1529 224262.4000
    150    158   1      0.1090 284512.0000
    150    159   1      0.1090 284512.0000
    151    152   1      0.1529 224262.4000
    151    160   1      0.1090 284512.0000
    151    161   1      0.1090 284512.0000
    152    153   1      0.1410 267776.0000
    152    162   1      0.1090 284512.0000
    152    163   1      0.1090 284512.0000
    153    164   1      0.1327 179075.2000
    164    165   1      0.1229 476976.0000
    164    166   1      0.1522 265265.6000
    166    167   1      0.1529 224262.4000
    166    172   1      0.1090 284512.0000
    166    173   1      0.1090 284512.0000
    167    168   1      0.1529 224262.4000
    167    174   1      0.1090 284512.0000
    167    175   1      0.1090 284512.0000
    168    169   1      0.1529 224262.4000
    168    176   1      0.1090 284512.0000
    168    177   1      0.1090 284512.0000
    169    170   1      0.1529 224262.4000
    169    178   1      0.1090 284512.0000
    169    179   1      0.1090 284512.0000
    170    171   1      0.1410 267776.0000
    170    180   1      0.1090 284512.0000
    170    181   1      0.1090 284512.0000
    171    182   1      0.1327 179075.2000
    182    183   1      0.1229 476976.0000
    182    184   1      0.1522 265265.6000
    184    185   1      0.1529 224262.4000
    184    190   1      0.1090 284512.0000
    184    191   1      0.1090 284512.0000
    185    186   1      0.1529 224262.4000
    185    192   1      0.1090 284512.0000
    185    193   1      0.1090 284512.0000
    186    187   1      0.1529 224262.4000
    186    194   1      0.1090 284512.0000
    186    195   1      0.1090 284512.0000
    187    188   1      0.1529 224262.4000
    187    196   1      0.1090 284512.0000
    187    197   1      0.1090 284512.0000
    188    189   1      0.1410 267776.0000
    188    198   1      0.1090 284512.0000
    188    199   1      0.1090 284512.0000
    189    200   1      0.1327 179075.2000
    200    201   1      0.1229 476976.0000
    200    202   1      0.1522 265265.6000
    202    203   1      0.1529 224262.4000
    202    208   1      0.1090 284512.0000
    202    209   1      0.1090 284512.0000
    203    204   1      0.1529 224262.4000
    203    210   1      0.1090 284512.0000
    203    211   1      0.1090 284512.0000
    204    205   1      0.1529 224262.4000
    204    212   1      0.1090 284512.0000
    204    213   1      0.1090 284512.0000
    205    206   1      0.1529 224262.4000
    205    214   1      0.1090 284512.0000
    205    215   1      0.1090 284512.0000
    206    207   1      0.1410 267776.0000
    206    216   1      0.1090 284512.0000
    206    217   1      0.1090 284512.0000
    207    218   1      0.1327 179075.2000
    218    219   1      0.1229 476976.0000
    218    220   1      0.1522 265265.6000
    220    221   1      0.1529 224262.4000
    220    226   1      0.1090 284512.0000
    220    227   1      0.1090 284512.0000
    221    222   1      0.1529 224262.4000
    221    228   1      0.1090 284512.0000
    221    229   1      0.1090 284512.0000
    222    223   1      0.1529 224262.4000
    222    230   1      0.1090 284512.0000
    222    231   1      0.1090 284512.0000
    223    224   1      0.1529 224262.4000
    223    232   1      0.1090 284512.0000
    223    233   1      0.1090 284512.0000
    224    225   1      0.1410 267776.0000
    224    234   1      0.1090 284512.0000
    224    235   1      0.1090 284512.0000
    225    236   1      0.1327 179075.2000
    236    237   1      0.1229 476976.0000
    236    238   1      0.1522 265265.6000
    238    239   1      0.1529 224262.4000
    238    244   1      0.1090 284512.0000
    238    245   1      0.1090 284512.0000
    239    240   1      0.1529 224262.4000
    239    246   1      0.1090 284512.0000
    239    247   1      0.1090 284512.0000
    240    241   1      0.1529 224262.4000
    240    248   1      0.1090 284512.0000
    240    249   1      0.1090 284512.0000
    241    242   1      0.1529 224262.4000
    241    250   1      0.1090 284512.0000
    241    251   1      0.1090 284512.0000
    242    243   1      0.1410 267776.0000
    242    252   1      0.1090 284512.0000
    242    253   1      0.1090 284512.0000
    243    254   1      0.1327 179075.2000
    254    255   1      0.1229 476976.0000
    254    256   1      0.1522 265265.6000
    256    257   1      0.1529 224262.4000
    256    262   1      0.1090 284512.0000
    256    263   1      0.1090 284512.0000
    257    258   1      0.1529 224262.4000
    257    264   1      0.1090 284512.0000
    257    265   1      0.1090 284512.0000
    258    259   1      0.1529 224262.4000
    258    266   1      0.1090 284512.0000
    258    267   1      0.1090 284512.0000
    259    260   1      0.1529 224262.4000
    259    268   1      0.1090 284512.0000
    259    269   1      0.1090 284512.0000
    260    261   1      0.1410 267776.0000
    260    270   1      0.1090 284512.0000
    260    271   1      0.1090 284512.0000
    261    272   1      0.1327 179075.2000
    272    273   1      0.1229 476976.0000
    272    274   1      0.1522 265265.6000
    274    275   1      0.1529 224262.4000
    274    280   1      0.1090 284512.0000
    274    281   1      0.1090 284512.0000
    275    276   1      0.1529 224262.4000
    275    282   1      0.1090 284512.0000
    275    283   1      0.1090 284512.0000
    276    277   1      0.1529 224262.4000
    276    284   1      0.1090 284512.0000
    276    285   1      0.1090 284512.0000
    277    278   1      0.1529 224262.4000
    277    286   1      0.1090 284512.0000
    277    287   1      0.1090 284512.0000
    278    279   1      0.1410 267776.0000
    278    288   1      0.1090 284512.0000
    278    289   1      0.1090 284512.0000
    279    290   1      0.1327 179075.2000
    290    291   1      0.1229 476976.0000
    290    292   1      0.1522 265265.6000
    292    293   1      0.1529 224262.4000
    292    298   1      0.1090 284512.0000
    292    299   1      0.1090 284512.0000
    293    294   1      0.1529 224262.4000
    293    300   1      0.1090 284512.0000
    293    301   1      0.1090 284512.0000
    294    295   1      0.1529 224262.4000
    294    302   1      0.1090 284512.0000
    294    303   1      0.1090 284512.0000
    295    296   1      0.1529 224262.4000
    295    304   1      0.1090 284512.0000
    295    305   1      0.1090 284512.0000
    296    297   1      0.1410 267776.0000
    296    306   1      0.1090 284512.0000
    296    307   1      0.1090 284512.0000
    297    308   1      0.1327 179075.2000
    308    309   1      0.1229 476976.0000
    308    310   1      0.1522 265265.6000
    310    311   1      0.1529 224262.4000
    310    316   1      0.1090 284512.0000
    310    317   1      0.1090 284512.0000
    311    312   1      0.1529 224262.4000
    311    318   1      0.1090 284512.0000
    311    319   1      0.1090 284512.0000
    312    313   1      0.1529 224262.4000
    312    320   1      0.1090 284512.0000
    312    321   1      0.1090 284512.0000
    313    314   1      0.1529 224262.4000
    313    322   1      0.1090 284512.0000
    313    323   1      0.1090 284512.0000
    314    315   1      0.1410 267776.0000
    314    324   1      0.1090 284512.0000
    314    325   1      0.1090 284512.0000
    315    326   1      0.1327 179075.2000
    326    327   1      0.1229 476976.0000
    326    328   1      0.1522 265265.6000
    328    329   1      0.1529 224262.4000
    328    334   1      0.1090 284512.0000
    328    335   1      0.1090 284512.0000
    329    330   1      0.1529 224262.4000
    329    336   1      0.1090 284512.0000
    329    337   1      0.1090 284512.0000
    330    331   1      0.1529 224262.4000
    330    338   1      0.1090 284512.0000
    330    339   1      0.1090 284512.0000
    331    332   1      0.1529 224262.4000
    331    340   1      0.1090 284512.0000
    331    341   1      0.1090 284512.0000
    332    333   1      0.1410 267776.0000
    332    342   1      0.1090 284512.0000
    332    343   1      0.1090 284512.0000
    333    344   1      0.1327 179075.2000
    344    345   1      0.1229 476976.0000
    344    346   1      0.1522 265265.6000
    346    347   1      0.1529 224262.4000
    346    352   1      0.1090 284512.0000
    346    353   1      0.1090 284512.0000
    347    348   1      0.1529 224262.4000
    347    354   1      0.1090 284512.0000
    347    355   1      0.1090 284512.0000
    348    349   1      0.1529 224262.4000
    348    356   1      0.1090 284512.0000
    348    357   1      0.1090 284512.0000
    349    350   1      0.1529 224262.4000
    349    358   1      0.1090 284512.0000
    349    359   1      0.1090 284512.0000
    350    351   1      0.1410 267776.0000
    350    360   1      0.1090 284512.0000
    350    361   1      0.1090 284512.0000
    351    362   1      0.0945 462750.4000

[ pairs ]
; ai   aj   funct   fudge_QQ  charge_i   charge_j   c6    c12
      2      4   2   0.50000    -0.4500000   -0.1200000   1.095425e-03  1.218041e-06
      2      9   2   0.50000    -0.4500000    0.0600000   1.726228e-04  6.344822e-08
      2     10   2   0.50000    -0.4500000    0.0600000   1.726228e-04  6.344822e-08
     19      4   2   0.50000     0.0000000   -0.1200000   1.599888e-04  9.721644e-08
     19      9   2   0.50000     0.0000000    0.0600000   2.521187e-05  5.064042e-09
     19     10   2   0.50000     0.0000000    0.0600000   2.521187e-05  5.064042e-09
      1      5   2   0.50000     0.4500000   -0.1200000   1.575021e-03  3.561100e-06
      1     11   2   0.50000     0.4500000    0.0600000   3.869820e-04  3.188634e-07
      1     12   2   0.50000     0.4500000    0.0600000   3.869820e-04  3.188634e-07
      9      5   2   0.50000     0.0600000   -0.1200000   1.599888e-04  9.721644e-08
      9     11   2   0.50000     0.0600000    0.0600000   3.930919e-05  8.704828e-09
      9     12   2   0.50000     0.0600000    0.0600000   3.930919e-05  8.704828e-09
     10      5   2   0.50000     0.0600000   -0.1200000   1.599888e-04  9.721644e-08
     10     11   2   0.50000     0.0600000    0.0600000   3.930919e-05  8.704828e-09
     10     12   2   0.50000     0.0600000    0.0600000   3.930919e-05  8.704828e-09
      3      6   2   0.50000    -0.1200000   -0.1200000   1.015252e-03  1.866303e-06
      3     13   2   0.50000    -0.1200000    0.0600000   2.494471e-04  1.671101e-07
      3     14   2   0.50000    -0.1200000    0.0600000   2.494471e-04  1.671101e-07
     11      6   2   0.50000     0.0600000   -0.1200000   2.494471e-04  1.671101e-07
     11     13   2   0.50000     0.0600000    0.0600000   6.128906e-05  1.496315e-08
     11     14   2   0.50000     0.0600000    0.0600000   6.128906e-05  1.496315e-08
     12      6   2   0.50000     0.0600000   -0.1200000   2.494471e-04  1.671101e-07
     12     13   2   0.50000     0.0600000    0.0600000   6.128906e-05  1.496315e-08
     12     14   2   0.50000     0.0600000    0.0600000   6.128906e-05  1.496315e-08
      4      7   2   0.50000    -0.1200000    0.1900000   1.015252e-03  1.866303e-06
      4     15   2   0.50000    -0.1200000    0.0600000   2.494471e-04  1.671101e-07
      4     16   2   0.50000    -0.1200000    0.0600000   2.494471e-04  1.671101e-07
     13      7   2   0.50000     0.0600000    0.1900000   2.494471e-04  1.671101e-07
     13     15   2   0.50000     0.0600000    0.0600000   6.128906e-05  1.496315e-08
     13     16   2   0.50000     0.0600000    0.0600000   6.128906e-05  1.496315e-08
     14      7   2   0.50000     0.0600000    0.1900000   2.494471e-04  1.671101e-07
     14     15   2   0.50000     0.0600000    0.0600000   6.128906e-05  1.496315e-08
     14     16   2   0.50000     0.0600000    0.0600000   6.128906e-05  1.496315e-08
      5      8   2   0.50000    -0.1200000   -0.3300000   1.026091e-03  1.187829e-06
      5     17   2   0.50000    -0.1200000    0.0300000   1.599888e-04  9.721644e-08
      5     18   2   0.50000    -0.1200000    0.0300000   1.599888e-04  9.721644e-08
     15      8   2   0.50000     0.0600000   -0.3300000   2.521103e-04  1.063590e-07
     15     17   2   0.50000     0.0600000    0.0300000   3.930919e-05  8.704828e-09
     15     18   2   0.50000     0.0600000    0.0300000   3.930919e-05  8.704828e-09
     16      8   2   0.50000     0.0600000   -0.3300000   2.521103e-04  1.063590e-07
     16     17   2   0.50000     0.0600000    0.0300000   3.930919e-05  8.704828e-09
     16     18   2   0.50000     0.0600000    0.0300000   3.930919e-05  8.704828e-09
      6     20   2   0.50000    -0.1200000    0.5100000   1.575021e-03  3.561100e-06
     17     20   2   0.50000     0.0300000    0.5100000   2.482000e-04  1.854991e-07
     18     20   2   0.50000     0.0300000    0.5100000   2.482000e-04  1.854991e-07
      7     21   2   0.50000     0.1900000   -0.4300000   1.095425e-03  1.218041e-06
      7     22   2   0.50000     0.1900000   -0.1200000   1.015252e-03  1.866303e-06
      8     23   2   0.50000    -0.3300000   -0.1200000   1.026091e-03  1.187829e-06
      8     28   2   0.50000    -0.3300000    0.0600000   1.616969e-04  6.187447e-08
      8     29   2   0.50000    -0.3300000    0.0600000   1.616969e-04  6.187447e-08
     21     23   2   0.50000    -0.4300000   -0.1200000   1.095425e-03  1.218041e-06
     21     28   2   0.50000    -0.4300000    0.0600000   1.726228e-04  6.344822e-08
     21     29   2   0.50000    -0.4300000    0.0600000   1.726228e-04  6.344822e-08
     20     24   2   0.50000     0.5100000   -0.1200000   1.575021e-03  3.561100e-06
     20     30   2   0.50000     0.5100000    0.0600000   3.869820e-04  3.188634e-07
     20     31   2   0.50000     0.5100000    0.0600000   3.869820e-04  3.188634e-07
     28     24   2   0.50000     0.0600000   -0.1200000   1.599888e-04  9.721644e-08
     28     30   2   0.50000     0.0600000    0.0600000   3.930919e-05  8.704828e-09
     28     31   2   0.50000     0.0600000    0.0600000   3.930919e-05  8.704828e-09
     29     24   2   0.50000     0.0600000   -0.1200000   1.599888e-04  9.721644e-08
     29     30   2   0.50000     0.0600000    0.0600000   3.930919e-05  8.704828e-09
     29     31   2   0.50000     0.0600000    0.0600000   3.930919e-05  8.704828e-09
     22     25   2   0.50000    -0.1200000   -0.1200000   1.015252e-03  1.866303e-06
     22     32   2   0.50000    -0.1200000    0.0600000   2.494471e-04  1.671101e-07
     22     33   2   0.50000    -0.1200000    0.0600000   2.494471e-04  1.671101e-07
     30     25   2   0.50000     0.0600000   -0.1200000   2.494471e-04  1.671101e-07
     30     32   2   0.50000     0.0600000    0.0600000   6.128906e-05  1.496315e-08
     30     33   2   0.50000     0.0600000    0.0600000   6.128906e-05  1.496315e-08
     31     25   2   0.50000     0.0600000   -0.1200000   2.494471e-04  1.671101e-07
     31     32   2   0.50000     0.0600000    0.0600000   6.128906e-05  1.496315e-08
     31     33   2   0.50000     0.0600000    0.0600000   6.128906e-05  1.496315e-08
     23     26   2   0.50000    -0.1200000    0.1900000   1.015252e-03  1.866303e-06
     23     34   2   0.50000    -0.1200000    0.0600000   2.494471e-04  1.671101e-07
     23     35   2   0.50000    -0.1200000    0.0600000   2.494471e-04  1.671101e-07
     32     26   2   0.50000     0.0600000    0.1900000   2.494471e-04  1.671101e-07
     32     34   2   0.50000     0.0600000    0.0600000   6.128906e-05  1.496315e-08
     32     35   2   0.50000     0.0600000    0.0600000   6.128906e-05  1.496315e-08
     33     26   2   0.50000     0.0600000    0.1900000   2.494471e-04  1.671101e-07
     33     34   2   0.50000     0.0600000    0.0600000   6.128906e-05  1.496315e-08
     33     35   2   0.50000     0.0600000    0.0600000   6.128906e-05  1.496315e-08
     24     27   2   0.50000    -0.1200000   -0.3300000   1.026091e-03  1.187829e-06
     24     36   2   0.50000    -0.1200000    0.0300000   1.599888e-04  9.721644e-08
     24     37   2   0.50000    -0.1200000    0.0300000   1.599888e-04  9.721644e-08
     34     27   2   0.50000     0.0600000   -0.3300000   2.521103e-04  1.063590e-07
     34     36   2   0.50000     0.0600000    0.0300000   3.930919e-05  8.704828e-09
     34     37   2   0.50000     0.0600000    0.0300000   3.930919e-05  8.704828e-09
     35     27   2   0.50000     0.0600000   -0.3300000   2.521103e-04  1.063590e-07
     35     36   2   0.50000     0.0600000    0.0300000   3.930919e-05  8.704828e-09
     35     37   2   0.50000     0.0600000    0.0300000   3.930919e-05  8.704828e-09
     25     38   2   0.50000    -0.1200000    0.5100000   1.575021e-03  3.561100e-06
     36     38   2   0.50000     0.0300000    0.5100000   2.482000e-04  1.854991e-07
     37     38   2   0.50000     0.0300000    0.5100000   2.482000e-04  1.854991e-07
     26     39   2   0.50000     0.1900000   -0.4300000   1.095425e-03  1.218041e-06
     26     40   2   0.50000     0.1900000   -0.1200000   1.015252e-03  1.866303e-06
     27     41   2   0.50000    -0.3300000   -0.1200000   1.026091e-03  1.187829e-06
     27     46   2   0.50000    -0.3300000    0.0600000   1.616969e-04  6.187447e-08
     27     47   2   0.50000    -0.3300000    0.0600000   1.616969e-04  6.187447e-08
     39     41   2   0.50000    -0.4300000   -0.1200000   1.095425e-03  1.218041e-06
     39     46   2   0.50000    -0.4300000    0.0600000   1.726228e-04  6.344822e-08
     39     47   2   0.50000    -0.4300000    0.0600000   1.726228e-04  6.344822e-08
     38     42   2   0.50000     0.5100000   -0.1200000   1.575021e-03  3.561100e-06
     38     48   2   0.50000     0.5100000    0.0600000   3.869820e-04  3.188634e-07
     38     49   2   0.50000     0.5100000    0.0600000   3.869820e-04  3.188634e-07
     46     42   2   0.50000     0.0600000   -0.1200000   1.599888e-04  9.721644e-08
     46     48   2   0.50000     0.0600000    0.0600000   3.930919e-05  8.704828e-09
     46     49   2   0.50000     0.0600000    0.0600000   3.930919e-05  8.704828e-09
     47     42   2   0.50000     0.0600000   -0.1200000   1.599888e-04  9.721644e-08
     47     48   2   0.50000     0.0600000    0.0600000   3.930919e-05  8.704828e-09
     47     49   2   0.50000     0.0600000    0.0600000   3.930919e-05  8.704828e-09
     40     43   2   0.50000    -0.1200000   -0.1200000   1.015252e-03  1.866303e-06
     40     50   2   0.50000    -0.1200000    0.0600000   2.494471e-04  1.671101e-07
     40     51   2   0.50000    -0.1200000    0.0600000   2.494471e-04  1.671101e-07
     48     43   2   0.50000     0.0600000   -0.1200000   2.494471e-04  1.671101e-07
     48     50   2   0.50000     0.0600000    0.0600000   6.128906e-05  1.496315e-08
     48     51   2   0.50000     0.0600000    0.0600000   6.128906e-05  1.496315e-08
     49     43   2   0.50000     0.0600000   -0.1200000   2.494471e-04  1.671101e-07
     49     50   2   0.50000     0.0600000    0.0600000   6.128906e-05  1.496315e-08
     49     51   2   0.50000     0.0600000    0.0600000   6.128906e-05  1.496315e-08
     41     44   2   0.50000    -0.1200000    0.1900000   1.015252e-03  1.866303e-06
     41     52   2   0.50000    -0.1200000    0.0600000   2.494471e-04  1.671101e-07
     41     53   2   0.50000    -0.1200000    0.0600000   2.494471e-04  1.671101e-07
     50     44   2   0.50000     0.0600000    0.1900000   2.494471e-04  1.671101e-07
     50     52   2   0.50000     0.0600000    0.0600000   6.128906e-05  1.496315e-08
     50     53   2   0.50000     0.0600000    0.0600000   6.128906e-05  1.496315e-08
     51     44   2   0.50000     0.0600000    0.1900000   2.494471e-04  1.671101e-07
     51     52   2   0.50000     0.0600000    0.0600000   6.128906e-05  1.496315e-08
     51     53   2   0.50000     0.0600000    0.0600000   6.128906e-05  1.496315e-08
     42     45   2   0.50000    -0.1200000   -0.3300000   1.026091e-03  1.187829e-06
     42     54   2   0.50000    -0.1200000    0.0300000   1.599888e-04  9.721644e-08
     42     55   2   0.50000    -0.1200000    0.0300000   1.599888e-04  9.721644e-08
     52     45   2   0.50000     0.0600000   -0.3300000   2.521103e-04  1.063590e-07
     52     54   2   0.50000     0.0600000    0.0300000   3.930919e-05  8.704828e-09
     52     55   2   0.50000     0.0600000    0.0300000   3.930919e-05  8.704828e-09
     53     45   2   0.50000     0.0600000   -0.3300000   2.521103e-04  1.063590e-07
     53     54   2   0.50000     0.0600000    0.0300000   3.930919e-05  8.704828e-09
     53     55   2   0.50000     0.0600000    0.0300000   3.930919e-05  8.704828e-09
     43     56   2   0.50000    -0.1200000    0.5100000   1.575021e-03  3.561100e-06
     54     56   2   0.50000     0.0300000    0.5100000   2.482000e-04  1.854991e-07
     55     56   2   0.50000     0.0300000    0.5100000   2.482000e-04  1.854991e-07
     44     57   2   0.50000     0.1900000   -0.4300000   1.095425e-03  1.218041e-06
     44     58   2   0.50000     0.1900000   -0.1200000   1.015252e-03  1.866303e-06
     45     59   2   0.50000    -0.3300000   -0.1200000   1.026091e-03  1.187829e-06
     45     64   2   0.50000    -0.3300000    0.0600000   1.616969e-04  6.187447e-08
     45     65   2   0.50000    -0.3300000    0.0600000   1.616969e-04  6.187447e-08
     57     59   2   0.50000    -0.4300000   -0.1200000   1.095425e-03  1.218041e-06
     57     64   2   0.50000    -0.4300000    0.0600000   1.726228e-04  6.344822e-08
     57     65   2   0.50000    -0.4300000    0.0600000   1.726228e-04  6.344822e-08
     56     60   2   0.50000     0.5100000   -0.1200000   1.575021e-03  3.561100e-06
     56     66   2   0.50000     0.5100000    0.0600000   3.869820e-04  3.188634e-07
     56     67   2   0.50000     0.5100000    0.0600000   3.869820e-04  3.188634e-07
     64     60   2   0.50000     0.0600000   -0.1200000   1.599888e-04  9.721644e-08
     64     66   2   0.50000     0.0600000    0.0600000   3.930919e-05  8.704828e-09
     64     67   2   0.50000     0.0600000    0.0600000   3.930919e-05  8.704828e-09
     65     60   2   0.50000     0.0600000   -0.1200000   1.599888e-04  9.721644e-08
     65     66   2   0.50000     0.0600000    0.0600000   3.930919e-05  8.704828e-09
     65     67   2   0.50000     0.0600000    0.0600000   3.930919e-05  8.704828e-09
     58     61   2   0.50000    -0.1200000   -0.1200000   1.015252e-03  1.866303e-06
     58     68   2   0.50000    -0.1200000    0.0600000   2.494471e-04  1.671101e-07
     58     69   2   0.50000    -0.1200000    0.0600000   2.494471e-04  1.671101e-07
     66     61   2   0.50000     0.0600000   -0.1200000   2.494471e-04  1.671101e-07
     66     68   2   0.50000     0.0600000    0.0600000   6.128906e-05  1.496315e-08
     66     69   2   0.50000     0.0600000    0.0600000   6.128906e-05  1.496315e-08
     67     61   2   0.50000     0.0600000   -0.1200000   2.494471e-04  1.671101e-07
     67     68   2   0.50000     0.0600000    0.0600000   6.128906e-05  1.496315e-08
     67     69   2   0.50000     0.0600000    0.0600000   6.128906e-05  1.496315e-08
     59     62   2   0.50000    -0.1200000    0.1900000   1.015252e-03  1.866303e-06
     59     70   2   0.50000    -0.1200000    0.0600000   2.494471e-04  1.671101e-07
     59     71   2   0.50000    -0.1200000    0.0600000   2.494471e-04  1.671101e-07
     68     62   2   0.50000     0.0600000    0.1900000   2.494471e-04  1.671101e-07
     68     70   2   0.50000     0.0600000    0.0600000   6.128906e-05  1.496315e-08
     68     71   2   0.50000     0.0600000    0.0600000   6.128906e-05  1.496315e-08
     69     62   2   0.50000     0.0600000    0.1900000   2.494471e-04  1.671101e-07
     69     70   2   0.50000     0.0600000    0.0600000   6.128906e-05  1.496315e-08
     69     71   2   0.50000     0.0600000    0.0600000   6.128906e-05  1.496315e-08
     60     63   2   0.50000    -0.1200000   -0.3300000   1.026091e-03  1.187829e-06
     60     72   2   0.50000    -0.1200000    0.0300000   1.599888e-04  9.721644e-08
     60     73   2   0.50000    -0.1200000    0.0300000   1.599888e-04  9.721644e-08
     70     63   2   0.50000     0.0600000   -0.3300000   2.521103e-04  1.063590e-07
     70     72   2   0.50000     0.0600000    0.0300000   3.930919e-05  8.704828e-09
     70     73   2   0.50000     0.0600000    0.0300000   3.930919e-05  8.704828e-09
     71     63   2   0.50000     0.0600000   -0.3300000   2.521103e-04  1.063590e-07
     71     72   2   0.50000     0.0600000    0.0300000   3.930919e-05  8.704828e-09
     71     73   2   0.50000     0.0600000    0.0300000   3.930919e-05  8.704828e-09
     61     74   2   0.50000    -0.1200000    0.5100000   1.575021e-03  3.561100e-06
     72     74   2   0.50000     0.0300000    0.5100000   2.482000e-04  1.854991e-07
     73     74   2   0.50000     0.0300000    0.5100000   2.482000e-04  1.854991e-07
     62     75   2   0.50000     0.1900000   -0.4300000   1.095425e-03  1.218041e-06
     62     76   2   0.50000     0.1900000   -0.1200000   1.015252e-03  1.866303e-06
     63     77   2   0.50000    -0.3300000   -0.1200000   1.026091e-03  1.187829e-06
     63     82   2   0.50000    -0.3300000    0.0600000   1.616969e-04  6.187447e-08
     63     83   2   0.50000    -0.3300000    0.0600000   1.616969e-04  6.187447e-08
     75     77   2   0.50000    -0.4300000   -0.1200000   1.095425e-03  1.218041e-06
     75     82   2   0.50000    -0.4300000    0.0600000   1.726228e-04  6.344822e-08
     75     83   2   0.50000    -0.4300000    0.0600000   1.726228e-04  6.344822e-08
     74     78   2   0.50000     0.5100000   -0.1200000   1.575021e-03  3.561100e-06
     74     84   2   0.50000     0.5100000    0.0600000   3.869820e-04  3.188634e-07
     74     85   2   0.50000     0.5100000    0.0600000   3.869820e-04  3.188634e-07
     82     78   2   0.50000     0.0600000   -0.1200000   1.599888e-04  9.721644e-08
     82     84   2   0.50000     0.0600000    0.0600000   3.930919e-05  8.704828e-09
     82     85   2   0.50000     0.0600000    0.0600000   3.930919e-05  8.704828e-09
     83     78   2   0.50000     0.0600000   -0.1200000   1.599888e-04  9.721644e-08
     83     84   2   0.50000     0.0600000    0.0600000   3.930919e-05  8.704828e-09
     83     85   2   0.50000     0.0600000    0.0600000   3.930919e-05  8.704828e-09
     76     79   2   0.50000    -0.1200000   -0.1200000   1.015252e-03  1.866303e-06
     76     86   2   0.50000    -0.1200000    0.0600000   2.494471e-04  1.671101e-07
     76     87   2   0.50000    -0.1200000    0.0600000   2.494471e-04  1.671101e-07
     84     79   2   0.50000     0.0600000   -0.1200000   2.494471e-04  1.671101e-07
     84     86   2   0.50000     0.0600000    0.0600000   6.128906e-05  1.496315e-08
     84     87   2   0.50000     0.0600000    0.0600000   6.128906e-05  1.496315e-08
     85     79   2   0.50000     0.0600000   -0.1200000   2.494471e-04  1.671101e-07
     85     86   2   0.50000     0.0600000    0.0600000   6.128906e-05  1.496315e-08
     85     87   2   0.50000     0.0600000    0.0600000   6.128906e-05  1.496315e-08
     77     80   2   0.50000    -0.1200000    0.1900000   1.015252e-03  1.866303e-06
     77     88   2   0.50000    -0.1200000    0.0600000   2.494471e-04  1.671101e-07
     77     89   2   0.50000    -0.1200000    0.0600000   2.494471e-04  1.671101e-07
     86     80   2   0.50000     0.0600000    0.1900000   2.494471e-04  1.671101e-07
     86     88   2   0.50000     0.0600000    0.0600000   6.128906e-05  1.496315e-08
     86     89   2   0.50000     0.0600000    0.0600000   6.128906e-05  1.496315e-08
     87     80   2   0.50000     0.0600000    0.1900000   2.494471e-04  1.671101e-07
     87     88   2   0.50000     0.0600000    0.0600000   6.128906e-05  1.496315e-08
     87     89   2   0.50000     0.0600000    0.0600000   6.128906e-05  1.496315e-08
     78     81   2   0.50000    -0.1200000   -0.3300000   1.026091e-03  1.187829e-06
     78     90   2   0.50000    -0.1200000    0.0300000   1.599888e-04  9.721644e-08
     78     91   2   0.50000    -0.1200000    0.0300000   1.599888e-04  9.721644e-08
     88     81   2   0.50000     0.0600000   -0.3300000   2.521103e-04  1.063590e-07
     88     90   2   0.50000     0.0600000    0.0300000   3.930919e-05  8.704828e-09
     88     91   2   0.50000     0.0600000    0.0300000   3.930919e-05  8.704828e-09
     89     81   2   0.50000     0.0600000   -0.3300000   2.521103e-04  1.063590e-07
     89     90   2   0.50000     0.0600000    0.0300000   3.930919e-05  8.704828e-09
     89     91   2   0.50000     0.0600000    0.0300000   3.930919e-05  8.704828e-09
     79     92   2   0.50000    -0.1200000    0.5100000   1.575021e-03  3.561100e-06
     90     92   2   0.50000     0.0300000    0.5100000   2.482000e-04  1.854991e-07
     91     92   2   0.50000     0.0300000    0.5100000   2.482000e-04  1.854991e-07
     80     93   2   0.50000     0.1900000   -0.4300000   1.095425e-03  1.218041e-06
     80     94   2   0.50000     0.1900000   -0.1200000   1.015252e-03  1.866303e-06
     81     95   2   0.50000    -0.3300000   -0.1200000   1.026091e-03  1.187829e-06
     81    100   2   0.50000    -0.3300000    0.0600000   1.616969e-04  6.187447e-08
     81    101   2   0.50000    -0.3300000    0.0600000   1.616969e-04  6.187447e-08
     93     95   2   0.50000    -0.4300000   -0.1200000   1.095425e-03  1.218041e-06
     93    100   2   0.50000    -0.4300000    0.0600000   1.726228e-04  6.344822e-08
     93    101   2   0.50000    -0.4300000    0.0600000   1.726228e-04  6.344822e-08
     92     96   2   0.50000     0.5100000   -0.1200000   1.575021e-03  3.561100e-06
     92    102   2   0.50000     0.5100000    0.0600000   3.869820e-04  3.188634e-07
     92    103   2   0.50000     0.5100000    0.0600000   3.869820e-04  3.188634e-07
    100     96   2   0.50000     0.0600000   -0.1200000   1.599888e-04  9.721644e-08
    100    102   2   0.50000     0.0600000    0.0600000   3.930919e-05  8.704828e-09
    100    103   2   0.50000     0.0600000    0.0600000   3.930919e-05  8.704828e-09
    101     96   2   0.50000     0.0600000   -0.1200000   1.599888e-04  9.721644e-08
    101    102   2   0.50000     0.0600000    0.0600000   3.930919e-05  8.704828e-09
    101    103   2   0.50000     0.0600000    0.0600000   3.930919e-05  8.704828e-09
     94     97   2   0.50000    -0.1200000   -0.1200000   1.015252e-03  1.866303e-06
     94    104   2   0.50000    -0.1200000    0.0600000   2.494471e-04  1.671101e-07
     94    105   2   0.50000    -0.1200000    0.0600000   2.494471e-04  1.671101e-07
    102     97   2   0.50000     0.0600000   -0.1200000   2.494471e-04  1.671101e-07
    102    104   2   0.50000     0.0600000    0.0600000   6.128906e-05  1.496315e-08
    102    105   2   0.50000     0.0600000    0.0600000   6.128906e-05  1.496315e-08
    103     97   2   0.50000     0.0600000   -0.1200000   2.494471e-04  1.671101e-07
    103    104   2   0.50000     0.0600000    0.0600000   6.128906e-05  1.496315e-08
    103    105   2   0.50000     0.0600000    0.0600000   6.128906e-05  1.496315e-08
     95     98   2   0.50000    -0.1200000    0.1900000   1.015252e-03  1.866303e-06
     95    106   2   0.50000    -0.1200000    0.0600000   2.494471e-04  1.671101e-07
     95    107   2   0.50000    -0.1200000    0.0600000   2.494471e-04  1.671101e-07
    104     98   2   0.50000     0.0600000    0.1900000   2.494471e-04  1.671101e-07
    104    106   2   0.50000     0.0600000    0.0600000   6.128906e-05  1.496315e-08
    104    107   2   0.50000     0.0600000    0.0600000   6.128906e-05  1.496315e-08
    105     98   2   0.50000     0.0600000    0.1900000   2.494471e-04  1.671101e-07
    105    106   2   0.50000     0.0600000    0.0600000   6.128906e-05  1.496315e-08
    105    107   2   0.50000     0.0600000    0.0600000   6.128906e-05  1.496315e-08
     96     99   2   0.50000    -0.1200000   -0.3300000   1.026091e-03  1.187829e-06
     96    108   2   0.50000    -0.1200000    0.0300000   1.599888e-04  9.721644e-08
     96    109   2   0.50000    -0.1200000    0.0300000   1.599888e-04  9.721644e-08
    106     99   2   0.50000     0.0600000   -0.3300000   2.521103e-04  1.063590e-07
    106    108   2   0.50000     0.0600000    0.0300000   3.930919e-05  8.704828e-09
    106    109   2   0.50000     0.0600000    0.0300000   3.930919e-05  8.704828e-09
    107     99   2   0.50000     0.0600000   -0.3300000   2.521103e-04  1.063590e-07
    107    108   2   0.50000     0.0600000    0.0300000   3.930919e-05  8.704828e-09
    107    109   2   0.50000     0.0600000    0.0300000   3.930919e-05  8.704828e-09
     97    110   2   0.50000    -0.1200000    0.5100000   1.575021e-03  3.561100e-06
    108    110   2   0.50000     0.0300000    0.5100000   2.482000e-04  1.854991e-07
    109    110   2   0.50000     0.0300000    0.5100000   2.482000e-04  1.854991e-07
     98    111   2   0.50000     0.1900000   -0.4300000   1.095425e-03  1.218041e-06
     98    112   2   0.50000     0.1900000   -0.1200000   1.015252e-03  1.866303e-06
     99    113   2   0.50000    -0.3300000   -0.1200000   1.026091e-03  1.187829e-06
     99    118   2   0.50000    -0.3300000    0.0600000   1.616969e-04  6.187447e-08
     99    119   2   0.50000    -0.3300000    0.0600000   1.616969e-04  6.187447e-08
    111    113   2   0.50000    -0.4300000   -0.1200000   1.095425e-03  1.218041e-06
    111    118   2   0.50000    -0.4300000    0.0600000   1.726228e-04  6.344822e-08
    111    119   2   0.50000    -0.4300000    0.0600000   1.726228e-04  6.344822e-08
    110    114   2   0.50000     0.5100000   -0.1200000   1.575021e-03  3.561100e-06
    110    120   2   0.50000     0.5100000    0.0600000   3.869820e-04  3.188634e-07
    110    121   2   0.50000     0.5100000    0.0600000   3.869820e-04  3.188634e-07
    118    114   2   0.50000     0.0600000   -0.1200000   1.599888e-04  9.721644e-08
    118    120   2   0.50000     0.0600000    0.0600000   3.930919e-05  8.704828e-09
    118    121   2   0.50000     0.0600000    0.0600000   3.930919e-05  8.704828e-09
    119    114   2   0.50000     0.0600000   -0.1200000   1.599888e-04  9.721644e-08
    119    120   2   0.50000     0.0600000    0.0600000   3.930919e-05  8.704828e-09
    119    121   2   0.50000     0.0600000    0.0600000   3.930919e-05  8.704828e-09
    112    115   2   0.50000    -0.1200000   -0.1200000   1.015252e-03  1.866303e-06
    112    122   2   0.50000    -0.1200000    0.0600000   2.494471e-04  1.671101e-07
    112    123   2   0.50000    -0.1200000    0.0600000   2.494471e-04  1.671101e-07
    120    115   2   0.50000     0.0600000   -0.1200000   2.494471e-04  1.671101e-07
    120    122   2   0.50000     0.0600000    0.0600000   6.128906e-05  1.496315e-08
    120    123   2   0.50000     0.0600000    0.0600000   6.128906e-05  1.496315e-08
    121    115   2   0.50000     0.0600000   -0.1200000   2.494471e-04  1.671101e-07
    121    122   2   0.50000     0.0600000    0.0600000   6.128906e-05  1.496315e-08
    121    123   2   0.50000     0.0600000    0.0600000   6.128906e-05  1.496315e-08
    113    116   2   0.50000    -0.1200000    0.1900000   1.015252e-03  1.866303e-06
    113    124   2   0.50000    -0.1200000    0.0600000   2.494471e-04  1.671101e-07
    113    125   2   0.50000    -0.1200000    0.0600000   2.494471e-04  1.671101e-07
    122    116   2   0.50000     0.0600000    0.1900000   2.494471e-04  1.671101e-07
    122    124   2   0.50000     0.0600000    0.0600000   6.128906e-05  1.496315e-08
    122    125   2   0.50000     0.0600000    0.0600000   6.128906e-05  1.496315e-08
    123    116   2   0.50000     0.0600000    0.1900000   2.494471e-04  1.671101e-07
    123    124   2   0.50000     0.0600000    0.0600000   6.128906e-05  1.496315e-08
    123    125   2   0.50000     0.0600000    0.0600000   6.128906e-05  1.496315e-08
    114    117   2   0.50000    -0.1200000   -0.3300000   1.026091e-03  1.187829e-06
    114    126   2   0.50000    -0.1200000    0.0300000   1.599888e-04  9.721644e-08
    114    127   2   0.50000    -0.1200000    0.0300000   1.599888e-04  9.721644e-08
    124    117   2   0.50000     0.0600000   -0.3300000   2.521103e-04  1.063590e-07
    124    126   2   0.50000     0.0600000    0.0300000   3.930919e-05  8.704828e-09
    124    127   2   0.50000     0.0600000    0.0300000   3.930919e-05  8.704828e-09
    125    117   2   0.50000     0.0600000   -0.3300000   2.521103e-04  1.063590e-07
    125    126   2   0.50000     0.0600000    0.0300000   3.930919e-05  8.704828e-09
    125    127   2   0.50000     0.0600000    0.0300000   3.930919e-05  8.704828e-09
    115    128   2   0.50000    -0.1200000    0.5100000   1.575021e-03  3.561100e-06
    126    128   2   0.50000     0.0300000    0.5100000   2.482000e-04  1.854991e-07
    127    128   2   0.50000     0.0300000    0.5100000   2.482000e-04  1.854991e-07
    116    129   2   0.50000     0.1900000   -0.4300000   1.095425e-03  1.218041e-06
    116    130   2   0.50000     0.1900000   -0.1200000   1.015252e-03  1.866303e-06
    117    131   2   0.50000    -0.3300000   -0.1200000   1.026091e-03  1.187829e-06
    117    136   2   0.50000    -0.3300000    0.0600000   1.616969e-04  6.187447e-08
    117    137   2   0.50000    -0.3300000    0.0600000   1.616969e-04  6.187447e-08
    129    131   2   0.50000    -0.4300000   -0.1200000   1.095425e-03  1.218041e-06
    129    136   2   0.50000    -0.4300000    0.0600000   1.726228e-04  6.344822e-08
    129    137   2   0.50000    -0.4300000    0.0600000   1.726228e-04  6.344822e-08
    128    132   2   0.50000     0.5100000   -0.1200000   1.575021e-03  3.561100e-06
    128    138   2   0.50000     0.5100000    0.0600000   3.869820e-04  3.188634e-07
    128    139   2   0.50000     0.5100000    0.0600000   3.869820e-04  3.188634e-07
    136    132   2   0.50000     0.0600000   -0.1200000   1.599888e-04  9.721644e-08
    136    138   2   0.50000     0.0600000    0.0600000   3.930919e-05  8.704828e-09
    136    139   2   0.50000     0.0600000    0.0600000   3.930919e-05  8.704828e-09
    137    132   2   0.50000     0.0600000   -0.1200000   1.599888e-04  9.721644e-08
    137    138   2   0.50000     0.0600000    0.0600000   3.930919e-05  8.704828e-09
    137    139   2   0.50000     0.0600000    0.0600000   3.930919e-05  8.704828e-09
    130    133   2   0.50000    -0.1200000   -0.1200000   1.015252e-03  1.866303e-06
    130    140   2   0.50000    -0.1200000    0.0600000   2.494471e-04  1.671101e-07
    130    141   2   0.50000    -0.1200000    0.0600000   2.494471e-04  1.671101e-07
    138    133   2   0.50000     0.0600000   -0.1200000   2.494471e-04  1.671101e-07
    138    140   2   0.50000     0.0600000    0.0600000   6.128906e-05  1.496315e-08
    138    141   2   0.50000     0.0600000    0.0600000   6.128906e-05  1.496315e-08
    139    133   2   0.50000     0.0600000   -0.1200000   2.494471e-04  1.671101e-07
    139    140   2   0.50000     0.0600000    0.0600000   6.128906e-05  1.496315e-08
    139    141   2   0.50000     0.0600000    0.0600000   6.128906e-05  1.496315e-08
    131    134   2   0.50000    -0.1200000    0.1900000   1.015252e-03  1.866303e-06
    131    142   2   0.50000    -0.1200000    0.0600000   2.494471e-04  1.671101e-07
    131    143   2   0.50000    -0.1200000    0.0600000   2.494471e-04  1.671101e-07
    140    134   2   0.50000     0.0600000    0.1900000   2.494471e-04  1.671101e-07
    140    142   2   0.50000     0.0600000    0.0600000   6.128906e-05  1.496315e-08
    140    143   2   0.50000     0.0600000    0.0600000   6.128906e-05  1.496315e-08
    141    134   2   0.50000     0.0600000    0.1900000   2.494471e-04  1.671101e-07
    141    142   2   0.50000     0.0600000    0.0600000   6.128906e-05  1.496315e-08
    141    143   2   0.50000     0.0600000    0.0600000   6.128906e-05  1.496315e-08
    132    135   2   0.50000    -0.1200000   -0.3300000   1.026091e-03  1.187829e-06
    132    144   2   0.50000    -0.1200000    0.0300000   1.599888e-04  9.721644e-08
    132    145   2   0.50000    -0.1200000    0.0300000   1.599888e-04  9.721644e-08
    142    135   2   0.50000     0.0600000   -0.3300000   2.521103e-04  1.063590e-07
    142    144   2   0.50000     0.0600000    0.0300000   3.930919e-05  8.704828e-09
    142    145   2   0.50000     0.0600000    0.0300000   3.930919e-05  8.704828e-09
    143    135   2   0.50000     0.0600000   -0.3300000   2.521103e-04  1.063590e-07
    143    144   2   0.50000     0.0600000    0.0300000   3.930919e-05  8.704828e-09
    143    145   2   0.50000     0.0600000    0.0300000   3.930919e-05  8.704828e-09
    133    146   2   0.50000    -0.1200000    0.5100000   1.575021e-03  3.561100e-06
    144    146   2   0.50000     0.0300000    0.5100000   2.482000e-04  1.854991e-07
    145    146   2   0.50000     0.0300000    0.5100000   2.482000e-04  1.854991e-07
    134    147   2   0.50000     0.1900000   -0.4300000   1.095425e-03  1.218041e-06
    134    148   2   0.50000     0.1900000   -0.1200000   1.015252e-03  1.866303e-06
    135    149   2   0.50000    -0.3300000   -0.1200000   1.026091e-03  1.187829e-06
    135    154   2   0.50000    -0.3300000    0.0600000   1.616969e-04  6.187447e-08
    135    155   2   0.50000    -0.3300000    0.0600000   1.616969e-04  6.187447e-08
    147    149   2   0.50000    -0.4300000   -0.1200000   1.095425e-03  1.218041e-06
    147    154   2   0.50000    -0.4300000    0.0600000   1.726228e-04  6.344822e-08
    147    155   2   0.50000    -0.4300000    0.0600000   1.726228e-04  6.344822e-08
    146    150   2   0.50000     0.5100000   -0.1200000   1.575021e-03  3.561100e-06
    146    156   2   0.50000     0.5100000    0.0600000   3.869820e-04  3.188634e-07
    146    157   2   0.50000     0.5100000    0.0600000   3.869820e-04  3.188634e-07
    154    150   2   0.50000     0.0600000   -0.1200000   1.599888e-04  9.721644e-08
    154    156   2   0.50000     0.0600000    0.0600000   3.930919e-05  8.704828e-09
    154    157   2   0.50000     0.0600000    0.0600000   3.930919e-05  8.704828e-09
    155    150   2   0.50000     0.0600000   -0.1200000   1.599888e-04  9.721644e-08
    155    156   2   0.50000     0.0600000    0.0600000   3.930919e-05  8.704828e-09
    155    157   2   0.50000     0.0600000    0.0600000   3.930919e-05  8.704828e-09
    148    151   2   0.50000    -0.1200000   -0.1200000   1.015252e-03  1.866303e-06
    148    158   2   0.50000    -0.1200000    0.0600000   2.494471e-04  1.671101e-07
    148    159   2   0.50000    -0.1200000    0.0600000   2.494471e-04  1.671101e-07
    156    151   2   0.50000     0.0600000   -0.1200000   2.494471e-04  1.671101e-07
    156    158   2   0.50000     0.0600000    0.0600000   6.128906e-05  1.496315e-08
    156    159   2   0.50000     0.0600000    0.0600000   6.128906e-05  1.496315e-08
    157    151   2   0.50000     0.0600000   -0.1200000   2.494471e-04  1.671101e-07
    157    158   2   0.50000     0.0600000    0.0600000   6.128906e-05  1.496315e-08
    157    159   2   0.50000     0.0600000    0.0600000   6.128906e-05  1.496315e-08
    149    152   2   0.50000    -0.1200000    0.1900000   1.015252e-03  1.866303e-06
    149    160   2   0.50000    -0.1200000    0.0600000   2.494471e-04  1.671101e-07
    149    161   2   0.50000    -0.1200000    0.0600000   2.494471e-04  1.671101e-07
    158    152   2   0.50000     0.0600000    0.1900000   2.494471e-04  1.671101e-07
    158    160   2   0.50000     0.0600000    0.0600000   6.128906e-05  1.496315e-08
    158    161   2   0.50000     0.0600000    0.0600000   6.128906e-05  1.496315e-08
    159    152   2   0.50000     0.0600000    0.1900000   2.494471e-04  1.671101e-07
    159    160   2   0.50000     0.0600000    0.0600000   6.128906e-05  1.496315e-08
    159    161   2   0.50000     0.0600000    0.0600000   6.128906e-05  1.496315e-08
    150    153   2   0.50000    -0.1200000   -0.3300000   1.026091e-03  1.187829e-06
    150    162   2   0.50000    -0.1200000    0.0300000   1.599888e-04  9.721644e-08
    150    163   2   0.50000    -0.1200000    0.0300000   1.599888e-04  9.721644e-08
    160    153   2   0.50000     0.0600000   -0.3300000   2.521103e-04  1.063590e-07
    160    162   2   0.50000     0.0600000    0.0300000   3.930919e-05  8.704828e-09
    160    163   2   0.50000     0.0600000    0.0300000   3.930919e-05  8.704828e-09
    161    153   2   0.50000     0.0600000   -0.3300000   2.521103e-04  1.063590e-07
    161    162   2   0.50000     0.0600000    0.0300000   3.930919e-05  8.704828e-09
    161    163   2   0.50000     0.0600000    0.0300000   3.930919e-05  8.704828e-09
    151    164   2   0.50000    -0.1200000    0.5100000   1.575021e-03  3.561100e-06
    162    164   2   0.50000     0.0300000    0.5100000   2.482000e-04  1.854991e-07
    163    164   2   0.50000     0.0300000    0.5100000   2.482000e-04  1.854991e-07
    152    165   2   0.50000     0.1900000   -0.4300000   1.095425e-03  1.218041e-06
    152    166   2   0.50000     0.1900000   -0.1200000   1.015252e-03  1.866303e-06
    153    167   2   0.50000    -0.3300000   -0.1200000   1.026091e-03  1.187829e-06
    153    172   2   0.50000    -0.3300000    0.0600000   1.616969e-04  6.187447e-08
    153    173   2   0.50000    -0.3300000    0.0600000   1.616969e-04  6.187447e-08
    165    167   2   0.50000    -0.4300000   -0.1200000   1.095425e-03  1.218041e-06
    165    172   2   0.50000    -0.4300000    0.0600000   1.726228e-04  6.344822e-08
    165    173   2   0.50000    -0.4300000    0.0600000   1.726228e-04  6.344822e-08
    164    168   2   0.50000     0.5100000   -0.1200000   1.575021e-03  3.561100e-06
    164    174   2   0.50000     0.5100000    0.0600000   3.869820e-04  3.188634e-07
    164    175   2   0.50000     0.5100000    0.0600000   3.869820e-04  3.188634e-07
    172    168   2   0.50000     0.0600000   -0.1200000   1.599888e-04  9.721644e-08
    172    174   2   0.50000     0.0600000    0.0600000   3.930919e-05  8.704828e-09
    172    175   2   0.50000     0.0600000    0.0600000   3.930919e-05  8.704828e-09
    173    168   2   0.50000     0.0600000   -0.1200000   1.599888e-04  9.721644e-08
    173    174   2   0.50000     0.0600000    0.0600000   3.930919e-05  8.704828e-09
    173    175   2   0.50000     0.0600000    0.0600000   3.930919e-05  8.704828e-09
    166    169   2   0.50000    -0.1200000   -0.1200000   1.015252e-03  1.866303e-06
    166    176   2   0.50000    -0.1200000    0.0600000   2.494471e-04  1.671101e-07
    166    177   2   0.50000    -0.1200000    0.0600000   2.494471e-04  1.671101e-07
    174    169   2   0.50000     0.0600000   -0.1200000   2.494471e-04  1.671101e-07
    174    176   2   0.50000     0.0600000    0.0600000   6.128906e-05  1.496315e-08
    174    177   2   0.50000     0.0600000    0.0600000   6.128906e-05  1.496315e-08
    175    169   2   0.50000     0.0600000   -0.1200000   2.494471e-04  1.671101e-07
    175    176   2   0.50000     0.0600000    0.0600000   6.128906e-05  1.496315e-08
    175    177   2   0.50000     0.0600000    0.0600000   6.128906e-05  1.496315e-08
    167    170   2   0.50000    -0.1200000    0.1900000   1.015252e-03  1.866303e-06
    167    178   2   0.50000    -0.1200000    0.0600000   2.494471e-04  1.671101e-07
    167    179   2   0.50000    -0.1200000    0.0600000   2.494471e-04  1.671101e-07
    176    170   2   0.50000     0.0600000    0.1900000   2.494471e-04  1.671101e-07
    176    178   2   0.50000     0.0600000    0.0600000   6.128906e-05  1.496315e-08
    176    179   2   0.50000     0.0600000    0.0600000   6.128906e-05  1.496315e-08
    177    170   2   0.50000     0.0600000    0.1900000   2.494471e-04  1.671101e-07
    177    178   2   0.50000     0.0600000    0.0600000   6.128906e-05  1.496315e-08
    177    179   2   0.50000     0.0600000    0.0600000   6.128906e-05  1.496315e-08
    168    171   2   0.50000    -0.1200000   -0.3300000   1.026091e-03  1.187829e-06
    168    180   2   0.50000    -0.1200000    0.0300000   1.599888e-04  9.721644e-08
    168    181   2   0.50000    -0.1200000    0.0300000   1.599888e-04  9.721644e-08
    178    171   2   0.50000     0.0600000   -0.3300000   2.521103e-04  1.063590e-07
    178    180   2   0.50000     0.0600000    0.0300000   3.930919e-05  8.704828e-09
    178    181   2   0.50000     0.0600000    0.0300000   3.930919e-05  8.704828e-09
    179    171   2   0.50000     0.0600000   -0.3300000   2.521103e-04  1.063590e-07
    179    180   2   0.50000     0.0600000    0.0300000   3.930919e-05  8.704828e-09
    179    181   2   0.50000     0.0600000    0.0300000   3.930919e-05  8.704828e-09
    169    182   2   0.50000    -0.1200000    0.5100000   1.575021e-03  3.561100e-06
    180    182   2   0.50000     0.0300000    0.5100000   2.482000e-04  1.854991e-07
    181    182   2   0.50000     0.0300000    0.5100000   2.482000e-04  1.854991e-07
    170    183   2   0.50000     0.1900000   -0.4300000   1.095425e-03  1.218041e-06
    170    184   2   0.50000     0.1900000   -0.1200000   1.015252e-03  1.866303e-06
    171    185   2   0.50000    -0.3300000   -0.1200000   1.026091e-03  1.187829e-06
    171    190   2   0.50000    -0.3300000    0.0600000   1.616969e-04  6.187447e-08
    171    191   2   0.50000    -0.3300000    0.0600000   1.616969e-04  6.187447e-08
    183    185   2   0.50000    -0.4300000   -0.1200000   1.095425e-03  1.218041e-06
    183    190   2   0.50000    -0.4300000    0.0600000   1.726228e-04  6.344822e-08
    183    191   2   0.50000    -0.4300000    0.0600000   1.726228e-04  6.344822e-08
    182    186   2   0.50000     0.5100000   -0.1200000   1.575021e-03  3.561100e-06
    182    192   2   0.50000     0.5100000    0.0600000   3.869820e-04  3.188634e-07
    182    193   2   0.50000     0.5100000    0.0600000   3.869820e-04  3.188634e-07
    190    186   2   0.50000     0.0600000   -0.1200000   1.599888e-04  9.721644e-08
    190    192   2   0.50000     0.0600000    0.0600000   3.930919e-05  8.704828e-09
    190    193   2   0.50000     0.0600000    0.0600000   3.930919e-05  8.704828e-09
    191    186   2   0.50000     0.0600000   -0.1200000   1.599888e-04  9.721644e-08
    191    192   2   0.50000     0.0600000    0.0600000   3.930919e-05  8.704828e-09
    191    193   2   0.50000     0.0600000    0.0600000   3.930919e-05  8.704828e-09
    184    187   2   0.50000    -0.1200000   -0.1200000   1.015252e-03  1.866303e-06
    184    194   2   0.50000    -0.1200000    0.0600000   2.494471e-04  1.671101e-07
    184    195   2   0.50000    -0.1200000    0.0600000   2.494471e-04  1.671101e-07
    192    187   2   0.50000     0.0600000   -0.1200000   2.494471e-04  1.671101e-07
    192    194   2   0.50000     0.0600000    0.0600000   6.128906e-05  1.496315e-08
    192    195   2   0.50000     0.0600000    0.0600000   6.128906e-05  1.496315e-08
    193    187   2   0.50000     0.0600000   -0.1200000   2.494471e-04  1.671101e-07
    193    194   2   0.50000     0.0600000    0.0600000   6.128906e-05  1.496315e-08
    193    195   2   0.50000     0.0600000    0.0600000   6.128906e-05  1.496315e-08
    185    188   2   0.50000    -0.1200000    0.1900000   1.015252e-03  1.866303e-06
    185    196   2   0.50000    -0.1200000    0.0600000   2.494471e-04  1.671101e-07
    185    197   2   0.50000    -0.1200000    0.0600000   2.494471e-04  1.671101e-07
    194    188   2   0.50000     0.0600000    0.1900000   2.494471e-04  1.671101e-07
    194    196   2   0.50000     0.0600000    0.0600000   6.128906e-05  1.496315e-08
    194    197   2   0.50000     0.0600000    0.0600000   6.128906e-05  1.496315e-08
    195    188   2   0.50000     0.0600000    0.1900000   2.494471e-04  1.671101e-07
    195    196   2   0.50000     0.0600000    0.0600000   6.128906e-05  1.496315e-08
    195    197   2   0.50000     0.0600000    0.0600000   6.128906e-05  1.496315e-08
    186    189   2   0.50000    -0.1200000   -0.3300000   1.026091e-03  1.187829e-06
    186    198   2   0.50000    -0.1200000    0.0300000   1.599888e-04  9.721644e-08
    186    199   2   0.50000    -0.1200000    0.0300000   1.599888e-04  9.721644e-08
    196    189   2   0.50000     0.0600000   -0.3300000   2.521103e-04  1.063590e-07
    196    198   2   0.50000     0.0600000    0.0300000   3.930919e-05  8.704828e-09
    196    199   2   0.50000     0.0600000    0.0300000   3.930919e-05  8.704828e-09
    197    189   2   0.50000     0.0600000   -0.3300000   2.521103e-04  1.063590e-07
    197    198   2   0.50000     0.0600000    0.0300000   3.930919e-05  8.704828e-09
    197    199   2   0.50000     0.0600000    0.0300000   3.930919e-05  8.704828e-09
    187    200   2   0.50000    -0.1200000    0.5100000   1.575021e-03  3.561100e-06
    198    200   2   0.50000     0.0300000    0.5100000   2.482000e-04  1.854991e-07
    199    200   2   0.50000     0.0300000    0.5100000   2.482000e-04  1.854991e-07
    188    201   2   0.50000     0.1900000   -0.4300000   1.095425e-03  1.218041e-06
    188    202   2   0.50000     0.1900000   -0.1200000   1.015252e-03  1.866303e-06
    189    203   2   0.50000    -0.3300000   -0.1200000   1.026091e-03  1.187829e-06
    189    208   2   0.50000    -0.3300000    0.0600000   1.616969e-04  6.187447e-08
    189    209   2   0.50000    -0.3300000    0.0600000   1.616969e-04  6.187447e-08
    201    203   2   0.50000    -0.4300000   -0.1200000   1.095425e-03  1.218041e-06
    201    208   2   0.50000    -0.4300000    0.0600000   1.726228e-04  6.344822e-08
    201    209   2   0.50000    -0.4300000    0.0600000   1.726228e-04  6.344822e-08
    200    204   2   0.50000     0.5100000   -0.1200000   1.575021e-03  3.561100e-06
    200    210   2   0.50000     0.5100000    0.0600000   3.869820e-04  3.188634e-07
    200    211   2   0.50000     0.5100000    0.0600000   3.869820e-04  3.188634e-07
    208    204   2   0.50000     0.0600000   -0.1200000   1.599888e-04  9.721644e-08
    208    210   2   0.50000     0.0600000    0.0600000   3.930919e-05  8.704828e-09
    208    211   2   0.50000     0.0600000    0.0600000   3.930919e-05  8.704828e-09
    209    204   2   0.50000     0.0600000   -0.1200000   1.599888e-04  9.721644e-08
    209    210   2   0.50000     0.0600000    0.0600000   3.930919e-05  8.704828e-09
    209    211   2   0.50000     0.0600000    0.0600000   3.930919e-05  8.704828e-09
    202    205   2   0.50000    -0.1200000   -0.1200000   1.015252e-03  1.866303e-06
    202    212   2   0.50000    -0.1200000    0.0600000   2.494471e-04  1.671101e-07
    202    213   2   0.50000    -0.1200000    0.0600000   2.494471e-04  1.671101e-07
    210    205   2   0.50000     0.0600000   -0.1200000   2.494471e-04  1.671101e-07
    210    212   2   0.50000     0.0600000    0.0600000   6.128906e-05  1.496315e-08
    210    213   2   0.50000     0.0600000    0.0600000   6.128906e-05  1.496315e-08
    211    205   2   0.50000     0.0600000   -0.1200000   2.494471e-04  1.671101e-07
    211    212   2   0.50000     0.0600000    0.0600000   6.128906e-05  1.496315e-08
    211    213   2   0.50000     0.0600000    0.0600000   6.128906e-05  1.496315e-08
    203    206   2   0.50000    -0.1200000    0.1900000   1.015252e-03  1.866303e-06
    203    214   2   0.50000    -0.1200000    0.0600000   2.494471e-04  1.671101e-07
    203    215   2   0.50000    -0.1200000    0.0600000   2.494471e-04  1.671101e-07
    212    206   2   0.50000     0.0600000    0.1900000   2.494471e-04  1.671101e-07
    212    214   2   0.50000     0.0600000    0.0600000   6.128906e-05  1.496315e-08
    212    215   2   0.50000     0.0600000    0.0600000   6.128906e-05  1.496315e-08
    213    206   2   0.50000     0.0600000    0.1900000   2.494471e-04  1.671101e-07
    213    214   2   0.50000     0.0600000    0.0600000   6.128906e-05  1.496315e-08
    213    215   2   0.50000     0.0600000    0.0600000   6.128906e-05  1.496315e-08
    204    207   2   0.50000    -0.1200000   -0.3300000   1.026091e-03  1.187829e-06
    204    216   2   0.50000    -0.1200000    0.0300000   1.599888e-04  9.721644e-08
    204    217   2   0.50000    -0.1200000    0.0300000   1.599888e-04  9.721644e-08
    214    207   2   0.50000     0.0600000   -0.3300000   2.521103e-04  1.063590e-07
    214    216   2   0.50000     0.0600000    0.0300000   3.930919e-05  8.704828e-09
    214    217   2   0.50000     0.0600000    0.0300000   3.930919e-05  8.704828e-09
    215    207   2   0.50000     0.0600000   -0.3300000   2.521103e-04  1.063590e-07
    215    216   2   0.50000     0.0600000    0.0300000   3.930919e-05  8.704828e-09
    215    217   2   0.50000     0.0600000    0.0300000   3.930919e-05  8.704828e-09
    205    218   2   0.50000    -0.1200000    0.5100000   1.575021e-03  3.561100e-06
    216    218   2   0.50000     0.0300000    0.5100000   2.482000e-04  1.854991e-07
    217    218   2   0.50000     0.0300000    0.5100000   2.482000e-04  1.854991e-07
    206    219   2   0.50000     0.1900000   -0.4300000   1.095425e-03  1.218041e-06
    206    220   2   0.50000     0.1900000   -0.1200000   1.015252e-03  1.866303e-06
    207    221   2   0.50000    -0.3300000   -0.1200000   1.026091e-03  1.187829e-06
    207    226   2   0.50000    -0.3300000    0.0600000   1.616969e-04  6.187447e-08
    207    227   2   0.50000    -0.3300000    0.0600000   1.616969e-04  6.187447e-08
    219    221   2   0.50000    -0.4300000   -0.1200000   1.095425e-03  1.218041e-06
    219    226   2   0.50000    -0.4300000    0.0600000   1.726228e-04  6.344822e-08
    219    227   2   0.50000    -0.4300000    0.0600000   1.726228e-04  6.344822e-08
    218    222   2   0.50000     0.5100000   -0.1200000   1.575021e-03  3.561100e-06
    218    228   2   0.50000     0.5100000    0.0600000   3.869820e-04  3.188634e-07
    218    229   2   0.50000     0.5100000    0.0600000   3.869820e-04  3.188634e-07
    226    222   2   0.50000     0.0600000   -0.1200000   1.599888e-04  9.721644e-08
    226    228   2   0.50000     0.0600000    0.0600000   3.930919e-05  8.704828e-09
    226    229   2   0.50000     0.0600000    0.0600000   3.930919e-05  8.704828e-09
    227    222   2   0.50000     0.0600000   -0.1200000   1.599888e-04  9.721644e-08
    227    228   2   0.50000     0.0600000    0.0600000   3.930919e-05  8.704828e-09
    227    229   2   0.50000     0.0600000    0.0600000   3.930919e-05  8.704828e-09
    220    223   2   0.50000    -0.1200000   -0.1200000   1.015252e-03  1.866303e-06
    220    230   2   0.50000    -0.1200000    0.0600000   2.494471e-04  1.671101e-07
    220    231   2   0.50000    -0.1200000    0.0600000   2.494471e-04  1.671101e-07
    228    223   2   0.50000     0.0600000   -0.1200000   2.494471e-04  1.671101e-07
    228    230   2   0.50000     0.0600000    0.0600000   6.128906e-05  1.496315e-08
    228    231   2   0.50000     0.0600000    0.0600000   6.128906e-05  1.496315e-08
    229    223   2   0.50000     0.0600000   -0.1200000   2.494471e-04  1.671101e-07
    229    230   2   0.50000     0.0600000    0.0600000   6.128906e-05  1.496315e-08
    229    231   2   0.50000     0.0600000    0.0600000   6.128906e-05  1.496315e-08
    221    224   2   0.50000    -0.1200000    0.1900000   1.015252e-03  1.866303e-06
    221    232   2   0.50000    -0.1200000    0.0600000   2.494471e-04  1.671101e-07
    221    233   2   0.50000    -0.1200000    0.0600000   2.494471e-04  1.671101e-07
    230    224   2   0.50000     0.0600000    0.1900000   2.494471e-04  1.671101e-07
    230    232   2   0.50000     0.0600000    0.0600000   6.128906e-05  1.496315e-08
    230    233   2   0.50000     0.0600000    0.0600000   6.128906e-05  1.496315e-08
    231    224   2   0.50000     0.0600000    0.1900000   2.494471e-04  1.671101e-07
    231    232   2   0.50000     0.0600000    0.0600000   6.128906e-05  1.496315e-08
    231    233   2   0.50000     0.0600000    0.0600000   6.128906e-05  1.496315e-08
    222    225   2   0.50000    -0.1200000   -0.3300000   1.026091e-03  1.187829e-06
    222    234   2   0.50000    -0.1200000    0.0300000   1.599888e-04  9.721644e-08
    222    235   2   0.50000    -0.1200000    0.0300000   1.599888e-04  9.721644e-08
    232    225   2   0.50000     0.0600000   -0.3300000   2.521103e-04  1.063590e-07
    232    234   2   0.50000     0.0600000    0.0300000   3.930919e-05  8.704828e-09
    232    235   2   0.50000     0.0600000    0.0300000   3.930919e-05  8.704828e-09
    233    225   2   0.50000     0.0600000   -0.3300000   2.521103e-04  1.063590e-07
    233    234   2   0.50000     0.0600000    0.0300000   3.930919e-05  8.704828e-09
    233    235   2   0.50000     0.0600000    0.0300000   3.930919e-05  8.704828e-09
    223    236   2   0.50000    -0.1200000    0.5100000   1.575021e-03  3.561100e-06
    234    236   2   0.50000     0.0300000    0.5100000   2.482000e-04  1.854991e-07
    235    236   2   0.50000     0.0300000    0.5100000   2.482000e-04  1.854991e-07
    224    237   2   0.50000     0.1900000   -0.4300000   1.095425e-03  1.218041e-06
    224    238   2   0.50000     0.1900000   -0.1200000   1.015252e-03  1.866303e-06
    225    239   2   0.50000    -0.3300000   -0.1200000   1.026091e-03  1.187829e-06
    225    244   2   0.50000    -0.3300000    0.0600000   1.616969e-04  6.187447e-08
    225    245   2   0.50000    -0.3300000    0.0600000   1.616969e-04  6.187447e-08
    237    239   2   0.50000    -0.4300000   -0.1200000   1.095425e-03  1.218041e-06
    237    244   2   0.50000    -0.4300000    0.0600000   1.726228e-04  6.344822e-08
    237    245   2   0.50000    -0.4300000    0.0600000   1.726228e-04  6.344822e-08
    236    240   2   0.50000     0.5100000   -0.1200000   1.575021e-03  3.561100e-06
    236    246   2   0.50000     0.5100000    0.0600000   3.869820e-04  3.188634e-07
    236    247   2   0.50000     0.5100000    0.0600000   3.869820e-04  3.188634e-07
    244    240   2   0.50000     0.0600000   -0.1200000   1.599888e-04  9.721644e-08
    244    246   2   0.50000     0.0600000    0.0600000   3.930919e-05  8.704828e-09
    244    247   2   0.50000     0.0600000    0.0600000   3.930919e-05  8.704828e-09
    245    240   2   0.50000     0.0600000   -0.1200000   1.599888e-04  9.721644e-08
    245    246   2   0.50000     0.0600000    0.0600000   3.930919e-05  8.704828e-09
    245    247   2   0.50000     0.0600000    0.0600000   3.930919e-05  8.704828e-09
    238    241   2   0.50000    -0.1200000   -0.1200000   1.015252e-03  1.866303e-06
    238    248   2   0.50000    -0.1200000    0.0600000   2.494471e-04  1.671101e-07
    238    249   2   0.50000    -0.1200000    0.0600000   2.494471e-04  1.671101e-07
    246    241   2   0.50000     0.0600000   -0.1200000   2.494471e-04  1.671101e-07
    246    248   2   0.50000     0.0600000    0.0600000   6.128906e-05  1.496315e-08
    246    249   2   0.50000     0.0600000    0.0600000   6.128906e-05  1.496315e-08
    247    241   2   0.50000     0.0600000   -0.1200000   2.494471e-04  1.671101e-07
    247    248   2   0.50000     0.0600000    0.0600000   6.128906e-05  1.496315e-08
    247    249   2   0.50000     0.0600000    0.0600000   6.128906e-05  1.496315e-08
    239    242   2   0.50000    -0.1200000    0.1900000   1.015252e-03  1.866303e-06
    239    250   2   0.50000    -0.1200000    0.0600000   2.494471e-04  1.671101e-07
    239    251   2   0.50000    -0.1200000    0.0600000   2.494471e-04  1.671101e-07
    248    242   2   0.50000     0.0600000    0.1900000   2.494471e-04  1.671101e-07
    248    250   2   0.50000     0.0600000    0.0600000   6.128906e-05  1.496315e-08
    248    251   2   0.50000     0.0600000    0.0600000   6.128906e-05  1.496315e-08
    249    242   2   0.50000     0.0600000    0.1900000   2.494471e-04  1.671101e-07
    249    250   2   0.50000     0.0600000    0.0600000   6.128906e-05  1.496315e-08
    249    251   2   0.50000     0.0600000    0.0600000   6.128906e-05  1.496315e-08
    240    243   2   0.50000    -0.1200000   -0.3300000   1.026091e-03  1.187829e-06
    240    252   2   0.50000    -0.1200000    0.0300000   1.599888e-04  9.721644e-08
    240    253   2   0.50000    -0.1200000    0.0300000   1.599888e-04  9.721644e-08
    250    243   2   0.50000     0.0600000   -0.3300000   2.521103e-04  1.063590e-07
    250    252   2   0.50000     0.0600000    0.0300000   3.930919e-05  8.704828e-09
    250    253   2   0.50000     0.0600000    0.0300000   3.930919e-05  8.704828e-09
    251    243   2   0.50000     0.0600000   -0.3300000   2.521103e-04  1.063590e-07
    251    252   2   0.50000     0.0600000    0.0300000   3.930919e-05  8.704828e-09
    251    253   2   0.50000     0.0600000    0.0300000   3.930919e-05  8.704828e-09
    241    254   2   0.50000    -0.1200000    0.5100000   1.575021e-03  3.561100e-06
    252    254   2   0.50000     0.0300000    0.5100000   2.482000e-04  1.854991e-07
    253    254   2   0.50000     0.0300000    0.5100000   2.482000e-04  1.854991e-07
    242    255   2   0.50000     0.1900000   -0.4300000   1.095425e-03  1.218041e-06
    242    256   2   0.50000     0.1900000   -0.1200000   1.015252e-03  1.866303e-06
    243    257   2   0.50000    -0.3300000   -0.1200000   1.026091e-03  1.187829e-06
    243    262   2   0.50000    -0.3300000    0.0600000   1.616969e-04  6.187447e-08
    243    263   2   0.50000    -0.3300000    0.0600000   1.616969e-04  6.187447e-08
    255    257   2   0.50000    -0.4300000   -0.1200000   1.095425e-03  1.218041e-06
    255    262   2   0.50000    -0.4300000    0.0600000   1.726228e-04  6.344822e-08
    255    263   2   0.50000    -0.4300000    0.0600000   1.726228e-04  6.344822e-08
    254    258   2   0.50000     0.5100000   -0.1200000   1.575021e-03  3.561100e-06
    254    264   2   0.50000     0.5100000    0.0600000   3.869820e-04  3.188634e-07
    254    265   2   0.50000     0.5100000    0.0600000   3.869820e-04  3.188634e-07
    262    258   2   0.50000     0.0600000   -0.1200000   1.599888e-04  9.721644e-08
    262    264   2   0.50000     0.0600000    0.0600000   3.930919e-05  8.704828e-09
    262    265   2   0.50000     0.0600000    0.0600000   3.930919e-05  8.704828e-09
    263    258   2   0.50000     0.0600000   -0.1200000   1.599888e-04  9.721644e-08
    263    264   2   0.50000     0.0600000    0.0600000   3.930919e-05  8.704828e-09
    263    265   2   0.50000     0.0600000    0.0600000   3.930919e-05  8.704828e-09
    256    259   2   0.50000    -0.1200000   -0.1200000   1.015252e-03  1.866303e-06
    256    266   2   0.50000    -0.1200000    0.0600000   2.494471e-04  1.671101e-07
    256    267   2   0.50000    -0.1200000    0.0600000   2.494471e-04  1.671101e-07
    264    259   2   0.50000     0.0600000   -0.1200000   2.494471e-04  1.671101e-07
    264    266   2   0.50000     0.0600000    0.0600000   6.128906e-05  1.496315e-08
    264    267   2   0.50000     0.0600000    0.0600000   6.128906e-05  1.496315e-08
    265    259   2   0.50000     0.0600000   -0.1200000   2.494471e-04  1.671101e-07
    265    266   2   0.50000     0.0600000    0.0600000   6.128906e-05  1.496315e-08
    265    267   2   0.50000     0.0600000    0.0600000   6.128906e-05  1.496315e-08
    257    260   2   0.50000    -0.1200000    0.1900000   1.015252e-03  1.866303e-06
    257    268   2   0.50000    -0.1200000    0.0600000   2.494471e-04  1.671101e-07
    257    269   2   0.50000    -0.1200000    0.0600000   2.494471e-04  1.671101e-07
    266    260   2   0.50000     0.0600000    0.1900000   2.494471e-04  1.671101e-07
    266    268   2   0.50000     0.0600000    0.0600000   6.128906e-05  1.496315e-08
    266    269   2   0.50000     0.0600000    0.0600000   6.128906e-05  1.496315e-08
    267    260   2   0.50000     0.0600000    0.1900000   2.494471e-04  1.671101e-07
    267    268   2   0.50000     0.0600000    0.0600000   6.128906e-05  1.496315e-08
    267    269   2   0.50000     0.0600000    0.0600000   6.128906e-05  1.496315e-08
    258    261   2   0.50000    -0.1200000   -0.3300000   1.026091e-03  1.187829e-06
    258    270   2   0.50000    -0.1200000    0.0300000   1.599888e-04  9.721644e-08
    258    271   2   0.50000    -0.1200000    0.0300000   1.599888e-04  9.721644e-08
    268    261   2   0.50000     0.0600000   -0.3300000   2.521103e-04  1.063590e-07
    268    270   2   0.50000     0.0600000    0.0300000   3.930919e-05  8.704828e-09
    268    271   2   0.50000     0.0600000    0.0300000   3.930919e-05  8.704828e-09
    269    261   2   0.50000     0.0600000   -0.3300000   2.521103e-04  1.063590e-07
    269    270   2   0.50000     0.0600000    0.0300000   3.930919e-05  8.704828e-09
    269    271   2   0.50000     0.0600000    0.0300000   3.930919e-05  8.704828e-09
    259    272   2   0.50000    -0.1200000    0.5100000   1.575021e-03  3.561100e-06
    270    272   2   0.50000     0.0300000    0.5100000   2.482000e-04  1.854991e-07
    271    272   2   0.50000     0.0300000    0.5100000   2.482000e-04  1.854991e-07
    260    273   2   0.50000     0.1900000   -0.4300000   1.095425e-03  1.218041e-06
    260    274   2   0.50000     0.1900000   -0.1200000   1.015252e-03  1.866303e-06
    261    275   2   0.50000    -0.3300000   -0.1200000   1.026091e-03  1.187829e-06
    261    280   2   0.50000    -0.3300000    0.0600000   1.616969e-04  6.187447e-08
    261    281   2   0.50000    -0.3300000    0.0600000   1.616969e-04  6.187447e-08
    273    275   2   0.50000    -0.4300000   -0.1200000   1.095425e-03  1.218041e-06
    273    280   2   0.50000    -0.4300000    0.0600000   1.726228e-04  6.344822e-08
    273    281   2   0.50000    -0.4300000    0.0600000   1.726228e-04  6.344822e-08
    272    276   2   0.50000     0.5100000   -0.1200000   1.575021e-03  3.561100e-06
    272    282   2   0.50000     0.5100000    0.0600000   3.869820e-04  3.188634e-07
    272    283   2   0.50000     0.5100000    0.0600000   3.869820e-04  3.188634e-07
    280    276   2   0.50000     0.0600000   -0.1200000   1.599888e-04  9.721644e-08
    280    282   2   0.50000     0.0600000    0.0600000   3.930919e-05  8.704828e-09
    280    283   2   0.50000     0.0600000    0.0600000   3.930919e-05  8.704828e-09
    281    276   2   0.50000     0.0600000   -0.1200000   1.599888e-04  9.721644e-08
    281    282   2   0.50000     0.0600000    0.0600000   3.930919e-05  8.704828e-09
    281    283   2   0.50000     0.0600000    0.0600000   3.930919e-05  8.704828e-09
    274    277   2   0.50000    -0.1200000   -0.1200000   1.015252e-03  1.866303e-06
    274    284   2   0.50000    -0.1200000    0.0600000   2.494471e-04  1.671101e-07
    274    285   2   0.50000    -0.1200000    0.0600000   2.494471e-04  1.671101e-07
    282    277   2   0.50000     0.0600000   -0.1200000   2.494471e-04  1.671101e-07
    282    284   2   0.50000     0.0600000    0.0600000   6.128906e-05  1.496315e-08
    282    285   2   0.50000     0.0600000    0.0600000   6.128906e-05  1.496315e-08
    283    277   2   0.50000     0.0600000   -0.1200000   2.494471e-04  1.671101e-07
    283    284   2   0.50000     0.0600000    0.0600000   6.128906e-05  1.496315e-08
    283    285   2   0.50000     0.0600000    0.0600000   6.128906e-05  1.496315e-08
    275    278   2   0.50000    -0.1200000    0.1900000   1.015252e-03  1.866303e-06
    275    286   2   0.50000    -0.1200000    0.0600000   2.494471e-04  1.671101e-07
    275    287   2   0.50000    -0.1200000    0.0600000   2.494471e-04  1.671101e-07
    284    278   2   0.50000     0.0600000    0.1900000   2.494471e-04  1.671101e-07
    284    286   2   0.50000     0.0600000    0.0600000   6.128906e-05  1.496315e-08
    284    287   2   0.50000     0.0600000    0.0600000   6.128906e-05  1.496315e-08
    285    278   2   0.50000     0.0600000    0.1900000   2.494471e-04  1.671101e-07
    285    286   2   0.50000     0.0600000    0.0600000   6.128906e-05  1.496315e-08
    285    287   2   0.50000     0.0600000    0.0600000   6.128906e-05  1.496315e-08
    276    279   2   0.50000    -0.1200000   -0.3300000   1.026091e-03  1.187829e-06
    276    288   2   0.50000    -0.1200000    0.0300000   1.599888e-04  9.721644e-08
    276    289   2   0.50000    -0.1200000    0.0300000   1.599888e-04  9.721644e-08
    286    279   2   0.50000     0.0600000   -0.3300000   2.521103e-04  1.063590e-07
    286    288   2   0.50000     0.0600000    0.0300000   3.930919e-05  8.704828e-09
    286    289   2   0.50000     0.0600000    0.0300000   3.930919e-05  8.704828e-09
    287    279   2   0.50000     0.0600000   -0.3300000   2.521103e-04  1.063590e-07
    287    288   2   0.50000     0.0600000    0.0300000   3.930919e-05  8.704828e-09
    287    289   2   0.50000     0.0600000    0.0300000   3.930919e-05  8.704828e-09
    277    290   2   0.50000    -0.1200000    0.5100000   1.575021e-03  3.561100e-06
    288    290   2   0.50000     0.0300000    0.5100000   2.482000e-04  1.854991e-07
    289    290   2   0.50000     0.0300000    0.5100000   2.482000e-04  1.854991e-07
    278    291   2   0.50000     0.1900000   -0.4300000   1.095425e-03  1.218041e-06
    278    292   2   0.50000     0.1900000   -0.1200000   1.015252e-03  1.866303e-06
    279    293   2   0.50000    -0.3300000   -0.1200000   1.026091e-03  1.187829e-06
    279    298   2   0.50000    -0.3300000    0.0600000   1.616969e-04  6.187447e-08
    279    299   2   0.50000    -0.3300000    0.0600000   1.616969e-04  6.187447e-08
    291    293   2   0.50000    -0.4300000   -0.1200000   1.095425e-03  1.218041e-06
    291    298   2   0.50000    -0.4300000    0.0600000   1.726228e-04  6.344822e-08
    291    299   2   0.50000    -0.4300000    0.0600000   1.726228e-04  6.344822e-08
    290    294   2   0.50000     0.5100000   -0.1200000   1.575021e-03  3.561100e-06
    290    300   2   0.50000     0.5100000    0.0600000   3.869820e-04  3.188634e-07
    290    301   2   0.50000     0.5100000    0.0600000   3.869820e-04  3.188634e-07
    298    294   2   0.50000     0.0600000   -0.1200000   1.599888e-04  9.721644e-08
    298    300   2   0.50000     0.0600000    0.0600000   3.930919e-05  8.704828e-09
    298    301   2   0.50000     0.0600000    0.0600000   3.930919e-05  8.704828e-09
    299    294   2   0.50000     0.0600000   -0.1200000   1.599888e-04  9.721644e-08
    299    300   2   0.50000     0.0600000    0.0600000   3.930919e-05  8.704828e-09
    299    301   2   0.50000     0.0600000    0.0600000   3.930919e-05  8.704828e-09
    292    295   2   0.50000    -0.1200000   -0.1200000   1.015252e-03  1.866303e-06
    292    302   2   0.50000    -0.1200000    0.0600000   2.494471e-04  1.671101e-07
    292    303   2   0.50000    -0.1200000    0.0600000   2.494471e-04  1.671101e-07
    300    295   2   0.50000     0.0600000   -0.1200000   2.494471e-04  1.671101e-07
    300    302   2   0.50000     0.0600000    0.0600000   6.128906e-05  1.496315e-08
    300    303   2   0.50000     0.0600000    0.0600000   6.128906e-05  1.496315e-08
    301    295   2   0.50000     0.0600000   -0.1200000   2.494471e-04  1.671101e-07
    301    302   2   0.50000     0.0600000    0.0600000   6.128906e-05  1.496315e-08
    301    303   2   0.50000     0.0600000    0.0600000   6.128906e-05  1.496315e-08
    293    296   2   0.50000    -0.1200000    0.1900000   1.015252e-03  1.866303e-06
    293    304   2   0.50000    -0.1200000    0.0600000   2.494471e-04  1.671101e-07
    293    305   2   0.50000    -0.1200000    0.0600000   2.494471e-04  1.671101e-07
    302    296   2   0.50000     0.0600000    0.1900000   2.494471e-04  1.671101e-07
    302    304   2   0.50000     0.0600000    0.0600000   6.128906e-05  1.496315e-08
    302    305   2   0.50000     0.0600000    0.0600000   6.128906e-05  1.496315e-08
    303    296   2   0.50000     0.0600000    0.1900000   2.494471e-04  1.671101e-07
    303    304   2   0.50000     0.0600000    0.0600000   6.128906e-05  1.496315e-08
    303    305   2   0.50000     0.0600000    0.0600000   6.128906e-05  1.496315e-08
    294    297   2   0.50000    -0.1200000   -0.3300000   1.026091e-03  1.187829e-06
    294    306   2   0.50000    -0.1200000    0.0300000   1.599888e-04  9.721644e-08
    294    307   2   0.50000    -0.1200000    0.0300000   1.599888e-04  9.721644e-08
    304    297   2   0.50000     0.0600000   -0.3300000   2.521103e-04  1.063590e-07
    304    306   2   0.50000     0.0600000    0.0300000   3.930919e-05  8.704828e-09
    304    307   2   0.50000     0.0600000    0.0300000   3.930919e-05  8.704828e-09
    305    297   2   0.50000     0.0600000   -0.3300000   2.521103e-04  1.063590e-07
    305    306   2   0.50000     0.0600000    0.0300000   3.930919e-05  8.704828e-09
    305    307   2   0.50000     0.0600000    0.0300000   3.930919e-05  8.704828e-09
    295    308   2   0.50000    -0.1200000    0.5100000   1.575021e-03  3.561100e-06
    306    308   2   0.50000     0.0300000    0.5100000   2.482000e-04  1.854991e-07
    307    308   2   0.50000     0.0300000    0.5100000   2.482000e-04  1.854991e-07
    296    309   2   0.50000     0.1900000   -0.4300000   1.095425e-03  1.218041e-06
    296    310   2   0.50000     0.1900000   -0.1200000   1.015252e-03  1.866303e-06
    297    311   2   0.50000    -0.3300000   -0.1200000   1.026091e-03  1.187829e-06
    297    316   2   0.50000    -0.3300000    0.0600000   1.616969e-04  6.187447e-08
    297    317   2   0.50000    -0.3300000    0.0600000   1.616969e-04  6.187447e-08
    309    311   2   0.50000    -0.4300000   -0.1200000   1.095425e-03  1.218041e-06
    309    316   2   0.50000    -0.4300000    0.0600000   1.726228e-04  6.344822e-08
    309    317   2   0.50000    -0.4300000    0.0600000   1.726228e-04  6.344822e-08
    308    312   2   0.50000     0.5100000   -0.1200000   1.575021e-03  3.561100e-06
    308    318   2   0.50000     0.5100000    0.0600000   3.869820e-04  3.188634e-07
    308    319   2   0.50000     0.5100000    0.0600000   3.869820e-04  3.188634e-07
    316    312   2   0.50000     0.0600000   -0.1200000   1.599888e-04  9.721644e-08
    316    318   2   0.50000     0.0600000    0.0600000   3.930919e-05  8.704828e-09
    316    319   2   0.50000     0.0600000    0.0600000   3.930919e-05  8.704828e-09
    317    312   2   0.50000     0.0600000   -0.1200000   1.599888e-04  9.721644e-08
    317    318   2   0.50000     0.0600000    0.0600000   3.930919e-05  8.704828e-09
    317    319   2   0.50000     0.0600000    0.0600000   3.930919e-05  8.704828e-09
    310    313   2   0.50000    -0.1200000   -0.1200000   1.015252e-03  1.866303e-06
    310    320   2   0.50000    -0.1200000    0.0600000   2.494471e-04  1.671101e-07
    310    321   2   0.50000    -0.1200000    0.0600000   2.494471e-04  1.671101e-07
    318    313   2   0.50000     0.0600000   -0.1200000   2.494471e-04  1.671101e-07
    318    320   2   0.50000     0.0600000    0.0600000   6.128906e-05  1.496315e-08
    318    321   2   0.50000     0.0600000    0.0600000   6.128906e-05  1.496315e-08
    319    313   2   0.50000     0.0600000   -0.1200000   2.494471e-04  1.671101e-07
    319    320   2   0.50000     0.0600000    0.0600000   6.128906e-05  1.496315e-08
    319    321   2   0.50000     0.0600000    0.0600000   6.128906e-05  1.496315e-08
    311    314   2   0.50000    -0.1200000    0.1900000   1.015252e-03  1.866303e-06
    311    322   2   0.50000    -0.1200000    0.0600000   2.494471e-04  1.671101e-07
    311    323   2   0.50000    -0.1200000    0.0600000   2.494471e-04  1.671101e-07
    320    314   2   0.50000     0.0600000    0.1900000   2.494471e-04  1.671101e-07
    320    322   2   0.50000     0.0600000    0.0600000   6.128906e-05  1.496315e-08
    320    323   2   0.50000     0.0600000    0.0600000   6.128906e-05  1.496315e-08
    321    314   2   0.50000     0.0600000    0.1900000   2.494471e-04  1.671101e-07
    321    322   2   0.50000     0.0600000    0.0600000   6.128906e-05  1.496315e-08
    321    323   2   0.50000     0.0600000    0.0600000   6.128906e-05  1.496315e-08
    312    315   2   0.50000    -0.1200000   -0.3300000   1.026091e-03  1.187829e-06
    312    324   2   0.50000    -0.1200000    0.0300000   1.599888e-04  9.721644e-08
    312    325   2   0.50000    -0.1200000    0.0300000   1.599888e-04  9.721644e-08
    322    315   2   0.50000     0.0600000   -0.3300000   2.521103e-04  1.063590e-07
    322    324   2   0.50000     0.0600000    0.0300000   3.930919e-05  8.704828e-09
    322    325   2   0.50000     0.0600000    0.0300000   3.930919e-05  8.704828e-09
    323    315   2   0.50000     0.0600000   -0.3300000   2.521103e-04  1.063590e-07
    323    324   2   0.50000     0.0600000    0.0300000   3.930919e-05  8.704828e-09
    323    325   2   0.50000     0.0600000    0.0300000   3.930919e-05  8.704828e-09
    313    326   2   0.50000    -0.1200000    0.5100000   1.575021e-03  3.561100e-06
    324    326   2   0.50000     0.0300000    0.5100000   2.482000e-04  1.854991e-07
    325    326   2   0.50000     0.0300000    0.5100000   2.482000e-04  1.854991e-07
    314    327   2   0.50000     0.1900000   -0.4300000   1.095425e-03  1.218041e-06
    314    328   2   0.50000     0.1900000   -0.1200000   1.015252e-03  1.866303e-06
    315    329   2   0.50000    -0.3300000   -0.1200000   1.026091e-03  1.187829e-06
    315    334   2   0.50000    -0.3300000    0.0600000   1.616969e-04  6.187447e-08
    315    335   2   0.50000    -0.3300000    0.0600000   1.616969e-04  6.187447e-08
    327    329   2   0.50000    -0.4300000   -0.1200000   1.095425e-03  1.218041e-06
    327    334   2   0.50000    -0.4300000    0.0600000   1.726228e-04  6.344822e-08
    327    335   2   0.50000    -0.4300000    0.0600000   1.726228e-04  6.344822e-08
    326    330   2   0.50000     0.5100000   -0.1200000   1.575021e-03  3.561100e-06
    326    336   2   0.50000     0.5100000    0.0600000   3.869820e-04  3.188634e-07
    326    337   2   0.50000     0.5100000    0.0600000   3.869820e-04  3.188634e-07
    334    330   2   0.50000     0.0600000   -0.1200000   1.599888e-04  9.721644e-08
    334    336   2   0.50000     0.0600000    0.0600000   3.930919e-05  8.704828e-09
    334    337   2   0.50000     0.0600000    0.0600000   3.930919e-05  8.704828e-09
    335    330   2   0.50000     0.0600000   -0.1200000   1.599888e-04  9.721644e-08
    335    336   2   0.50000     0.0600000    0.0600000   3.930919e-05  8.704828e-09
    335    337   2   0.50000     0.0600000    0.0600000   3.930919e-05  8.704828e-09
    328    331   2   0.50000    -0.1200000   -0.1200000   1.015252e-03  1.866303e-06
    328    338   2   0.50000    -0.1200000    0.0600000   2.494471e-04  1.671101e-07
    328    339   2   0.50000    -0.1200000    0.0600000   2.494471e-04  1.671101e-07
    336    331   2   0.50000     0.0600000   -0.1200000   2.494471e-04  1.671101e-07
    336    338   2   0.50000     0.0600000    0.0600000   6.128906e-05  1.496315e-08
    336    339   2   0.50000     0.0600000    0.0600000   6.128906e-05  1.496315e-08
    337    331   2   0.50000     0.0600000   -0.1200000   2.494471e-04  1.671101e-07
    337    338   2   0.50000     0.0600000    0.0600000   6.128906e-05  1.496315e-08
    337    339   2   0.50000     0.0600000    0.0600000   6.128906e-05  1.496315e-08
    329    332   2   0.50000    -0.1200000    0.1900000   1.015252e-03  1.866303e-06
    329    340   2   0.50000    -0.1200000    0.0600000   2.494471e-04  1.671101e-07
    329    341   2   0.50000    -0.1200000    0.0600000   2.494471e-04  1.671101e-07
    338    332   2   0.50000     0.0600000    0.1900000   2.494471e-04  1.671101e-07
    338    340   2   0.50000     0.0600000    0.0600000   6.128906e-05  1.496315e-08
    338    341   2   0.50000     0.0600000    0.0600000   6.128906e-05  1.496315e-08
    339    332   2   0.50000     0.0600000    0.1900000   2.494471e-04  1.671101e-07
    339    340   2   0.50000     0.0600000    0.0600000   6.128906e-05  1.496315e-08
    339    341   2   0.50000     0.0600000    0.0600000   6.128906e-05  1.496315e-08
    330    333   2   0.50000    -0.1200000   -0.3300000   1.026091e-03  1.187829e-06
    330    342   2   0.50000    -0.1200000    0.0300000   1.599888e-04  9.721644e-08
    330    343   2   0.50000    -0.1200000    0.0300000   1.599888e-04  9.721644e-08
    340    333   2   0.50000     0.0600000   -0.3300000   2.521103e-04  1.063590e-07
    340    342   2   0.50000     0.0600000    0.0300000   3.930919e-05  8.704828e-09
    340    343   2   0.50000     0.0600000    0.0300000   3.930919e-05  8.704828e-09
    341    333   2   0.50000     0.0600000   -0.3300000   2.521103e-04  1.063590e-07
    341    342   2   0.50000     0.0600000    0.0300000   3.930919e-05  8.704828e-09
    341    343   2   0.50000     0.0600000    0.0300000   3.930919e-05  8.704828e-09
    331    344   2   0.50000    -0.1200000    0.5100000   1.575021e-03  3.561100e-06
    342    344   2   0.50000     0.0300000    0.5100000   2.482000e-04  1.854991e-07
    343    344   2   0.50000     0.0300000    0.5100000   2.482000e-04  1.854991e-07
    332    345   2   0.50000     0.1900000   -0.4300000   1.095425e-03  1.218041e-06
    332    346   2   0.50000     0.1900000   -0.1200000   1.015252e-03  1.866303e-06
    333    347   2   0.50000    -0.3300000   -0.1200000   1.026091e-03  1.187829e-06
    333    352   2   0.50000    -0.3300000    0.0600000   1.616969e-04  6.187447e-08
    333    353   2   0.50000    -0.3300000    0.0600000   1.616969e-04  6.187447e-08
    345    347   2   0.50000    -0.4300000   -0.1200000   1.095425e-03  1.218041e-06
    345    352   2   0.50000    -0.4300000    0.0600000   1.726228e-04  6.344822e-08
    345    353   2   0.50000    -0.4300000    0.0600000   1.726228e-04  6.344822e-08
    344    348   2   0.50000     0.5100000   -0.1200000   1.575021e-03  3.561100e-06
    344    354   2   0.50000     0.5100000    0.0600000   3.869820e-04  3.188634e-07
    344    355   2   0.50000     0.5100000    0.0600000   3.869820e-04  3.188634e-07
    352    348   2   0.50000     0.0600000   -0.1200000   1.599888e-04  9.721644e-08
    352    354   2   0.50000     0.0600000    0.0600000   3.930919e-05  8.704828e-09
    352    355   2   0.50000     0.0600000    0.0600000   3.930919e-05  8.704828e-09
    353    348   2   0.50000     0.0600000   -0.1200000   1.599888e-04  9.721644e-08
    353    354   2   0.50000     0.0600000    0.0600000   3.930919e-05  8.704828e-09
    353    355   2   0.50000     0.0600000    0.0600000   3.930919e-05  8.704828e-09
    346    349   2   0.50000    -0.1200000   -0.1200000   1.015252e-03  1.866303e-06
    346    356   2   0.50000    -0.1200000    0.0600000   2.494471e-04  1.671101e-07
    346    357   2   0.50000    -0.1200000    0.0600000   2.494471e-04  1.671101e-07
    354    349   2   0.50000     0.0600000   -0.1200000   2.494471e-04  1.671101e-07
    354    356   2   0.50000     0.0600000    0.0600000   6.128906e-05  1.496315e-08
    354    357   2   0.50000     0.0600000    0.0600000   6.128906e-05  1.496315e-08
    355    349   2   0.50000     0.0600000   -0.1200000   2.494471e-04  1.671101e-07
    355    356   2   0.50000     0.0600000    0.0600000   6.128906e-05  1.496315e-08
    355    357   2   0.50000     0.0600000    0.0600000   6.128906e-05  1.496315e-08
    347    350   2   0.50000    -0.1200000    0.1450000   1.015252e-03  1.866303e-06
    347    358   2   0.50000    -0.1200000    0.0600000   2.494471e-04  1.671101e-07
    347    359   2   0.50000    -0.1200000    0.0600000   2.494471e-04  1.671101e-07
    356    350   2   0.50000     0.0600000    0.1450000   2.494471e-04  1.671101e-07
    356    358   2   0.50000     0.0600000    0.0600000   6.128906e-05  1.496315e-08
    356    359   2   0.50000     0.0600000    0.0600000   6.128906e-05  1.496315e-08
    357    350   2   0.50000     0.0600000    0.1450000   2.494471e-04  1.671101e-07
    357    358   2   0.50000     0.0600000    0.0600000   6.128906e-05  1.496315e-08
    357    359   2   0.50000     0.0600000    0.0600000   6.128906e-05  1.496315e-08
    348    351   2   0.50000    -0.1200000   -0.6830000   1.154213e-03  1.502983e-06
    348    360   2   0.50000    -0.1200000    0.0600000   2.494471e-04  1.671101e-07
    348    361   2   0.50000    -0.1200000    0.0600000   2.494471e-04  1.671101e-07
    358    351   2   0.50000     0.0600000   -0.6830000   2.835898e-04  1.345781e-07
    358    360   2   0.50000     0.0600000    0.0600000   6.128906e-05  1.496315e-08
    358    361   2   0.50000     0.0600000    0.0600000   6.128906e-05  1.496315e-08
    359    351   2   0.50000     0.0600000   -0.6830000   2.835898e-04  1.345781e-07
    359    360   2   0.50000     0.0600000    0.0600000   6.128906e-05  1.496315e-08
    359    361   2   0.50000     0.0600000    0.0600000   6.128906e-05  1.496315e-08
    349    362   2   0.50000    -0.1200000    0.4180000   1.995577e-06  1.069504e-11
    360    362   2   0.50000     0.0600000    0.4180000   4.903125e-07  9.576416e-13
    361    362   2   0.50000     0.0600000    0.4180000   4.903125e-07  9.576416e-13

[ angles ]
; ai  aj  ak
      2      1      3   1    120.4000    669.4400
      2      1     19   1    123.0000    292.8800
      3      1     19   1    115.0000    292.8800
      1      3      4   1    111.1000    527.1840
      1      3      9   1    109.5000    292.8800
      1      3     10   1    109.5000    292.8800
      4      3      9   1    110.7000    313.8000
      4      3     10   1    110.7000    313.8000
      9      3     10   1    107.8000    276.1440
      3      4      5   1    112.7000    488.2728
      3      4     11   1    110.7000    313.8000
      3      4     12   1    110.7000    313.8000
      5      4     11   1    110.7000    313.8000
      5      4     12   1    110.7000    313.8000
     11      4     12   1    107.8000    276.1440
      4      5      6   1    112.7000    488.2728
      4      5     13   1    110.7000    313.8000
      4      5     14   1    110.7000    313.8000
      6      5     13   1    110.7000    313.8000
      6      5     14   1    110.7000    313.8000
     13      5     14   1    107.8000    276.1440
      5      6      7   1    112.7000    488.2728
      5      6     15   1    110.7000    313.8000
      5      6     16   1    110.7000    313.8000
      7      6     15   1    110.7000    313.8000
      7      6     16   1    110.7000    313.8000
     15      6     16   1    107.8000    276.1440
      6      7      8   1    109.5000    418.4000
      6      7     17   1    110.7000    313.8000
      6      7     18   1    110.7000    313.8000
      8      7     17   1    109.5000    292.8800
      8      7     18   1    109.5000    292.8800
     17      7     18   1    107.8000    276.1440
      7      8     20   1    116.9000    694.5440
      8     20     21   1    123.4000    694.5440
      8     20     22   1    111.4000    677.8080
     21     20     22   1    120.4000    669.4400
     20     22     23   1    111.1000    527.1840
     20     22     28   1    109.5000    292.8800
     20     22     29   1    109.5000    292.8800
     23     22     28   1    110.7000    313.8000
     23     22     29   1    110.7000    313.8000
     28     22     29   1    107.8000    276.1440
     22     23     24   1    112.7000    488.2728
     22     23     30   1    110.7000    313.8000
     22     23     31   1    110.7000    313.8000
     24     23     30   1    110.7000    313.8000
     24     23     31   1    110.7000    313.8000
     30     23     31   1    107.8000    276.1440
     23     24     25   1    112.7000    488.2728
     23     24     32   1    110.7000    313.8000
     23     24     33   1    110.7000    313.8000
     25     24     32   1    110.7000    313.8000
     25     24     33   1    110.7000    313.8000
     32     24     33   1    107.8000    276.1440
     24     25     26   1    112.7000    488.2728
     24     25     34   1    110.7000    313.8000
     24     25     35   1    110.7000    313.8000
     26     25     34   1    110.7000    313.8000
     26     25     35   1    110.7000    313.8000
     34     25     35   1    107.8000    276.1440
     25     26     27   1    109.5000    418.4000
     25     26     36   1    110.7000    313.8000
     25     26     37   1    110.7000    313.8000
     27     26     36   1    109.5000    292.8800
     27     26     37   1    109.5000    292.8800
     36     26     37   1    107.8000    276.1440
     26     27     38   1    116.9000    694.5440
     27     38     39   1    123.4000    694.5440
     27     38     40   1    111.4000    677.8080
     39     38     40   1    120.4000    669.4400
     38     40     41   1    111.1000    527.1840
     38     40     46   1    109.5000    292.8800
     38     40     47   1    109.5000    292.8800
     41     40     46   1    110.7000    313.8000
     41     40     47   1    110.7000    313.8000
     46     40     47   1    107.8000    276.1440
     40     41     42   1    112.7000    488.2728
     40     41     48   1    110.7000    313.8000
     40     41     49   1    110.7000    313.8000
     42     41     48   1    110.7000    313.8000
     42     41     49   1    110.7000    313.8000
     48     41     49   1    107.8000    276.1440
     41     42     43   1    112.7000    488.2728
     41     42     50   1    110.7000    313.8000
     41     42     51   1    110.7000    313.8000
     43     42     50   1    110.7000    313.8000
     43     42     51   1    110.7000    313.8000
     50     42     51   1    107.8000    276.1440
     42     43     44   1    112.7000    488.2728
     42     43     52   1    110.7000    313.8000
     42     43     53   1    110.7000    313.8000
     44     43     52   1    110.7000    313.8000
     44     43     53   1    110.7000    313.8000
     52     43     53   1    107.8000    276.1440
     43     44     45   1    109.5000    418.4000
     43     44     54   1    110.7000    313.8000
     43     44     55   1    110.7000    313.8000
     45     44     54   1    109.5000    292.8800
     45     44     55   1    109.5000    292.8800
     54     44     55   1    107.8000    276.1440
     44     45     56   1    116.9000    694.5440
     45     56     57   1    123.4000    694.5440
     45     56     58   1    111.4000    677.8080
     57     56     58   1    120.4000    669.4400
     56     58     59   1    111.1000    527.1840
     56     58     64   1    109.5000    292.8800
     56     58     65   1    109.5000    292.8800
     59     58     64   1    110.7000    313.8000
     59     58     65   1    110.7000    313.8000
     64     58     65   1    107.8000    276.1440
     58     59     60   1    112.7000    488.2728
     58     59     66   1    110.7000    313.8000
     58     59     67   1    110.7000    313.8000
     60     59     66   1    110.7000    313.8000
     60     59     67   1    110.7000    313.8000
     66     59     67   1    107.8000    276.1440
     59     60     61   1    112.7000    488.2728
     59     60     68   1    110.7000    313.8000
     59     60     69   1    110.7000    313.8000
     61     60     68   1    110.7000    313.8000
     61     60     69   1    110.7000    313.8000
     68     60     69   1    107.8000    276.1440
     60     61     62   1    112.7000    488.2728
     60     61     70   1    110.7000    313.8000
     60     61     71   1    110.7000    313.8000
     62     61     70   1    110.7000    313.8000
     62     61     71   1    110.7000    313.8000
     70     61     71   1    107.8000    276.1440
     61     62     63   1    109.5000    418.4000
     61     62     72   1    110.7000    313.8000
     61     62     73   1    110.7000    313.8000
     63     62     72   1    109.5000    292.8800
     63     62     73   1    109.5000    292.8800
     72     62     73   1    107.8000    276.1440
     62     63     74   1    116.9000    694.5440
     63     74     75   1    123.4000    694.5440
     63     74     76   1    111.4000    677.8080
     75     74     76   1    120.4000    669.4400
     74     76     77   1    111.1000    527.1840
     74     76     82   1    109.5000    292.8800
     74     76     83   1    109.5000    292.8800
     77     76     82   1    110.7000    313.8000
     77     76     83   1    110.7000    313.8000
     82     76     83   1    107.8000    276.1440
     76     77     78   1    112.7000    488.2728
     76     77     84   1    110.7000    313.8000
     76     77     85   1    110.7000    313.8000
     78     77     84   1    110.7000    313.8000
     78     77     85   1    110.7000    313.8000
     84     77     85   1    107.8000    276.1440
     77     78     79   1    112.7000    488.2728
     77     78     86   1    110.7000    313.8000
     77     78     87   1    110.7000    313.8000
     79     78     86   1    110.7000    313.8000
     79     78     87   1    110.7000    313.8000
     86     78     87   1    107.8000    276.1440
     78     79     80   1    112.7000    488.2728
     78     79     88   1    110.7000    313.8000
     78     79     89   1    110.7000    313.8000
     80     79     88   1    110.7000    313.8000
     80     79     89   1    110.7000    313.8000
     88     79     89   1    107.8000    276.1440
     79     80     81   1    109.5000    418.4000
     79     80     90   1    110.7000    313.8000
     79     80     91   1    110.7000    313.8000
     81     80     90   1    109.5000    292.8800
     81     80     91   1    109.5000    292.8800
     90     80     91   1    107.8000    276.1440
     80     81     92   1    116.9000    694.5440
     81     92     93   1    123.4000    694.5440
     81     92     94   1    111.4000    677.8080
     93     92     94   1    120.4000    669.4400
     92     94     95   1    111.1000    527.1840
     92     94    100   1    109.5000    292.8800
     92     94    101   1    109.5000    292.8800
     95     94    100   1    110.7000    313.8000
     95     94    101   1    110.7000    313.8000
    100     94    101   1    107.8000    276.1440
     94     95     96   1    112.7000    488.2728
     94     95    102   1    110.7000    313.8000
     94     95    103   1    110.7000    313.8000
     96     95    102   1    110.7000    313.8000
     96     95    103   1    110.7000    313.8000
    102     95    103   1    107.8000    276.1440
     95     96     97   1    112.7000    488.2728
     95     96    104   1    110.7000    313.8000
     95     96    105   1    110.7000    313.8000
     97     96    104   1    110.7000    313.8000
     97     96    105   1    110.7000    313.8000
    104     96    105   1    107.8000    276.1440
     96     97     98   1    112.7000    488.2728
     96     97    106   1    110.7000    313.8000
     96     97    107   1    110.7000    313.8000
     98     97    106   1    110.7000    313.8000
     98     97    107   1    110.7000    313.8000
    106     97    107   1    107.8000    276.1440
     97     98     99   1    109.5000    418.4000
     97     98    108   1    110.7000    313.8000
     97     98    109   1    110.7000    313.8000
     99     98    108   1    109.5000    292.8800
     99     98    109   1    109.5000    292.8800
    108     98    109   1    107.8000    276.1440
     98     99    110   1    116.9000    694.5440
     99    110    111   1    123.4000    694.5440
     99    110    112   1    111.4000    677.8080
    111    110    112   1    120.4000    669.4400
    110    112    113   1    111.1000    527.1840
    110    112    118   1    109.5000    292.8800
    110    112    119   1    109.5000    292.8800
    113    112    118   1    110.7000    313.8000
    113    112    119   1    110.7000    313.8000
    118    112    119   1    107.8000    276.1440
    112    113    114   1    112.7000    488.2728
    112    113    120   1    110.7000    313.8000
    112    113    121   1    110.7000    313.8000
    114    113    120   1    110.7000    313.8000
    114    113    121   1    110.7000    313.8000
    120    113    121   1    107.8000    276.1440
    113    114    115   1    112.7000    488.2728
    113    114    122   1    110.7000    313.8000
    113    114    123   1    110.7000    313.8000
    115    114    122   1    110.7000    313.8000
    115    114    123   1    110.7000    313.8000
    122    114    123   1    107.8000    276.1440
    114    115    116   1    112.7000    488.2728
    114    115    124   1    110.7000    313.8000
    114    115    125   1    110.7000    313.8000
    116    115    124   1    110.7000    313.8000
    116    115    125   1    110.7000    313.8000
    124    115    125   1    107.8000    276.1440
    115    116    117   1    109.5000    418.4000
    115    116    126   1    110.7000    313.8000
    115    116    127   1    110.7000    313.8000
    117    116    126   1    109.5000    292.8800
    117    116    127   1    109.5000    292.8800
    126    116    127   1    107.8000    276.1440
    116    117    128   1    116.9000    694.5440
    117    128    129   1    123.4000    694.5440
    117    128    130   1    111.4000    677.8080
    129    128    130   1    120.4000    669.4400
    128    130    131   1    111.1000    527.1840
    128    130    136   1    109.5000    292.8800
    128    130    137   1    109.5000    292.8800
    131    130    136   1    110.7000    313.8000
    131    130    137   1    110.7000    313.8000
    136    130    137   1    107.8000    276.1440
    130    131    132   1    112.7000    488.2728
    130    131    138   1    110.7000    313.8000
    130    131    139   1    110.7000    313.8000
    132    131    138   1    110.7000    313.8000
    132    131    139   1    110.7000    313.8000
    138    131    139   1    107.8000    276.1440
    131    132    133   1    112.7000    488.2728
    131    132    140   1    110.7000    313.8000
    131    132    141   1    110.7000    313.8000
    133    132    140   1    110.7000    313.8000
    133    132    141   1    110.7000    313.8000
    140    132    141   1    107.8000    276.1440
    132    133    134   1    112.7000    488.2728
    132    133    142   1    110.7000    313.8000
    132    133    143   1    110.7000    313.8000
    134    133    142   1    110.7000    313.8000
    134    133    143   1    110.7000    313.8000
    142    133    143   1    107.8000    276.1440
    133    134    135   1    109.5000    418.4000
    133    134    144   1    110.7000    313.8000
    133    134    145   1    110.7000    313.8000
    135    134    144   1    109.5000    292.8800
    135    134    145   1    109.5000    292.8800
    144    134    145   1    107.8000    276.1440
    134    135    146   1    116.9000    694.5440
    135    146    147   1    123.4000    694.5440
    135    146    148   1    111.4000    677.8080
    147    146    148   1    120.4000    669.4400
    146    148    149   1    111.1000    527.1840
    146    148    154   1    109.5000    292.8800
    146    148    155   1    109.5000    292.8800
    149    148    154   1    110.7000    313.8000
    149    148    155   1    110.7000    313.8000
    154    148    155   1    107.8000    276.1440
    148    149    150   1    112.7000    488.2728
    148    149    156   1    110.7000    313.8000
    148    149    157   1    110.7000    313.8000
    150    149    156   1    110.7000    313.8000
    150    149    157   1    110.7000    313.8000
    156    149    157   1    107.8000    276.1440
    149    150    151   1    112.7000    488.2728
    149    150    158   1    110.7000    313.8000
    149    150    159   1    110.7000    313.8000
    151    150    158   1    110.7000    313.8000
    151    150    159   1    110.7000    313.8000
    158    150    159   1    107.8000    276.1440
    150    151    152   1    112.7000    488.2728
    150    151    160   1    110.7000    313.8000
    150    151    161   1    110.7000    313.8000
    152    151    160   1    110.7000    313.8000
    152    151    161   1    110.7000    313.8000
    160    151    161   1    107.8000    276.1440
    151    152    153   1    109.5000    418.4000
    151    152    162   1    110.7000    313.8000
    151    152    163   1    110.7000    313.8000
    153    152    162   1    109.5000    292.8800
    153    152    163   1    109.5000    292.8800
    162    152    163   1    107.8000    276.1440
    152    153    164   1    116.9000    694.5440
    153    164    165   1    123.4000    694.5440
    153    164    166   1    111.4000    677.8080
    165    164    166   1    120.4000    669.4400
    164    166    167   1    111.1000    527.1840
    164    166    172   1    109.5000    292.8800
    164    166    173   1    109.5000    292.8800
    167    166    172   1    110.7000    313.8000
    167    166    173   1    110.7000    313.8000
    172    166    173   1    107.8000    276.1440
    166    167    168   1    112.7000    488.2728
    166    167    174   1    110.7000    313.8000
    166    167    175   1    110.7000    313.8000
    168    167    174   1    110.7000    313.8000
    168    167    175   1    110.7000    313.8000
    174    167    175   1    107.8000    276.1440
    167    168    169   1    112.7000    488.2728
    167    168    176   1    110.7000    313.8000
    167    168    177   1    110.7000    313.8000
    169    168    176   1    110.7000    313.8000
    169    168    177   1    110.7000    313.8000
    176    168    177   1    107.8000    276.1440
    168    169    170   1    112.7000    488.2728
    168    169    178   1    110.7000    313.8000
    168    169    179   1    110.7000    313.8000
    170    169    178   1    110.7000    313.8000
    170    169    179   1    110.7000    313.8000
    178    169    179   1    107.8000    276.1440
    169    170    171   1    109.5000    418.4000
    169    170    180   1    110.7000    313.8000
    169    170    181   1    110.7000    313.8000
    171    170    180   1    109.5000    292.8800
    171    170    181   1    109.5000    292.8800
    180    170    181   1    107.8000    276.1440
    170    171    182   1    116.9000    694.5440
    171    182    183   1    123.4000    694.5440
    171    182    184   1    111.4000    677.8080
    183    182    184   1    120.4000    669.4400
    182    184    185   1    111.1000    527.1840
    182    184    190   1    109.5000    292.8800
    182    184    191   1    109.5000    292.8800
    185    184    190   1    110.7000    313.8000
    185    184    191   1    110.7000    313.8000
    190    184    191   1    107.8000    276.1440
    184    185    186   1    112.7000    488.2728
    184    185    192   1    110.7000    313.8000
    184    185    193   1    110.7000    313.8000
    186    185    192   1    110.7000    313.8000
    186    185    193   1    110.7000    313.8000
    192    185    193   1    107.8000    276.1440
    185    186    187   1    112.7000    488.2728
    185    186    194   1    110.7000    313.8000
    185    186    195   1    110.7000    313.8000
    187    186    194   1    110.7000    313.8000
    187    186    195   1    110.7000    313.8000
    194    186    195   1    107.8000    276.1440
    186    187    188   1    112.7000    488.2728
    186    187    196   1    110.7000    313.8000
    186    187    197   1    110.7000    313.8000
    188    187    196   1    110.7000    313.8000
    188    187    197   1    110.7000    313.8000
    196    187    197   1    107.8000    276.1440
    187    188    189   1    109.5000    418.4000
    187    188    198   1    110.7000    313.8000
    187    188    199   1    110.7000    313.8000
    189    188    198   1    109.5000    292.8800
    189    188    199   1    109.5000    292.8800
    198    188    199   1    107.8000    276.1440
    188    189    200   1    116.9000    694.5440
    189    200    201   1    123.4000    694.5440
    189    200    202   1    111.4000    677.8080
    201    200    202   1    120.4000    669.4400
    200    202    203   1    111.1000    527.1840
    200    202    208   1    109.5000    292.8800
    200    202    209   1    109.5000    292.8800
    203    202    208   1    110.7000    313.8000
    203    202    209   1    110.7000    313.8000
    208    202    209   1    107.8000    276.1440
    202    203    204   1    112.7000    488.2728
    202    203    210   1    110.7000    313.8000
    202    203    211   1    110.7000    313.8000
    204    203    210   1    110.7000    313.8000
    204    203    211   1    110.7000    313.8000
    210    203    211   1    107.8000    276.1440
    203    204    205   1    112.7000    488.2728
    203    204    212   1    110.7000    313.8000
    203    204    213   1    110.7000    313.8000
    205    204    212   1    110.7000    313.8000
    205    204    213   1    110.7000    313.8000
    212    204    213   1    107.8000    276.1440
    204    205    206   1    112.7000    488.2728
    204    205    214   1    110.7000    313.8000
    204    205    215   1    110.7000    313.8000
    206    205    214   1    110.7000    313.8000
    206    205    215   1    110.7000    313.8000
    214    205    215   1    107.8000    276.1440
    205    206    207   1    109.5000    418.4000
    205    206    216   1    110.7000    313.8000
    205    206    217   1    110.7000    313.8000
    207    206    216   1    109.5000    292.8800
    207    206    217   1    109.5000    292.8800
    216    206    217   1    107.8000    276.1440
    206    207    218   1    116.9000    694.5440
    207    218    219   1    123.4000    694.5440
    207    218    220   1    111.4000    677.8080
    219    218    220   1    120.4000    669.4400
    218    220    221   1    111.1000    527.1840
    218    220    226   1    109.5000    292.8800
    218    220    227   1    109.5000    292.8800
    221    220    226   1    110.7000    313.8000
    221    220    227   1    110.7000    313.8000
    226    220    227   1    107.8000    276.1440
    220    221    222   1    112.7000    488.2728
    220    221    228   1    110.7000    313.8000
    220    221    229   1    110.7000    313.8000
    222    221    228   1    110.7000    313.8000
    222    221    229   1    110.7000    313.8000
    228    221    229   1    107.8000    276.1440
    221    222    223   1    112.7000    488.2728
    221    222    230   1    110.7000    313.8000
    221    222    231   1    110.7000    313.8000
    223    222    230   1    110.7000    313.8000
    223    222    231   1    110.7000    313.8000
    230    222    231   1    107.8000    276.1440
    222    223    224   1    112.7000    488.2728
    222    223    232   1    110.7000    313.8000
    222    223    233   1    110.7000    313.8000
    224    223    232   1    110.7000    313.8000
    224    223    233   1    110.7000    313.8000
    232    223    233   1    107.8000    276.1440
    223    224    225   1    109.5000    418.4000
    223    224    234   1    110.7000    313.8000
    223    224    235   1    110.7000    313.8000
    225    224    234   1    109.5000    292.8800
    225    224    235   1    109.5000    292.8800
    234    224    235   1    107.8000    276.1440
    224    225    236   1    116.9000    694.5440
    225    236    237   1    123.4000    694.5440
    225    236    238   1    111.4000    677.8080
    237    236    238   1    120.4000    669.4400
    236    238    239   1    111.1000    527.1840
    236    238    244   1    109.5000    292.8800
    236    238    245   1    109.5000    292.8800
    239    238    244   1    110.7000    313.8000
    239    238    245   1    110.7000    313.8000
    244    238    245   1    107.8000    276.1440
    238    239    240   1    112.7000    488.2728
    238    239    246   1    110.7000    313.8000
    238    239    247   1    110.7000    313.8000
    240    239    246   1    110.7000    313.8000
    240    239    247   1    110.7000    313.8000
    246    239    247   1    107.8000    276.1440
    239    240    241   1    112.7000    488.2728
    239    240    248   1    110.7000    313.8000
    239    240    249   1    110.7000    313.8000
    241    240    248   1    110.7000    313.8000
    241    240    249   1    110.7000    313.8000
    248    240    249   1    107.8000    276.1440
    240    241    242   1    112.7000    488.2728
    240    241    250   1    110.7000    313.8000
    240    241    251   1    110.7000    313.8000
    242    241    250   1    110.7000    313.8000
    242    241    251   1    110.7000    313.8000
    250    241    251   1    107.8000    276.1440
    241    242    243   1    109.5000    418.4000
    241    242    252   1    110.7000    313.8000
    241    242    253   1    110.7000    313.8000
    243    242    252   1    109.5000    292.8800
    243    242    253   1    109.5000    292.8800
    252    242    253   1    107.8000    276.1440
    242    243    254   1    116.9000    694.5440
    243    254    255   1    123.4000    694.5440
    243    254    256   1    111.4000    677.8080
    255    254    256   1    120.4000    669.4400
    254    256    257   1    111.1000    527.1840
    254    256    262   1    109.5000    292.8800
    254    256    263   1    109.5000    292.8800
    257    256    262   1    110.7000    313.8000
    257    256    263   1    110.7000    313.8000
    262    256    263   1    107.8000    276.1440
    256    257    258   1    112.7000    488.2728
    256    257    264   1    110.7000    313.8000
    256    257    265   1    110.7000    313.8000
    258    257    264   1    110.7000    313.8000
    258    257    265   1    110.7000    313.8000
    264    257    265   1    107.8000    276.1440
    257    258    259   1    112.7000    488.2728
    257    258    266   1    110.7000    313.8000
    257    258    267   1    110.7000    313.8000
    259    258    266   1    110.7000    313.8000
    259    258    267   1    110.7000    313.8000
    266    258    267   1    107.8000    276.1440
    258    259    260   1    112.7000    488.2728
    258    259    268   1    110.7000    313.8000
    258    259    269   1    110.7000    313.8000
    260    259    268   1    110.7000    313.8000
    260    259    269   1    110.7000    313.8000
    268    259    269   1    107.8000    276.1440
    259    260    261   1    109.5000    418.4000
    259    260    270   1    110.7000    313.8000
    259    260    271   1    110.7000    313.8000
    261    260    270   1    109.5000    292.8800
    261    260    271   1    109.5000    292.8800
    270    260    271   1    107.8000    276.1440
    260    261    272   1    116.9000    694.5440
    261    272    273   1    123.4000    694.5440
    261    272    274   1    111.4000    677.8080
    273    272    274   1    120.4000    669.4400
    272    274    275   1    111.1000    527.1840
    272    274    280   1    109.5000    292.8800
    272    274    281   1    109.5000    292.8800
    275    274    280   1    110.7000    313.8000
    275    274    281   1    110.7000    313.8000
    280    274    281   1    107.8000    276.1440
    274    275    276   1    112.7000    488.2728
    274    275    282   1    110.7000    313.8000
    274    275    283   1    110.7000    313.8000
    276    275    282   1    110.7000    313.8000
    276    275    283   1    110.7000    313.8000
    282    275    283   1    107.8000    276.1440
    275    276    277   1    112.7000    488.2728
    275    276    284   1    110.7000    313.8000
    275    276    285   1    110.7000    313.8000
    277    276    284   1    110.7000    313.8000
    277    276    285   1    110.7000    313.8000
    284    276    285   1    107.8000    276.1440
    276    277    278   1    112.7000    488.2728
    276    277    286   1    110.7000    313.8000
    276    277    287   1    110.7000    313.8000
    278    277    286   1    110.7000    313.8000
    278    277    287   1    110.7000    313.8000
    286    277    287   1    107.8000    276.1440
    277    278    279   1    109.5000    418.4000
    277    278    288   1    110.7000    313.8000
    277    278    289   1    110.7000    313.8000
    279    278    288   1    109.5000    292.8800
    279    278    289   1    109.5000    292.8800
    288    278    289   1    107.8000    276.1440
    278    279    290   1    116.9000    694.5440
    279    290    291   1    123.4000    694.5440
    279    290    292   1    111.4000    677.8080
    291    290    292   1    120.4000    669.4400
    290    292    293   1    111.1000    527.1840
    290    292    298   1    109.5000    292.8800
    290    292    299   1    109.5000    292.8800
    293    292    298   1    110.7000    313.8000
    293    292    299   1    110.7000    313.8000
    298    292    299   1    107.8000    276.1440
    292    293    294   1    112.7000    488.2728
    292    293    300   1    110.7000    313.8000
    292    293    301   1    110.7000    313.8000
    294    293    300   1    110.7000    313.8000
    294    293    301   1    110.7000    313.8000
    300    293    301   1    107.8000    276.1440
    293    294    295   1    112.7000    488.2728
    293    294    302   1    110.7000    313.8000
    293    294    303   1    110.7000    313.8000
    295    294    302   1    110.7000    313.8000
    295    294    303   1    110.7000    313.8000
    302    294    303   1    107.8000    276.1440
    294    295    296   1    112.7000    488.2728
    294    295    304   1    110.7000    313.8000
    294    295    305   1    110.7000    313.8000
    296    295    304   1    110.7000    313.8000
    296    295    305   1    110.7000    313.8000
    304    295    305   1    107.8000    276.1440
    295    296    297   1    109.5000    418.4000
    295    296    306   1    110.7000    313.8000
    295    296    307   1    110.7000    313.8000
    297    296    306   1    109.5000    292.8800
    297    296    307   1    109.5000    292.8800
    306    296    307   1    107.8000    276.1440
    296    297    308   1    116.9000    694.5440
    297    308    309   1    123.4000    694.5440
    297    308    310   1    111.4000    677.8080
    309    308    310   1    120.4000    669.4400
    308    310    311   1    111.1000    527.1840
    308    310    316   1    109.5000    292.8800
    308    310    317   1    109.5000    292.8800
    311    310    316   1    110.7000    313.8000
    311    310    317   1    110.7000    313.8000
    316    310    317   1    107.8000    276.1440
    310    311    312   1    112.7000    488.2728
    310    311    318   1    110.7000    313.8000
    310    311    319   1    110.7000    313.8000
    312    311    318   1    110.7000    313.8000
    312    311    319   1    110.7000    313.8000
    318    311    319   1    107.8000    276.1440
    311    312    313   1    112.7000    488.2728
    311    312    320   1    110.7000    313.8000
    311    312    321   1    110.7000    313.8000
    313    312    320   1    110.7000    313.8000
    313    312    321   1    110.7000    313.8000
    320    312    321   1    107.8000    276.1440
    312    313    314   1    112.7000    488.2728
    312    313    322   1    110.7000    313.8000
    312    313    323   1    110.7000    313.8000
    314    313    322   1    110.7000    313.8000
    314    313    323   1    110.7000    313.8000
    322    313    323   1    107.8000    276.1440
    313    314    315   1    109.5000    418.4000
    313    314    324   1    110.7000    313.8000
    313    314    325   1    110.7000    313.8000
    315    314    324   1    109.5000    292.8800
    315    314    325   1    109.5000    292.8800
    324    314    325   1    107.8000    276.1440
    314    315    326   1    116.9000    694.5440
    315    326    327   1    123.4000    694.5440
    315    326    328   1    111.4000    677.8080
    327    326    328   1    120.4000    669.4400
    326    328    329   1    111.1000    527.1840
    326    328    334   1    109.5000    292.8800
    326    328    335   1    109.5000    292.8800
    329    328    334   1    110.7000    313.8000
    329    328    335   1    110.7000    313.8000
    334    328    335   1    107.8000    276.1440
    328    329    330   1    112.7000    488.2728
    328    329    336   1    110.7000    313.8000
    328    329    337   1    110.7000    313.8000
    330    329    336   1    110.7000    313.8000
    330    329    337   1    110.7000    313.8000
    336    329    337   1    107.8000    276.1440
    329    330    331   1    112.7000    488.2728
    329    330    338   1    110.7000    313.8000
    329    330    339   1    110.7000    313.8000
    331    330    338   1    110.7000    313.8000
    331    330    339   1    110.7000    313.8000
    338    330    339   1    107.8000    276.1440
    330    331    332   1    112.7000    488.2728
    330    331    340   1    110.7000    313.8000
    330    331    341   1    110.7000    313.8000
    332    331    340   1    110.7000    313.8000
    332    331    341   1    110.7000    313.8000
    340    331    341   1    107.8000    276.1440
    331    332    333   1    109.5000    418.4000
    331    332    342   1    110.7000    313.8000
    331    332    343   1    110.7000    313.8000
    333    332    342   1    109.5000    292.8800
    333    332    343   1    109.5000    292.8800
    342    332    343   1    107.8000    276.1440
    332    333    344   1    116.9000    694.5440
    333    344    345   1    123.4000    694.5440
    333    344    346   1    111.4000    677.8080
    345    344    346   1    120.4000    669.4400
    344    346    347   1    111.1000    527.1840
    344    346    352   1    109.5000    292.8800
    344    346    353   1    109.5000    292.8800
    347    346    352   1    110.7000    313.8000
    347    346    353   1    110.7000    313.8000
    352    346    353   1    107.8000    276.1440
    346    347    348   1    112.7000    488.2728
    346    347    354   1    110.7000    313.8000
    346    347    355   1    110.7000    313.8000
    348    347    354   1    110.7000    313.8000
    348    347    355   1    110.7000    313.8000
    354    347    355   1    107.8000    276.1440
    347    348    349   1    112.7000    488.2728
    347    348    356   1    110.7000    313.8000
    347    348    357   1    110.7000    313.8000
    349    348    356   1    110.7000    313.8000
    349    348    357   1    110.7000    313.8000
    356    348    357   1    107.8000    276.1440
    348    349    350   1    112.7000    488.2728
    348    349    358   1    110.7000    313.8000
    348    349    359   1    110.7000    313.8000
    350    349    358   1    110.7000    313.8000
    350    349    359   1    110.7000    313.8000
    358    349    359   1    107.8000    276.1440
    349    350    351   1    109.5000    418.4000
    349    350    360   1    110.7000    313.8000
    349    350    361   1    110.7000    313.8000
    351    350    360   1    109.5000    292.8800
    351    350    361   1    109.5000    292.8800
    360    350    361   1    107.8000    276.1440
    350    351    362   1    108.5000    460.2400

[ dihedrals ]
; Proper dihedrals
      2      1      3      4   5     0.00000     2.52295     0.00000  0.0
      2      1      3      9   5     0.00000     0.00000     0.00000  0.0
      2      1      3     10   5     0.00000     0.00000     0.00000  0.0
     19      1      3      4   5     6.23834    -0.04184     0.00000  0.0
     19      1      3      9   5     0.00000     0.00000     0.00000  0.0
     19      1      3     10   5     0.00000     0.00000     0.00000  0.0
      1      3      4      5   5    -8.00818    -1.52298     2.46438  0.0
      1      3      4     11   5     0.00000     0.00000    -0.94140  0.0
      1      3      4     12   5     0.00000     0.00000    -0.94140  0.0
      9      3      4      5   5     0.00000     0.00000     1.25520  0.0
      9      3      4     11   5     0.00000     0.00000     1.25520  0.0
      9      3      4     12   5     0.00000     0.00000     1.25520  0.0
     10      3      4      5   5     0.00000     0.00000     1.25520  0.0
     10      3      4     11   5     0.00000     0.00000     1.25520  0.0
     10      3      4     12   5     0.00000     0.00000     1.25520  0.0
      3      4      5      6   5     4.74884    -0.63178     1.67360  0.0
      3      4      5     13   5     0.00000     0.00000     1.25520  0.0
      3      4      5     14   5     0.00000     0.00000     1.25520  0.0
     11      4      5      6   5     0.00000     0.00000     1.25520  0.0
     11      4      5     13   5     0.00000     0.00000     1.25520  0.0
     11      4      5     14   5     0.00000     0.00000     1.25520  0.0
     12      4      5      6   5     0.00000     0.00000     1.25520  0.0
     12      4      5     13   5     0.00000     0.00000     1.25520  0.0
     12      4      5     14   5     0.00000     0.00000     1.25520  0.0
      4      5      6      7   5     4.74884    -0.63178     1.67360  0.0
      4      5      6     15   5     0.00000     0.00000     1.25520  0.0
      4      5      6     16   5     0.00000     0.00000     1.25520  0.0
     13      5      6      7   5     0.00000     0.00000     1.25520  0.0
     13      5      6     15   5     0.00000     0.00000     1.25520  0.0
     13      5      6     16   5     0.00000     0.00000     1.25520  0.0
     14      5      6      7   5     0.00000     0.00000     1.25520  0.0
     14      5      6     15   5     0.00000     0.00000     1.25520  0.0
     14      5      6     16   5     0.00000     0.00000     1.25520  0.0
      5      6      7      8   5     5.25092    -2.58990     2.28446  0.0
      5      6      7     17   5     0.00000     0.00000     1.25520  0.0
      5      6      7     18   5     0.00000     0.00000     1.25520  0.0
     15      6      7      8   5     0.00000     0.00000     1.95811  0.0
     15      6      7     17   5     0.00000     0.00000     1.25520  0.0
     15      6      7     18   5     0.00000     0.00000     1.25520  0.0
     16      6      7      8   5     0.00000     0.00000     1.95811  0.0
     16      6      7     17   5     0.00000     0.00000     1.25520  0.0
     16      6      7     18   5     0.00000     0.00000     1.25520  0.0
      6      7      8     20   5    -2.16731    -3.93296     0.98324  0.0
     17      7      8     20   5     0.00000     0.00000     0.67362  0.0
     18      7      8     20   5     0.00000     0.00000     0.67362  0.0
      7      8     20     21   5     0.00000    25.10400     0.00000  0.0
      7      8     20     22   5    13.65239    24.43456     0.00000  0.0
      8     20     22     23   5     0.00000     0.00000     3.07524  0.0
      8     20     22     28   5     0.00000     0.00000     0.00000  0.0
      8     20     22     29   5     0.00000     0.00000     0.00000  0.0
     21     20     22     23   5     0.00000     2.52295     0.00000  0.0
     21     20     22     28   5     0.00000     0.00000     0.00000  0.0
     21     20     22     29   5     0.00000     0.00000     0.00000  0.0
     20     22     23     24   5    -8.00818    -1.52298     2.46438  0.0
     20     22     23     30   5     0.00000     0.00000    -0.94140  0.0
     20     22     23     31   5     0.00000     0.00000    -0.94140  0.0
     28     22     23     24   5     0.00000     0.00000     1.25520  0.0
     28     22     23     30   5     0.00000     0.00000     1.25520  0.0
     28     22     23     31   5     0.00000     0.00000     1.25520  0.0
     29     22     23     24   5     0.00000     0.00000     1.25520  0.0
     29     22     23     30   5     0.00000     0.00000     1.25520  0.0
     29     22     23     31   5     0.00000     0.00000     1.25520  0.0
     22     23     24     25   5     4.74884    -0.63178     1.67360  0.0
     22     23     24     32   5     0.00000     0.00000     1.25520  0.0
     22     23     24     33   5     0.00000     0.00000     1.25520  0.0
     30     23     24     25   5     0.00000     0.00000     1.25520  0.0
     30     23     24     32   5     0.00000     0.00000     1.25520  0.0
     30     23     24     33   5     0.00000     0.00000     1.25520  0.0
     31     23     24     25   5     0.00000     0.00000     1.25520  0.0
     31     23     24     32   5     0.00000     0.00000     1.25520  0.0
     31     23     24     33   5     0.00000     0.00000     1.25520  0.0
     23     24     25     26   5     4.74884    -0.63178     1.67360  0.0
     23     24     25     34   5     0.00000     0.00000     1.25520  0.0
     23     24     25     35   5     0.00000     0.00000     1.25520  0.0
     32     24     25     26   5     0.00000     0.00000     1.25520  0.0
     32     24     25     34   5     0.00000     0.00000     1.25520  0.0
     32     24     25     35   5     0.00000     0.00000     1.25520  0.0
     33     24     25     26   5     0.00000     0.00000     1.25520  0.0
     33     24     25     34   5     0.00000     0.00000     1.25520  0.0
     33     24     25     35   5     0.00000     0.00000     1.25520  0.0
     24     25     26     27   5     5.25092    -2.58990     2.28446  0.0
     24     25     26     36   5     0.00000     0.00000     1.25520  0.0
     24     25     26     37   5     0.00000     0.00000     1.25520  0.0
     34     25     26     27   5     0.00000     0.00000     1.95811  0.0
     34     25     26     36   5     0.00000     0.00000     1.25520  0.0
     34     25     26     37   5     0.00000     0.00000     1.25520  0.0
     35     25     26     27   5     0.00000     0.00000     1.95811  0.0
     35     25     26     36   5     0.00000     0.00000     1.25520  0.0
     35     25     26     37   5     0.00000     0.00000     1.25520  0.0
     25     26     27     38   5    -2.16731    -3.93296     0.98324  0.0
     36     26     27     38   5     0.00000     0.00000     0.67362  0.0
     37     26     27     38   5     0.00000     0.00000     0.67362  0.0
     26     27     38     39   5     0.00000    25.10400     0.00000  0.0
     26     27     38     40   5    13.65239    24.43456     0.00000  0.0
     27     38     40     41   5     0.00000     0.00000     3.07524  0.0
     27     38     40     46   5     0.00000     0.00000     0.00000  0.0
     27     38     40     47   5     0.00000     0.00000     0.00000  0.0
     39     38     40     41   5     0.00000     2.52295     0.00000  0.0
     39     38     40     46   5     0.00000     0.00000     0.00000  0.0
     39     38     40     47   5     0.00000     0.00000     0.00000  0.0
     38     40     41     42   5    -8.00818    -1.52298     2.46438  0.0
     38     40     41     48   5     0.00000     0.00000    -0.94140  0.0
     38     40     41     49   5     0.00000     0.00000    -0.94140  0.0
     46     40     41     42   5     0.00000     0.00000     1.25520  0.0
     46     40     41     48   5     0.00000     0.00000     1.25520  0.0
     46     40     41     49   5     0.00000     0.00000     1.25520  0.0
     47     40     41     42   5     0.00000     0.00000     1.25520  0.0
     47     40     41     48   5     0.00000     0.00000     1.25520  0.0
     47     40     41     49   5     0.00000     0.00000     1.25520  0.0
     40     41     42     43   5     4.74884    -0.63178     1.67360  0.0
     40     41     42     50   5     0.00000     0.00000     1.25520  0.0
     40     41     42     51   5     0.00000     0.00000     1.25520  0.0
     48     41     42     43   5     0.00000     0.00000     1.25520  0.0
     48     41     42     50   5     0.00000     0.00000     1.25520  0.0
     48     41     42     51   5     0.00000     0.00000     1.25520  0.0
     49     41     42     43   5     0.00000     0.00000     1.25520  0.0
     49     41     42     50   5     0.00000     0.00000     1.25520  0.0
     49     41     42     51   5     0.00000     0.00000     1.25520  0.0
     41     42     43     44   5     4.74884    -0.63178     1.67360  0.0
     41     42     43     52   5     0.00000     0.00000     1.25520  0.0
     41     42     43     53   5     0.00000     0.00000     1.25520  0.0
     50     42     43     44   5     0.00000     0.00000     1.25520  0.0
     50     42     43     52   5     0.00000     0.00000     1.25520  0.0
     50     42     43     53   5     0.00000     0.00000     1.25520  0.0
     51     42     43     44   5     0.00000     0.00000     1.25520  0.0
     51     42     43     52   5     0.00000     0.00000     1.25520  0.0
     51     42     43     53   5     0.00000     0.00000     1.25520  0.0
     42     43     44     45   5     5.25092    -2.58990     2.28446  0.0
     42     43     44     54   5     0.00000     0.00000     1.25520  0.0
     42     43     44     55   5     0.00000     0.00000     1.25520  0.0
     52     43     44     45   5     0.00000     0.00000     1.95811  0.0
     52     43     44     54   5     0.00000     0.00000     1.25520  0.0
     52     43     44     55   5     0.00000     0.00000     1.25520  0.0
     53     43     44     45   5     0.00000     0.00000     1.95811  0.0
     53     43     44     54   5     0.00000     0.00000     1.25520  0.0
     53     43     44     55   5     0.00000     0.00000     1.25520  0.0
     43     44     45     56   5    -2.16731    -3.93296     0.98324  0.0
     54     44     45     56   5     0.00000     0.00000     0.67362  0.0
     55     44     45     56   5     0.00000     0.00000     0.67362  0.0
     44     45     56     57   5     0.00000    25.10400     0.00000  0.0
     44     45     56     58   5    13.65239    24.43456     0.00000  0.0
     45     56     58     59   5     0.00000     0.00000     3.07524  0.0
     45     56     58     64   5     0.00000     0.00000     0.00000  0.0
     45     56     58     65   5     0.00000     0.00000     0.00000  0.0
     57     56     58     59   5     0.00000     2.52295     0.00000  0.0
     57     56     58     64   5     0.00000     0.00000     0.00000  0.0
     57     56     58     65   5     0.00000     0.00000     0.00000  0.0
     56     58     59     60   5    -8.00818    -1.52298     2.46438  0.0
     56     58     59     66   5     0.00000     0.00000    -0.94140  0.0
     56     58     59     67   5     0.00000     0.00000    -0.94140  0.0
     64     58     59     60   5     0.00000     0.00000     1.25520  0.0
     64     58     59     66   5     0.00000     0.00000     1.25520  0.0
     64     58     59     67   5     0.00000     0.00000     1.25520  0.0
     65     58     59     60   5     0.00000     0.00000     1.25520  0.0
     65     58     59     66   5     0.00000     0.00000     1.25520  0.0
     65     58     59     67   5     0.00000     0.00000     1.25520  0.0
     58     59     60     61   5     4.74884    -0.63178     1.67360  0.0
     58     59     60     68   5     0.00000     0.00000     1.25520  0.0
     58     59     60     69   5     0.00000     0.00000     1.25520  0.0
     66     59     60     61   5     0.00000     0.00000     1.25520  0.0
     66     59     60     68   5     0.00000     0.00000     1.25520  0.0
     66     59     60     69   5     0.00000     0.00000     1.25520  0.0
     67     59     60     61   5     0.00000     0.00000     1.25520  0.0
     67     59     60     68   5     0.00000     0.00000     1.25520  0.0
     67     59     60     69   5     0.00000     0.00000     1.25520  0.0
     59     60     61     62   5     4.74884    -0.63178     1.67360  0.0
     59     60     61     70   5     0.00000     0.00000     1.25520  0.0
     59     60     61     71   5     0.00000     0.00000     1.25520  0.0
     68     60     61     62   5     0.00000     0.00000     1.25520  0.0
     68     60     61     70   5     0.00000     0.00000     1.25520  0.0
     68     60     61     71   5     0.00000     0.00000     1.25520  0.0
     69     60     61     62   5     0.00000     0.00000     1.25520  0.0
     69     60     61     70   5     0.00000     0.00000     1.25520  0.0
     69     60     61     71   5     0.00000     0.00000     1.25520  0.0
     60     61     62     63   5     5.25092    -2.58990     2.28446  0.0
     60     61     62     72   5     0.00000     0.00000     1.25520  0.0
     60     61     62     73   5     0.00000     0.00000     1.25520  0.0
     70     61     62     63   5     0.00000     0.00000     1.95811  0.0
     70     61     62     72   5     0.00000     0.00000     1.25520  0.0
     70     61     62     73   5     0.00000     0.00000     1.25520  0.0
     71     61     62     63   5     0.00000     0.00000     1.95811  0.0
     71     61     62     72   5     0.00000     0.00000     1.25520  0.0
     71     61     62     73   5     0.00000     0.00000     1.25520  0.0
     61     62     63     74   5    -2.16731    -3.93296     0.98324  0.0
     72     62     63     74   5     0.00000     0.00000     0.67362  0.0
     73     62     63     74   5     0.00000     0.00000     0.67362  0.0
     62     63     74     75   5     0.00000    25.10400     0.00000  0.0
     62     63     74     76   5    13.65239    24.43456     0.00000  0.0
     63     74     76     77   5     0.00000     0.00000     3.07524  0.0
     63     74     76     82   5     0.00000     0.00000     0.00000  0.0
     63     74     76     83   5     0.00000     0.00000     0.00000  0.0
     75     74     76     77   5     0.00000     2.52295     0.00000  0.0
     75     74     76     82   5     0.00000     0.00000     0.00000  0.0
     75     74     76     83   5     0.00000     0.00000     0.00000  0.0
     74     76     77     78   5    -8.00818    -1.52298     2.46438  0.0
     74     76     77     84   5     0.00000     0.00000    -0.94140  0.0
     74     76     77     85   5     0.00000     0.00000    -0.94140  0.0
     82     76     77     78   5     0.00000     0.00000     1.25520  0.0
     82     76     77     84   5     0.00000     0.00000     1.25520  0.0
     82     76     77     85   5     0.00000     0.00000     1.25520  0.0
     83     76     77     78   5     0.00000     0.00000     1.25520  0.0
     83     76     77     84   5     0.00000     0.00000     1.25520  0.0
     83     76     77     85   5     0.00000     0.00000     1.25520  0.0
     76     77     78     79   5     4.74884    -0.63178     1.67360  0.0
     76     77     78     86   5     0.00000     0.00000     1.25520  0.0
     76     77     78     87   5     0.00000     0.00000     1.25520  0.0
     84     77     78     79   5     0.00000     0.00000     1.25520  0.0
     84     77     78     86   5     0.00000     0.00000     1.25520  0.0
     84     77     78     87   5     0.00000     0.00000     1.25520  0.0
     85     77     78     79   5     0.00000     0.00000     1.25520  0.0
     85     77     78     86   5     0.00000     0.00000     1.25520  0.0
     85     77     78     87   5     0.00000     0.00000     1.25520  0.0
     77     78     79     80   5     4.74884    -0.63178     1.67360  0.0
     77     78     79     88   5     0.00000     0.00000     1.25520  0.0
     77     78     79     89   5     0.00000     0.00000     1.25520  0.0
     86     78     79     80   5     0.00000     0.00000     1.25520  0.0
     86     78     79     88   5     0.00000     0.00000     1.25520  0.0
     86     78     79     89   5     0.00000     0.00000     1.25520  0.0
     87     78     79     80   5     0.00000     0.00000     1.25520  0.0
     87     78     79     88   5     0.00000     0.00000     1.25520  0.0
     87     78     79     89   5     0.00000     0.00000     1.25520  0.0
     78     79     80     81   5     5.25092    -2.58990     2.28446  0.0
     78     79     80     90   5     0.00000     0.00000     1.25520  0.0
     78     79     80     91   5     0.00000     0.00000     1.25520  0.0
     88     79     80     81   5     0.00000     0.00000     1.95811  0.0
     88     79     80     90   5     0.00000     0.00000     1.25520  0.0
     88     79     80     91   5     0.00000     0.00000     1.25520  0.0
     89     79     80     81   5     0.00000     0.00000     1.95811  0.0
     89     79     80     90   5     0.00000     0.00000     1.25520  0.0
     89     79     80     91   5     0.00000     0.00000     1.25520  0.0
     79     80     81     92   5    -2.16731    -3.93296     0.98324  0.0
     90     80     81     92   5     0.00000     0.00000     0.67362  0.0
     91     80     81     92   5     0.00000     0.00000     0.67362  0.0
     80     81     92     93   5     0.00000    25.10400     0.00000  0.0
     80     81     92     94   5    13.65239    24.43456     0.00000  0.0
     81     92     94     95   5     0.00000     0.00000     3.07524  0.0
     81     92     94    100   5     0.00000     0.00000     0.00000  0.0
     81     92     94    101   5     0.00000     0.00000     0.00000  0.0
     93     92     94     95   5     0.00000     2.52295     0.00000  0.0
     93     92     94    100   5     0.00000     0.00000     0.00000  0.0
     93     92     94    101   5     0.00000     0.00000     0.00000  0.0
     92     94     95     96   5    -8.00818    -1.52298     2.46438  0.0
     92     94     95    102   5     0.00000     0.00000    -0.94140  0.0
     92     94     95    103   5     0.00000     0.00000    -0.94140  0.0
    100     94     95     96   5     0.00000     0.00000     1.25520  0.0
    100     94     95    102   5     0.00000     0.00000     1.25520  0.0
    100     94     95    103   5     0.00000     0.00000     1.25520  0.0
    101     94     95     96   5     0.00000     0.00000     1.25520  0.0
    101     94     95    102   5     0.00000     0.00000     1.25520  0.0
    101     94     95    103   5     0.00000     0.00000     1.25520  0.0
     94     95     96     97   5     4.74884    -0.63178     1.67360  0.0
     94     95     96    104   5     0.00000     0.00000     1.25520  0.0
     94     95     96    105   5     0.00000     0.00000     1.25520  0.0
    102     95     96     97   5     0.00000     0.00000     1.25520  0.0
    102     95     96    104   5     0.00000     0.00000     1.25520  0.0
    102     95     96    105   5     0.00000     0.00000     1.25520  0.0
    103     95     96     97   5     0.00000     0.00000     1.25520  0.0
    103     95     96    104   5     0.00000     0.00000     1.25520  0.0
    103     95     96    105   5     0.00000     0.00000     1.25520  0.0
     95     96     97     98   5     4.74884    -0.63178     1.67360  0.0
     95     96     97    106   5     0.00000     0.00000     1.25520  0.0
     95     96     97    107   5     0.00000     0.00000     1.25520  0.0
    104     96     97     98   5     0.00000     0.00000     1.25520  0.0
    104     96     97    106   5     0.00000     0.00000     1.25520  0.0
    104     96     97    107   5     0.00000     0.00000     1.25520  0.0
    105     96     97     98   5     0.00000     0.00000     1.25520  0.0
    105     96     97    106   5     0.00000     0.00000     1.25520  0.0
    105     96     97    107   5     0.00000     0.00000     1.25520  0.0
     96     97     98     99   5     5.25092    -2.58990     2.28446  0.0
     96     97     98    108   5     0.00000     0.00000     1.25520  0.0
     96     97     98    109   5     0.00000     0.00000     1.25520  0.0
    106     97     98     99   5     0.00000     0.00000     1.95811  0.0
    106     97     98    108   5     0.00000     0.00000     1.25520  0.0
    106     97     98    109   5     0.00000     0.00000     1.25520  0.0
    107     97     98     99   5     0.00000     0.00000     1.95811  0.0
    107     97     98    108   5     0.00000     0.00000     1.25520  0.0
    107     97     98    109   5     0.00000     0.00000     1.25520  0.0
     97     98     99    110   5    -2.16731    -3.93296     0.98324  0.0
    108     98     99    110   5     0.00000     0.00000     0.67362  0.0
    109     98     99    110   5     0.00000     0.00000     0.67362  0.0
     98     99    110    111   5     0.00000    25.10400     0.00000  0.0
     98     99    110    112   5    13.65239    24.43456     0.00000  0.0
     99    110    112    113   5     0.00000     0.00000     3.07524  0.0
     99    110    112    118   5     0.00000     0.00000     0.00000  0.0
     99    110    112    119   5     0.00000     0.00000     0.00000  0.0
    111    110    112    113   5     0.00000     2.52295     0.00000  0.0
    111    110    112    118   5     0.00000     0.00000     0.00000  0.0
    111    110    112    119   5     0.00000     0.00000     0.00000  0.0
    110    112    113    114   5    -8.00818    -1.52298     2.46438  0.0
    110    112    113    120   5     0.00000     0.00000    -0.94140  0.0
    110    112    113    121   5     0.00000     0.00000    -0.94140  0.0
    118    112    113    114   5     0.00000     0.00000     1.25520  0.0
    118    112    113    120   5     0.00000     0.00000     1.25520  0.0
    118    112    113    121   5     0.00000     0.00000     1.25520  0.0
    119    112    113    114   5     0.00000     0.00000     1.25520  0.0
    119    112    113    120   5     0.00000     0.00000     1.25520  0.0
    119    112    113    121   5     0.00000     0.00000     1.25520  0.0
    112    113    114    115   5     4.74884    -0.63178     1.67360  0.0
    112    113    114    122   5     0.00000     0.00000     1.25520  0.0
    112    113    114    123   5     0.00000     0.00000     1.25520  0.0
    120    113    114    115   5     0.00000     0.00000     1.25520  0.0
    120    113    114    122   5     0.00000     0.00000     1.25520  0.0
    120    113    114    123   5     0.00000     0.00000     1.25520  0.0
    121    113    114    115   5     0.00000     0.00000     1.25520  0.0
    121    113    114    122   5     0.00000     0.00000     1.25520  0.0
    121    113    114    123   5     0.00000     0.00000     1.25520  0.0
    113    114    115    116   5     4.74884    -0.63178     1.67360  0.0
    113    114    115    124   5     0.00000     0.00000     1.25520  0.0
    113    114    115    125   5     0.00000     0.00000     1.25520  0.0
    122    114    115    116   5     0.00000     0.00000     1.25520  0.0
    122    114    115    124   5     0.00000     0.00000     1.25520  0.0
    122    114    115    125   5     0.00000     0.00000     1.25520  0.0
    123    114    115    116   5     0.00000     0.00000     1.25520  0.0
    123    114    115    124   5     0.00000     0.00000     1.25520  0.0
    123    114    115    125   5     0.00000     0.00000     1.25520  0.0
    114    115    116    117   5     5.25092    -2.58990     2.28446  0.0
    114    115    116    126   5     0.00000     0.00000     1.25520  0.0
    114    115    116    127   5     0.00000     0.00000     1.25520  0.0
    124    115    116    117   5     0.00000     0.00000     1.95811  0.0
    124    115    116    126   5     0.00000     0.00000     1.25520  0.0
    124    115    116    127   5     0.00000     0.00000     1.25520  0.0
    125    115    116    117   5     0.00000     0.00000     1.95811  0.0
    125    115    116    126   5     0.00000     0.00000     1.25520  0.0
    125    115    116    127   5     0.00000     0.00000     1.25520  0.0
    115    116    117    128   5    -2.16731    -3.93296     0.98324  0.0
    126    116    117    128   5     0.00000     0.00000     0.67362  0.0
    127    116    117    128   5     0.00000     0.00000     0.67362  0.0
    116    117    128    129   5     0.00000    25.10400     0.00000  0.0
    116    117    128    130   5    13.65239    24.43456     0.00000  0.0
    117    128    130    131   5     0.00000     0.00000     3.07524  0.0
    117    128    130    136   5     0.00000     0.00000     0.00000  0.0
    117    128    130    137   5     0.00000     0.00000     0.00000  0.0
    129    128    130    131   5     0.00000     2.52295     0.00000  0.0
    129    128    130    136   5     0.00000     0.00000     0.00000  0.0
    129    128    130    137   5     0.00000     0.00000     0.00000  0.0
    128    130    131    132   5    -8.00818    -1.52298     2.46438  0.0
    128    130    131    138   5     0.00000     0.00000    -0.94140  0.0
    128    130    131    139   5     0.00000     0.00000    -0.94140  0.0
    136    130    131    132   5     0.00000     0.00000     1.25520  0.0
    136    130    131    138   5     0.00000     0.00000     1.25520  0.0
    136    130    131    139   5     0.00000     0.00000     1.25520  0.0
    137    130    131    132   5     0.00000     0.00000     1.25520  0.0
    137    130    131    138   5     0.00000     0.00000     1.25520  0.0
    137    130    131    139   5     0.00000     0.00000     1.25520  0.0
    130    131    132    133   5     4.74884    -0.63178     1.67360  0.0
    130    131    132    140   5     0.00000     0.00000     1.25520  0.0
    130    131    132    141   5     0.00000     0.00000     1.25520  0.0
    138    131    132    133   5     0.00000     0.00000     1.25520  0.0
    138    131    132    140   5     0.00000     0.00000     1.25520  0.0
    138    131    132    141   5     0.00000     0.00000     1.25520  0.0
    139    131    132    133   5     0.00000     0.00000     1.25520  0.0
    139    131    132    140   5     0.00000     0.00000     1.25520  0.0
    139    131    132    141   5     0.00000     0.00000     1.25520  0.0
    131    132    133    134   5     4.74884    -0.63178     1.67360  0.0
    131    132    133    142   5     0.00000     0.00000     1.25520  0.0
    131    132    133    143   5     0.00000     0.00000     1.25520  0.0
    140    132    133    134   5     0.00000     0.00000     1.25520  0.0
    140    132    133    142   5     0.00000     0.00000     1.25520  0.0
    140    132    133    143   5     0.00000     0.00000     1.25520  0.0
    141    132    133    134   5     0.00000     0.00000     1.25520  0.0
    141    132    133    142   5     0.00000     0.00000     1.25520  0.0
    141    132    133    143   5     0.00000     0.00000     1.25520  0.0
    132    133    134    135   5     5.25092    -2.58990     2.28446  0.0
    132    133    134    144   5     0.00000     0.00000     1.25520  0.0
    132    133    134    145   5     0.00000     0.00000     1.25520  0.0
    142    133    134    135   5     0.00000     0.00000     1.95811  0.0
    142    133    134    144   5     0.00000     0.00000     1.25520  0.0
    142    133    134    145   5     0.00000     0.00000     1.25520  0.0
    143    133    134    135   5     0.00000     0.00000     1.95811  0.0
    143    133    134    144   5     0.00000     0.00000     1.25520  0.0
    143    133    134    145   5     0.00000     0.00000     1.25520  0.0
    133    134    135    146   5    -2.16731    -3.93296     0.98324  0.0
    144    134    135    146   5     0.00000     0.00000     0.67362  0.0
    145    134    135    146   5     0.00000     0.00000     0.67362  0.0
    134    135    146    147   5     0.00000    25.10400     0.00000  0.0
    134    135    146    148   5    13.65239    24.43456     0.00000  0.0
    135    146    148    149   5     0.00000     0.00000     3.07524  0.0
    135    146    148    154   5     0.00000     0.00000     0.00000  0.0
    135    146    148    155   5     0.00000     0.00000     0.00000  0.0
    147    146    148    149   5     0.00000     2.52295     0.00000  0.0
    147    146    148    154   5     0.00000     0.00000     0.00000  0.0
    147    146    148    155   5     0.00000     0.00000     0.00000  0.0
    146    148    149    150   5    -8.00818    -1.52298     2.46438  0.0
    146    148    149    156   5     0.00000     0.00000    -0.94140  0.0
    146    148    149    157   5     0.00000     0.00000    -0.94140  0.0
    154    148    149    150   5     0.00000     0.00000     1.25520  0.0
    154    148    149    156   5     0.00000     0.00000     1.25520  0.0
    154    148    149    157   5     0.00000     0.00000     1.25520  0.0
    155    148    149    150   5     0.00000     0.00000     1.25520  0.0
    155    148    149    156   5     0.00000     0.00000     1.25520  0.0
    155    148    149    157   5     0.00000     0.00000     1.25520  0.0
    148    149    150    151   5     4.74884    -0.63178     1.67360  0.0
    148    149    150    158   5     0.00000     0.00000     1.25520  0.0
    148    149    150    159   5     0.00000     0.00000     1.25520  0.0
    156    149    150    151   5     0.00000     0.00000     1.25520  0.0
    156    149    150    158   5     0.00000     0.00000     1.25520  0.0
    156    149    150    159   5     0.00000     0.00000     1.25520  0.0
    157    149    150    151   5     0.00000     0.00000     1.25520  0.0
    157    149    150    158   5     0.00000     0.00000     1.25520  0.0
    157    149    150    159   5     0.00000     0.00000     1.25520  0.0
    149    150    151    152   5     4.74884    -0.63178     1.67360  0.0
    149    150    151    160   5     0.00000     0.00000     1.25520  0.0
    149    150    151    161   5     0.00000     0.00000     1.25520  0.0
    158    150    151    152   5     0.00000     0.00000     1.25520  0.0
    158    150    151    160   5     0.00000     0.00000     1.25520  0.0
    158    150    151    161   5     0.00000     0.00000     1.25520  0.0
    159    150    151    152   5     0.00000     0.00000     1.25520  0.0
    159    150    151    160   5     0.00000     0.00000     1.25520  0.0
    159    150    151    161   5     0.00000     0.00000     1.25520  0.0
    150    151    152    153   5     5.25092    -2.58990     2.28446  0.0
    150    151    152    162   5     0.00000     0.00000     1.25520  0.0
    150    151    152    163   5     0.00000     0.00000     1.25520  0.0
    160    151    152    153   5     0.00000     0.00000     1.95811  0.0
    160    151    152    162   5     0.00000     0.00000     1.25520  0.0
    160    151    152    163   5     0.00000     0.00000     1.25520  0.0
    161    151    152    153   5     0.00000     0.00000     1.95811  0.0
    161    151    152    162   5     0.00000     0.00000     1.25520  0.0
    161    151    152    163   5     0.00000     0.00000     1.25520  0.0
    151    152    153    164   5    -2.16731    -3.93296     0.98324  0.0
    162    152    153    164   5     0.00000     0.00000     0.67362  0.0
    163    152    153    164   5     0.00000     0.00000     0.67362  0.0
    152    153    164    165   5     0.00000    25.10400     0.00000  0.0
    152    153    164    166   5    13.65239    24.43456     0.00000  0.0
    153    164    166    167   5     0.00000     0.00000     3.07524  0.0
    153    164    166    172   5     0.00000     0.00000     0.00000  0.0
    153    164    166    173   5     0.00000     0.00000     0.00000  0.0
    165    164    166    167   5     0.00000     2.52295     0.00000  0.0
    165    164    166    172   5     0.00000     0.00000     0.00000  0.0
    165    164    166    173   5     0.00000     0.00000     0.00000  0.0
    164    166    167    168   5    -8.00818    -1.52298     2.46438  0.0
    164    166    167    174   5     0.00000     0.00000    -0.94140  0.0
    164    166    167    175   5     0.00000     0.00000    -0.94140  0.0
    172    166    167    168   5     0.00000     0.00000     1.25520  0.0
    172    166    167    174   5     0.00000     0.00000     1.25520  0.0
    172    166    167    175   5     0.00000     0.00000     1.25520  0.0
    173    166    167    168   5     0.00000     0.00000     1.25520  0.0
    173    166    167    174   5     0.00000     0.00000     1.25520  0.0
    173    166    167    175   5     0.00000     0.00000     1.25520  0.0
    166    167    168    169   5     4.74884    -0.63178     1.67360  0.0
    166    167    168    176   5     0.00000     0.00000     1.25520  0.0
    166    167    168    177   5     0.00000     0.00000     1.25520  0.0
    174    167    168    169   5     0.00000     0.00000     1.25520  0.0
    174    167    168    176   5     0.00000     0.00000     1.25520  0.0
    174    167    168    177   5     0.00000     0.00000     1.25520  0.0
    175    167    168    169   5     0.00000     0.00000     1.25520  0.0
    175    167    168    176   5     0.00000     0.00000     1.25520  0.0
    175    167    168    177   5     0.00000     0.00000     1.25520  0.0
    167    168    169    170   5     4.74884    -0.63178     1.67360  0.0
    167    168    169    178   5     0.00000     0.00000     1.25520  0.0
    167    168    169    179   5     0.00000     0.00000     1.25520  0.0
    176    168    169    170   5     0.00000     0.00000     1.25520  0.0
    176    168    169    178   5     0.00000     0.00000     1.25520  0.0
    176    168    169    179   5     0.00000     0.00000     1.25520  0.0
    177    168    169    170   5     0.00000     0.00000     1.25520  0.0
    177    168    169    178   5     0.00000     0.00000     1.25520  0.0
    177    168    169    179   5     0.00000     0.00000     1.25520  0.0
    168    169    170    171   5     5.25092    -2.58990     2.28446  0.0
    168    169    170    180   5     0.00000     0.00000     1.25520  0.0
    168    169    170    181   5     0.00000     0.00000     1.25520  0.0
    178    169    170    171   5     0.00000     0.00000     1.95811  0.0
    178    169    170    180   5     0.00000     0.00000     1.25520  0.0
    178    169    170    181   5     0.00000     0.00000     1.25520  0.0
    179    169    170    171   5     0.00000     0.00000     1.95811  0.0
    179    169    170    180   5     0.00000     0.00000     1.25520  0.0
    179    169    170    181   5     0.00000     0.00000     1.25520  0.0
    169    170    171    182   5    -2.16731    -3.93296     0.98324  0.0
    180    170    171    182   5     0.00000     0.00000     0.67362  0.0
    181    170    171    182   5     0.00000     0.00000     0.67362  0.0
    170    171    182    183   5     0.00000    25.10400     0.00000  0.0
    170    171    182    184   5    13.65239    24.43456     0.00000  0.0
    171    182    184    185   5     0.00000     0.00000     3.07524  0.0
    171    182    184    190   5     0.00000     0.00000     0.00000  0.0
    171    182    184    191   5     0.00000     0.00000     0.00000  0.0
    183    182    184    185   5     0.00000     2.52295     0.00000  0.0
    183    182    184    190   5     0.00000     0.00000     0.00000  0.0
    183    182    184    191   5     0.00000     0.00000     0.00000  0.0
    182    184    185    186   5    -8.00818    -1.52298     2.46438  0.0
    182    184    185    192   5     0.00000     0.00000    -0.94140  0.0
    182    184    185    193   5     0.00000     0.00000    -0.94140  0.0
    190    184    185    186   5     0.00000     0.00000     1.25520  0.0
    190    184    185    192   5     0.00000     0.00000     1.25520  0.0
    190    184    185    193   5     0.00000     0.00000     1.25520  0.0
    191    184    185    186   5     0.00000     0.00000     1.25520  0.0
    191    184    185    192   5     0.00000     0.00000     1.25520  0.0
    191    184    185    193   5     0.00000     0.00000     1.25520  0.0
    184    185    186    187   5     4.74884    -0.63178     1.67360  0.0
    184    185    186    194   5     0.00000     0.00000     1.25520  0.0
    184    185    186    195   5     0.00000     0.00000     1.25520  0.0
    192    185    186    187   5     0.00000     0.00000     1.25520  0.0
    192    185    186    194   5     0.00000     0.00000     1.25520  0.0
    192    185    186    195   5     0.00000     0.00000     1.25520  0.0
    193    185    186    187   5     0.00000     0.00000     1.25520  0.0
    193    185    186    194   5     0.00000     0.00000     1.25520  0.0
    193    185    186    195   5     0.00000     0.00000     1.25520  0.0
    185    186    187    188   5     4.74884    -0.63178     1.67360  0.0
    185    186    187    196   5     0.00000     0.00000     1.25520  0.0
    185    186    187    197   5     0.00000     0.00000     1.25520  0.0
    194    186    187    188   5     0.00000     0.00000     1.25520  0.0
    194    186    187    196   5     0.00000     0.00000     1.25520  0.0
    194    186    187    197   5     0.00000     0.00000     1.25520  0.0
    195    186    187    188   5     0.00000     0.00000     1.25520  0.0
    195    186    187    196   5     0.00000     0.00000     1.25520  0.0
    195    186    187    197   5     0.00000     0.00000     1.25520  0.0
    186    187    188    189   5     5.25092    -2.58990     2.28446  0.0
    186    187    188    198   5     0.00000     0.00000     1.25520  0.0
    186    187    188    199   5     0.00000     0.00000     1.25520  0.0
    196    187    188    189   5     0.00000     0.00000     1.95811  0.0
    196    187    188    198   5     0.00000     0.00000     1.25520  0.0
    196    187    188    199   5     0.00000     0.00000     1.25520  0.0
    197    187    188    189   5     0.00000     0.00000     1.95811  0.0
    197    187    188    198   5     0.00000     0.00000     1.25520  0.0
    197    187    188    199   5     0.00000     0.00000     1.25520  0.0
    187    188    189    200   5    -2.16731    -3.93296     0.98324  0.0
    198    188    189    200   5     0.00000     0.00000     0.67362  0.0
    199    188    189    200   5     0.00000     0.00000     0.67362  0.0
    188    189    200    201   5     0.00000    25.10400     0.00000  0.0
    188    189    200    202   5    13.65239    24.43456     0.00000  0.0
    189    200    202    203   5     0.00000     0.00000     3.07524  0.0
    189    200    202    208   5     0.00000     0.00000     0.00000  0.0
    189    200    202    209   5     0.00000     0.00000     0.00000  0.0
    201    200    202    203   5     0.00000     2.52295     0.00000  0.0
    201    200    202    208   5     0.00000     0.00000     0.00000  0.0
    201    200    202    209   5     0.00000     0.00000     0.00000  0.0
    200    202    203    204   5    -8.00818    -1.52298     2.46438  0.0
    200    202    203    210   5     0.00000     0.00000    -0.94140  0.0
    200    202    203    211   5     0.00000     0.00000    -0.94140  0.0
    208    202    203    204   5     0.00000     0.00000     1.25520  0.0
    208    202    203    210   5     0.00000     0.00000     1.25520  0.0
    208    202    203    211   5     0.00000     0.00000     1.25520  0.0
    209    202    203    204   5     0.00000     0.00000     1.25520  0.0
    209    202    203    210   5     0.00000     0.00000     1.25520  0.0
    209    202    203    211   5     0.00000     0.00000     1.25520  0.0
    202    203    204    205   5     4.74884    -0.63178     1.67360  0.0
    202    203    204    212   5     0.00000     0.00000     1.25520  0.0
    202    203    204    213   5     0.00000     0.00000     1.25520  0.0
    210    203    204    205   5     0.00000     0.00000     1.25520  0.0
    210    203    204    212   5     0.00000     0.00000     1.25520  0.0
    210    203    204    213   5     0.00000     0.00000     1.25520  0.0
    211    203    204    205   5     0.00000     0.00000     1.25520  0.0
    211    203    204    212   5     0.00000     0.00000     1.25520  0.0
    211    203    204    213   5     0.00000     0.00000     1.25520  0.0
    203    204    205    206   5     4.74884    -0.63178     1.67360  0.0
    203    204    205    214   5     0.00000     0.00000     1.25520  0.0
    203    204    205    215   5     0.00000     0.00000     1.25520  0.0
    212    204    205    206   5     0.00000     0.00000     1.25520  0.0
    212    204    205    214   5     0.00000     0.00000     1.25520  0.0
    212    204    205    215   5     0.00000     0.00000     1.25520  0.0
    213    204    205    206   5     0.00000     0.00000     1.25520  0.0
    213    204    205    214   5     0.00000     0.00000     1.25520  0.0
    213    204    205    215   5     0.00000     0.00000     1.25520  0.0
    204    205    206    207   5     5.25092    -2.58990     2.28446  0.0
    204    205    206    216   5     0.00000     0.00000     1.25520  0.0
    204    205    206    217   5     0.00000     0.00000     1.25520  0.0
    214    205    206    207   5     0.00000     0.00000     1.95811  0.0
    214    205    206    216   5     0.00000     0.00000     1.25520  0.0
    214    205    206    217   5     0.00000     0.00000     1.25520  0.0
    215    205    206    207   5     0.00000     0.00000     1.95811  0.0
    215    205    206    216   5     0.00000     0.00000     1.25520  0.0
    215    205    206    217   5     0.00000     0.00000     1.25520  0.0
    205    206    207    218   5    -2.16731    -3.93296     0.98324  0.0
    216    206    207    218   5     0.00000     0.00000     0.67362  0.0
    217    206    207    218   5     0.00000     0.00000     0.67362  0.0
    206    207    218    219   5     0.00000    25.10400     0.00000  0.0
    206    207    218    220   5    13.65239    24.43456     0.00000  0.0
    207    218    220    221   5     0.00000     0.00000     3.07524  0.0
    207    218    220    226   5     0.00000     0.00000     0.00000  0.0
    207    218    220    227   5     0.00000     0.00000     0.00000  0.0
    219    218    220    221   5     0.00000     2.52295     0.00000  0.0
    219    218    220    226   5     0.00000     0.00000     0.00000  0.0
    219    218    220    227   5     0.00000     0.00000     0.00000  0.0
    218    220    221    222   5    -8.00818    -1.52298     2.46438  0.0
    218    220    221    228   5     0.00000     0.00000    -0.94140  0.0
    218    220    221    229   5     0.00000     0.00000    -0.94140  0.0
    226    220    221    222   5     0.00000     0.00000     1.25520  0.0
    226    220    221    228   5     0.00000     0.00000     1.25520  0.0
    226    220    221    229   5     0.00000     0.00000     1.25520  0.0
    227    220    221    222   5     0.00000     0.00000     1.25520  0.0
    227    220    221    228   5     0.00000     0.00000     1.25520  0.0
    227    220    221    229   5     0.00000     0.00000     1.25520  0.0
    220    221    222    223   5     4.74884    -0.63178     1.67360  0.0
    220    221    222    230   5     0.00000     0.00000     1.25520  0.0
    220    221    222    231   5     0.00000     0.00000     1.25520  0.0
    228    221    222    223   5     0.00000     0.00000     1.25520  0.0
    228    221    222    230   5     0.00000     0.00000     1.25520  0.0
    228    221    222    231   5     0.00000     0.00000     1.25520  0.0
    229    221    222    223   5     0.00000     0.00000     1.25520  0.0
    229    221    222    230   5     0.00000     0.00000     1.25520  0.0
    229    221    222    231   5     0.00000     0.00000     1.25520  0.0
    221    222    223    224   5     4.74884    -0.63178     1.67360  0.0
    221    222    223    232   5     0.00000     0.00000     1.25520  0.0
    221    222    223    233   5     0.00000     0.00000     1.25520  0.0
    230    222    223    224   5     0.00000     0.00000     1.25520  0.0
    230    222    223    232   5     0.00000     0.00000     1.25520  0.0
    230    222    223    233   5     0.00000     0.00000     1.25520  0.0
    231    222    223    224   5     0.00000     0.00000     1.25520  0.0
    231    222    223    232   5     0.00000     0.00000     1.25520  0.0
    231    222    223    233   5     0.00000     0.00000     1.25520  0.0
    222    223    224    225   5     5.25092    -2.58990     2.28446  0.0
    222    223    224    234   5     0.00000     0.00000     1.25520  0.0
    222    223    224    235   5     0.00000     0.00000     1.25520  0.0
    232    223    224    225   5     0.00000     0.00000     1.95811  0.0
    232    223    224    234   5     0.00000     0.00000     1.25520  0.0
    232    223    224    235   5     0.00000     0.00000     1.25520  0.0
    233    223    224    225   5     0.00000     0.00000     1.95811  0.0
    233    223    224    234   5     0.00000     0.00000     1.25520  0.0
    233    223    224    235   5     0.00000     0.00000     1.25520  0.0
    223    224    225    236   5    -2.16731    -3.93296     0.98324  0.0
    234    224    225    236   5     0.00000     0.00000     0.67362  0.0
    235    224    225    236   5     0.00000     0.00000     0.67362  0.0
    224    225    236    237   5     0.00000    25.10400     0.00000  0.0
    224    225    236    238   5    13.65239    24.43456     0.00000  0.0
    225    236    238    239   5     0.00000     0.00000     3.07524  0.0
    225    236    238    244   5     0.00000     0.00000     0.00000  0.0
    225    236    238    245   5     0.00000     0.00000     0.00000  0.0
    237    236    238    239   5     0.00000     2.52295     0.00000  0.0
    237    236    238    244   5     0.00000     0.00000     0.00000  0.0
    237    236    238    245   5     0.00000     0.00000     0.00000  0.0
    236    238    239    240   5    -8.00818    -1.52298     2.46438  0.0
    236    238    239    246   5     0.00000     0.00000    -0.94140  0.0
    236    238    239    247   5     0.00000     0.00000    -0.94140  0.0
    244    238    239    240   5     0.00000     0.00000     1.25520  0.0
    244    238    239    246   5     0.00000     0.00000     1.25520  0.0
    244    238    239    247   5     0.00000     0.00000     1.25520  0.0
    245    238    239    240   5     0.00000     0.00000     1.25520  0.0
    245    238    239    246   5     0.00000     0.00000     1.25520  0.0
    245    238    239    247   5     0.00000     0.00000     1.25520  0.0
    238    239    240    241   5     4.74884    -0.63178     1.67360  0.0
    238    239    240    248   5     0.00000     0.00000     1.25520  0.0
    238    239    240    249   5     0.00000     0.00000     1.25520  0.0
    246    239    240    241   5     0.00000     0.00000     1.25520  0.0
    246    239    240    248   5     0.00000     0.00000     1.25520  0.0
    246    239    240    249   5     0.00000     0.00000     1.25520  0.0
    247    239    240    241   5     0.00000     0.00000     1.25520  0.0
    247    239    240    248   5     0.00000     0.00000     1.25520  0.0
    247    239    240    249   5     0.00000     0.00000     1.25520  0.0
    239    240    241    242   5     4.74884    -0.63178     1.67360  0.0
    239    240    241    250   5     0.00000     0.00000     1.25520  0.0
    239    240    241    251   5     0.00000     0.00000     1.25520  0.0
    248    240    241    242   5     0.00000     0.00000     1.25520  0.0
    248    240    241    250   5     0.00000     0.00000     1.25520  0.0
    248    240    241    251   5     0.00000     0.00000     1.25520  0.0
    249    240    241    242   5     0.00000     0.00000     1.25520  0.0
    249    240    241    250   5     0.00000     0.00000     1.25520  0.0
    249    240    241    251   5     0.00000     0.00000     1.25520  0.0
    240    241    242    243   5     5.25092    -2.58990     2.28446  0.0
    240    241    242    252   5     0.00000     0.00000     1.25520  0.0
    240    241    242    253   5     0.00000     0.00000     1.25520  0.0
    250    241    242    243   5     0.00000     0.00000     1.95811  0.0
    250    241    242    252   5     0.00000     0.00000     1.25520  0.0
    250    241    242    253   5     0.00000     0.00000     1.25520  0.0
    251    241    242    243   5     0.00000     0.00000     1.95811  0.0
    251    241    242    252   5     0.00000     0.00000     1.25520  0.0
    251    241    242    253   5     0.00000     0.00000     1.25520  0.0
    241    242    243    254   5    -2.16731    -3.93296     0.98324  0.0
    252    242    243    254   5     0.00000     0.00000     0.67362  0.0
    253    242    243    254   5     0.00000     0.00000     0.67362  0.0
    242    243    254    255   5     0.00000    25.10400     0.00000  0.0
    242    243    254    256   5    13.65239    24.43456     0.00000  0.0
    243    254    256    257   5     0.00000     0.00000     3.07524  0.0
    243    254    256    262   5     0.00000     0.00000     0.00000  0.0
    243    254    256    263   5     0.00000     0.00000     0.00000  0.0
    255    254    256    257   5     0.00000     2.52295     0.00000  0.0
    255    254    256    262   5     0.00000     0.00000     0.00000  0.0
    255    254    256    263   5     0.00000     0.00000     0.00000  0.0
    254    256    257    258   5    -8.00818    -1.52298     2.46438  0.0
    254    256    257    264   5     0.00000     0.00000    -0.94140  0.0
    254    256    257    265   5     0.00000     0.00000    -0.94140  0.0
    262    256    257    258   5     0.00000     0.00000     1.25520  0.0
    262    256    257    264   5     0.00000     0.00000     1.25520  0.0
    262    256    257    265   5     0.00000     0.00000     1.25520  0.0
    263    256    257    258   5     0.00000     0.00000     1.25520  0.0
    263    256    257    264   5     0.00000     0.00000     1.25520  0.0
    263    256    257    265   5     0.00000     0.00000     1.25520  0.0
    256    257    258    259   5     4.74884    -0.63178     1.67360  0.0
    256    257    258    266   5     0.00000     0.00000     1.25520  0.0
    256    257    258    267   5     0.00000     0.00000     1.25520  0.0
    264    257    258    259   5     0.00000     0.00000     1.25520  0.0
    264    257    258    266   5     0.00000     0.00000     1.25520  0.0
    264    257    258    267   5     0.00000     0.00000     1.25520  0.0
    265    257    258    259   5     0.00000     0.00000     1.25520  0.0
    265    257    258    266   5     0.00000     0.00000     1.25520  0.0
    265    257    258    267   5     0.00000     0.00000     1.25520  0.0
    257    258    259    260   5     4.74884    -0.63178     1.67360  0.0
    257    258    259    268   5     0.00000     0.00000     1.25520  0.0
    257    258    259    269   5     0.00000     0.00000     1.25520  0.0
    266    258    259    260   5     0.00000     0.00000     1.25520  0.0
    266    258    259    268   5     0.00000     0.00000     1.25520  0.0
    266    258    259    269   5     0.00000     0.00000     1.25520  0.0
    267    258    259    260   5     0.00000     0.00000     1.25520  0.0
    267    258    259    268   5     0.00000     0.00000     1.25520  0.0
    267    258    259    269   5     0.00000     0.00000     1.25520  0.0
    258    259    260    261   5     5.25092    -2.58990     2.28446  0.0
    258    259    260    270   5     0.00000     0.00000     1.25520  0.0
    258    259    260    271   5     0.00000     0.00000     1.25520  0.0
    268    259    260    261   5     0.00000     0.00000     1.95811  0.0
    268    259    260    270   5     0.00000     0.00000     1.25520  0.0
    268    259    260    271   5     0.00000     0.00000     1.25520  0.0
    269    259    260    261   5     0.00000     0.00000     1.95811  0.0
    269    259    260    270   5     0.00000     0.00000     1.25520  0.0
    269    259    260    271   5     0.00000     0.00000     1.25520  0.0
    259    260    261    272   5    -2.16731    -3.93296     0.98324  0.0
    270    260    261    272   5     0.00000     0.00000     0.67362  0.0
    271    260    261    272   5     0.00000     0.00000     0.67362  0.0
    260    261    272    273   5     0.00000    25.10400     0.00000  0.0
    260    261    272    274   5    13.65239    24.43456     0.00000  0.0
    261    272    274    275   5     0.00000     0.00000     3.07524  0.0
    261    272    274    280   5     0.00000     0.00000     0.00000  0.0
    261    272    274    281   5     0.00000     0.00000     0.00000  0.0
    273    272    274    275   5     0.00000     2.52295     0.00000  0.0
    273    272    274    280   5     0.00000     0.00000     0.00000  0.0
    273    272    274    281   5     0.00000     0.00000     0.00000  0.0
    272    274    275    276   5    -8.00818    -1.52298     2.46438  0.0
    272    274    275    282   5     0.00000     0.00000    -0.94140  0.0
    272    274    275    283   5     0.00000     0.00000    -0.94140  0.0
    280    274    275    276   5     0.00000     0.00000     1.25520  0.0
    280    274    275    282   5     0.00000     0.00000     1.25520  0.0
    280    274    275    283   5     0.00000     0.00000     1.25520  0.0
    281    274    275    276   5     0.00000     0.00000     1.25520  0.0
    281    274    275    282   5     0.00000     0.00000     1.25520  0.0
    281    274    275    283   5     0.00000     0.00000     1.25520  0.0
    274    275    276    277   5     4.74884    -0.63178     1.67360  0.0
    274    275    276    284   5     0.00000     0.00000     1.25520  0.0
    274    275    276    285   5     0.00000     0.00000     1.25520  0.0
    282    275    276    277   5     0.00000     0.00000     1.25520  0.0
    282    275    276    284   5     0.00000     0.00000     1.25520  0.0
    282    275    276    285   5     0.00000     0.00000     1.25520  0.0
    283    275    276    277   5     0.00000     0.00000     1.25520  0.0
    283    275    276    284   5     0.00000     0.00000     1.25520  0.0
    283    275    276    285   5     0.00000     0.00000     1.25520  0.0
    275    276    277    278   5     4.74884    -0.63178     1.67360  0.0
    275    276    277    286   5     0.00000     0.00000     1.25520  0.0
    275    276    277    287   5     0.00000     0.00000     1.25520  0.0
    284    276    277    278   5     0.00000     0.00000     1.25520  0.0
    284    276    277    286   5     0.00000     0.00000     1.25520  0.0
    284    276    277    287   5     0.00000     0.00000     1.25520  0.0
    285    276    277    278   5     0.00000     0.00000     1.25520  0.0
    285    276    277    286   5     0.00000     0.00000     1.25520  0.0
    285    276    277    287   5     0.00000     0.00000     1.25520  0.0
    276    277    278    279   5     5.25092    -2.58990     2.28446  0.0
    276    277    278    288   5     0.00000     0.00000     1.25520  0.0
    276    277    278    289   5     0.00000     0.00000     1.25520  0.0
    286    277    278    279   5     0.00000     0.00000     1.95811  0.0
    286    277    278    288   5     0.00000     0.00000     1.25520  0.0
    286    277    278    289   5     0.00000     0.00000     1.25520  0.0
    287    277    278    279   5     0.00000     0.00000     1.95811  0.0
    287    277    278    288   5     0.00000     0.00000     1.25520  0.0
    287    277    278    289   5     0.00000     0.00000     1.25520  0.0
    277    278    279    290   5    -2.16731    -3.93296     0.98324  0.0
    288    278    279    290   5     0.00000     0.00000     0.67362  0.0
    289    278    279    290   5     0.00000     0.00000     0.67362  0.0
    278    279    290    291   5     0.00000    25.10400     0.00000  0.0
    278    279    290    292   5    13.65239    24.43456     0.00000  0.0
    279    290    292    293   5     0.00000     0.00000     3.07524  0.0
    279    290    292    298   5     0.00000     0.00000     0.00000  0.0
    279    290    292    299   5     0.00000     0.00000     0.00000  0.0
    291    290    292    293   5     0.00000     2.52295     0.00000  0.0
    291    290    292    298   5     0.00000     0.00000     0.00000  0.0
    291    290    292    299   5     0.00000     0.00000     0.00000  0.0
    290    292    293    294   5    -8.00818    -1.52298     2.46438  0.0
    290    292    293    300   5     0.00000     0.00000    -0.94140  0.0
    290    292    293    301   5     0.00000     0.00000    -0.94140  0.0
    298    292    293    294   5     0.00000     0.00000     1.25520  0.0
    298    292    293    300   5     0.00000     0.00000     1.25520  0.0
    298    292    293    301   5     0.00000     0.00000     1.25520  0.0
    299    292    293    294   5     0.00000     0.00000     1.25520  0.0
    299    292    293    300   5     0.00000     0.00000     1.25520  0.0
    299    292    293    301   5     0.00000     0.00000     1.25520  0.0
    292    293    294    295   5     4.74884    -0.63178     1.67360  0.0
    292    293    294    302   5     0.00000     0.00000     1.25520  0.0
    292    293    294    303   5     0.00000     0.00000     1.25520  0.0
    300    293    294    295   5     0.00000     0.00000     1.25520  0.0
    300    293    294    302   5     0.00000     0.00000     1.25520  0.0
    300    293    294    303   5     0.00000     0.00000     1.25520  0.0
    301    293    294    295   5     0.00000     0.00000     1.25520  0.0
    301    293    294    302   5     0.00000     0.00000     1.25520  0.0
    301    293    294    303   5     0.00000     0.00000     1.25520  0.0
    293    294    295    296   5     4.74884    -0.63178     1.67360  0.0
    293    294    295    304   5     0.00000     0.00000     1.25520  0.0
    293    294    295    305   5     0.00000     0.00000     1.25520  0.0
    302    294    295    296   5     0.00000     0.00000     1.25520  0.0
    302    294    295    304   5     0.00000     0.00000     1.25520  0.0
    302    294    295    305   5     0.00000     0.00000     1.25520  0.0
    303    294    295    296   5     0.00000     0.00000     1.25520  0.0
    303    294    295    304   5     0.00000     0.00000     1.25520  0.0
    303    294    295    305   5     0.00000     0.00000     1.25520  0.0
    294    295    296    297   5     5.25092    -2.58990     2.28446  0.0
    294    295    296    306   5     0.00000     0.00000     1.25520  0.0
    294    295    296    307   5     0.00000     0.00000     1.25520  0.0
    304    295    296    297   5     0.00000     0.00000     1.95811  0.0
    304    295    296    306   5     0.00000     0.00000     1.25520  0.0
    304    295    296    307   5     0.00000     0.00000     1.25520  0.0
    305    295    296    297   5     0.00000     0.00000     1.95811  0.0
    305    295    296    306   5     0.00000     0.00000     1.25520  0.0
    305    295    296    307   5     0.00000     0.00000     1.25520  0.0
    295    296    297    308   5    -2.16731    -3.93296     0.98324  0.0
    306    296    297    308   5     0.00000     0.00000     0.67362  0.0
    307    296    297    308   5     0.00000     0.00000     0.67362  0.0
    296    297    308    309   5     0.00000    25.10400     0.00000  0.0
    296    297    308    310   5    13.65239    24.43456     0.00000  0.0
    297    308    310    311   5     0.00000     0.00000     3.07524  0.0
    297    308    310    316   5     0.00000     0.00000     0.00000  0.0
    297    308    310    317   5     0.00000     0.00000     0.00000  0.0
    309    308    310    311   5     0.00000     2.52295     0.00000  0.0
    309    308    310    316   5     0.00000     0.00000     0.00000  0.0
    309    308    310    317   5     0.00000     0.00000     0.00000  0.0
    308    310    311    312   5    -8.00818    -1.52298     2.46438  0.0
    308    310    311    318   5     0.00000     0.00000    -0.94140  0.0
    308    310    311    319   5     0.00000     0.00000    -0.94140  0.0
    316    310    311    312   5     0.00000     0.00000     1.25520  0.0
    316    310    311    318   5     0.00000     0.00000     1.25520  0.0
    316    310    311    319   5     0.00000     0.00000     1.25520  0.0
    317    310    311    312   5     0.00000     0.00000     1.25520  0.0
    317    310    311    318   5     0.00000     0.00000     1.25520  0.0
    317    310    311    319   5     0.00000     0.00000     1.25520  0.0
    310    311    312    313   5     4.74884    -0.63178     1.67360  0.0
    310    311    312    320   5     0.00000     0.00000     1.25520  0.0
    310    311    312    321   5     0.00000     0.00000     1.25520  0.0
    318    311    312    313   5     0.00000     0.00000     1.25520  0.0
    318    311    312    320   5     0.00000     0.00000     1.25520  0.0
    318    311    312    321   5     0.00000     0.00000     1.25520  0.0
    319    311    312    313   5     0.00000     0.00000     1.25520  0.0
    319    311    312    320   5     0.00000     0.00000     1.25520  0.0
    319    311    312    321   5     0.00000     0.00000     1.25520  0.0
    311    312    313    314   5     4.74884    -0.63178     1.67360  0.0
    311    312    313    322   5     0.00000     0.00000     1.25520  0.0
    311    312    313    323   5     0.00000     0.00000     1.25520  0.0
    320    312    313    314   5     0.00000     0.00000     1.25520  0.0
    320    312    313    322   5     0.00000     0.00000     1.25520  0.0
    320    312    313    323   5     0.00000     0.00000     1.25520  0.0
    321    312    313    314   5     0.00000     0.00000     1.25520  0.0
    321    312    313    322   5     0.00000     0.00000     1.25520  0.0
    321    312    313    323   5     0.00000     0.00000     1.25520  0.0
    312    313    314    315   5     5.25092    -2.58990     2.28446  0.0
    312    313    314    324   5     0.00000     0.00000     1.25520  0.0
    312    313    314    325   5     0.00000     0.00000     1.25520  0.0
    322    313    314    315   5     0.00000     0.00000     1.95811  0.0
    322    313    314    324   5     0.00000     0.00000     1.25520  0.0
    322    313    314    325   5     0.00000     0.00000     1.25520  0.0
    323    313    314    315   5     0.00000     0.00000     1.95811  0.0
    323    313    314    324   5     0.00000     0.00000     1.25520  0.0
    323    313    314    325   5     0.00000     0.00000     1.25520  0.0
    313    314    315    326   5    -2.16731    -3.93296     0.98324  0.0
    324    314    315    326   5     0.00000     0.00000     0.67362  0.0
    325    314    315    326   5     0.00000     0.00000     0.67362  0.0
    314    315    326    327   5     0.00000    25.10400     0.00000  0.0
    314    315    326    328   5    13.65239    24.43456     0.00000  0.0
    315    326    328    329   5     0.00000     0.00000     3.07524  0.0
    315    326    328    334   5     0.00000     0.00000     0.00000  0.0
    315    326    328    335   5     0.00000     0.00000     0.00000  0.0
    327    326    328    329   5     0.00000     2.52295     0.00000  0.0
    327    326    328    334   5     0.00000     0.00000     0.00000  0.0
    327    326    328    335   5     0.00000     0.00000     0.00000  0.0
    326    328    329    330   5    -8.00818    -1.52298     2.46438  0.0
    326    328    329    336   5     0.00000     0.00000    -0.94140  0.0
    326    328    329    337   5     0.00000     0.00000    -0.94140  0.0
    334    328    329    330   5     0.00000     0.00000     1.25520  0.0
    334    328    329    336   5     0.00000     0.00000     1.25520  0.0
    334    328    329    337   5     0.00000     0.00000     1.25520  0.0
    335    328    329    330   5     0.00000     0.00000     1.25520  0.0
    335    328    329    336   5     0.00000     0.00000     1.25520  0.0
    335    328    329    337   5     0.00000     0.00000     1.25520  0.0
    328    329    330    331   5     4.74884    -0.63178     1.67360  0.0
    328    329    330    338   5     0.00000     0.00000     1.25520  0.0
    328    329    330    339   5     0.00000     0.00000     1.25520  0.0
    336    329    330    331   5     0.00000     0.00000     1.25520  0.0
    336    329    330    338   5     0.00000     0.00000     1.25520  0.0
    336    329    330    339   5     0.00000     0.00000     1.25520  0.0
    337    329    330    331   5     0.00000     0.00000     1.25520  0.0
    337    329    330    338   5     0.00000     0.00000     1.25520  0.0
    337    329    330    339   5     0.00000     0.00000     1.25520  0.0
    329    330    331    332   5     4.74884    -0.63178     1.67360  0.0
    329    330    331    340   5     0.00000     0.00000     1.25520  0.0
    329    330    331    341   5     0.00000     0.00000     1.25520  0.0
    338    330    331    332   5     0.00000     0.00000     1.25520  0.0
    338    330    331    340   5     0.00000     0.00000     1.25520  0.0
    338    330    331    341   5     0.00000     0.00000     1.25520  0.0
    339    330    331    332   5     0.00000     0.00000     1.25520  0.0
    339    330    331    340   5     0.00000     0.00000     1.25520  0.0
    339    330    331    341   5     0.00000     0.00000     1.25520  0.0
    330    331    332    333   5     5.25092    -2.58990     2.28446  0.0
    330    331    332    342   5     0.00000     0.00000     1.25520  0.0
    330    331    332    343   5     0.00000     0.00000     1.25520  0.0
    340    331    332    333   5     0.00000     0.00000     1.95811  0.0
    340    331    332    342   5     0.00000     0.00000     1.25520  0.0
    340    331    332    343   5     0.00000     0.00000     1.25520  0.0
    341    331    332    333   5     0.00000     0.00000     1.95811  0.0
    341    331    332    342   5     0.00000     0.00000     1.25520  0.0
    341    331    332    343   5     0.00000     0.00000     1.25520  0.0
    331    332    333    344   5    -2.16731    -3.93296     0.98324  0.0
    342    332    333    344   5     0.00000     0.00000     0.67362  0.0
    343    332    333    344   5     0.00000     0.00000     0.67362  0.0
    332    333    344    345   5     0.00000    25.10400     0.00000  0.0
    332    333    344    346   5    13.65239    24.43456     0.00000  0.0
    333    344    346    347   5     0.00000     0.00000     3.07524  0.0
    333    344    346    352   5     0.00000     0.00000     0.00000  0.0
    333    344    346    353   5     0.00000     0.00000     0.00000  0.0
    345    344    346    347   5     0.00000     2.52295     0.00000  0.0
    345    344    346    352   5     0.00000     0.00000     0.00000  0.0
    345    344    346    353   5     0.00000     0.00000     0.00000  0.0
    344    346    347    348   5    -8.00818    -1.52298     2.46438  0.0
    344    346    347    354   5     0.00000     0.00000    -0.94140  0.0
    344    346    347    355   5     0.00000     0.00000    -0.94140  0.0
    352    346    347    348   5     0.00000     0.00000     1.25520  0.0
    352    346    347    354   5     0.00000     0.00000     1.25520  0.0
    352    346    347    355   5     0.00000     0.00000     1.25520  0.0
    353    346    347    348   5     0.00000     0.00000     1.25520  0.0
    353    346    347    354   5     0.00000     0.00000     1.25520  0.0
    353    346    347    355   5     0.00000     0.00000     1.25520  0.0
    346    347    348    349   5     4.74884    -0.63178     1.67360  0.0
    346    347    348    356   5     0.00000     0.00000     1.25520  0.0
    346    347    348    357   5     0.00000     0.00000     1.25520  0.0
    354    347    348    349   5     0.00000     0.00000     1.25520  0.0
    354    347    348    356   5     0.00000     0.00000     1.25520  0.0
    354    347    348    357   5     0.00000     0.00000     1.25520  0.0
    355    347    348    349   5     0.00000     0.00000     1.25520  0.0
    355    347    348    356   5     0.00000     0.00000     1.25520  0.0
    355    347    348    357   5     0.00000     0.00000     1.25520  0.0
    347    348    349    350   5     4.74884    -0.63178     1.67360  0.0
    347    348    349    358   5     0.00000     0.00000     1.25520  0.0
    347    348    349    359   5     0.00000     0.00000     1.25520  0.0
    356    348    349    350   5     0.00000     0.00000     1.25520  0.0
    356    348    349    358   5     0.00000     0.00000     1.25520  0.0
    356    348    349    359   5     0.00000     0.00000     1.25520  0.0
    357    348    349    350   5     0.00000     0.00000     1.25520  0.0
    357    348    349    358   5     0.00000     0.00000     1.25520  0.0
    357    348    349    359   5     0.00000     0.00000     1.25520  0.0
    348    349    350    351   5     7.23832    -1.46440     1.74054  0.0
    348    349    350    360   5     0.00000     0.00000     1.25520  0.0
    348    349    350    361   5     0.00000     0.00000     1.25520  0.0
    358    349    350    351   5     0.00000     0.00000     1.95811  0.0
    358    349    350    360   5     0.00000     0.00000     1.25520  0.0
    358    349    350    361   5     0.00000     0.00000     1.25520  0.0
    359    349    350    351   5     0.00000     0.00000     1.95811  0.0
    359    349    350    360   5     0.00000     0.00000     1.25520  0.0
    359    349    350    361   5     0.00000     0.00000     1.25520  0.0
    349    350    351    362   5    -0.97069    -0.79078     1.77820  0.0
    360    350    351    362   5     0.00000     0.00000     1.62758  0.0
    361    350    351    362   5     0.00000     0.00000     1.62758  0.0

[ dihedrals ]
; Improper dihedrals
; h   i   j   k   funct
      2      3      1     19   5     0.00000    87.86400     0.00000  0.0
      8     21     20     22   5     0.00000    87.86400     0.00000  0.0
     27     39     38     40   5     0.00000    87.86400     0.00000  0.0
     45     57     56     58   5     0.00000    87.86400     0.00000  0.0
     63     75     74     76   5     0.00000    87.86400     0.00000  0.0
     81     93     92     94   5     0.00000    87.86400     0.00000  0.0
     99    111    110    112   5     0.00000    87.86400     0.00000  0.0
    117    129    128    130   5     0.00000    87.86400     0.00000  0.0
    135    147    146    148   5     0.00000    87.86400     0.00000  0.0
    153    165    164    166   5     0.00000    87.86400     0.00000  0.0
    171    183    182    184   5     0.00000    87.86400     0.00000  0.0
    189    201    200    202   5     0.00000    87.86400     0.00000  0.0
    207    219    218    220   5     0.00000    87.86400     0.00000  0.0
    225    237    236    238   5     0.00000    87.86400     0.00000  0.0
    243    255    254    256   5     0.00000    87.86400     0.00000  0.0
    261    273    272    274   5     0.00000    87.86400     0.00000  0.0
    279    291    290    292   5     0.00000    87.86400     0.00000  0.0
    297    309    308    310   5     0.00000    87.86400     0.00000  0.0
    315    327    326    328   5     0.00000    87.86400     0.00000  0.0
    333    345    344    346   5     0.00000    87.86400     0.00000  0.0
